<event>
11    1  0.9238666E-009  0.1488189E+03  0.7561462E-02  0.1098092E+00
         22   -1    0    0    0    0  0.00000000000E+00  0.00000000000E+00  0.15468664665E+03  0.15468664665E+03  0.00000000000E+00 0.  1.
         22   -1    0    0    0    0 -0.00000000000E+00 -0.00000000000E+00 -0.18612982952E+04  0.18612982952E+04  0.00000000000E+00 0. -1.
         24    2    1    2    0    0 -0.34552891391E+01 -0.46163319369E+02 -0.98024410449E+03  0.98451558250E+03  0.79053378865E+02 0.  0.
         25    2    1    2    0    0 -0.12142492998E+02  0.12414336785E+03 -0.84825194542E+03  0.86645135059E+03  0.12509022385E+03 0.  0.
        -24    2    1    2    0    0  0.15597782137E+02 -0.77980048481E+02  0.12188440140E+03  0.16501800873E+03  0.77787898374E+02 0.  0.
        -11    1    3    3    0    0  0.35007614068E+02 -0.61202521121E+01 -0.43632179111E+03  0.43776671405E+03  0.00000000000E+00 0.  1.
         12    1    3    3    0    0 -0.38462903207E+02 -0.40043067256E+02 -0.54392231338E+03  0.54674886845E+03  0.00000000000E+00 0. -1.
         13    1    5    5    0    0  0.24047600389E+02 -0.34234128743E+01  0.30549252693E+01  0.24481409449E+02  0.00000000000E+00 0. -1.
        -14    1    5    5    0    0 -0.84498182521E+01 -0.74556635607E+02  0.11882947613E+03  0.14053659928E+03  0.00000000000E+00 0.  1.
          5    1    4    4  501    0 -0.50720260933E+02  0.54901449434E+02 -0.62582143260E+03  0.63028299352E+03  0.41800000000E+01 0. -1.
         -5    1    4    4    0  501  0.38577767935E+02  0.69241918415E+02 -0.22243051283E+03  0.23616835707E+03  0.41800000000E+01 0. -1.
</event>
<event>
11    1  0.9238666E-009  0.1381776E+03  0.7561462E-02  0.1109611E+00
         22   -1    0    0    0    0  0.00000000000E+00  0.00000000000E+00  0.76455697146E+03  0.76455697146E+03  0.00000000000E+00 0. -1.
         22   -1    0    0    0    0 -0.00000000000E+00 -0.00000000000E+00 -0.24602229128E+04  0.24602229128E+04  0.00000000000E+00 0. -1.
         24    2    1    2    0    0 -0.57902332377E+02 -0.11065615795E+02 -0.23822121758E+04  0.23842345362E+04  0.78513341810E+02 0.  0.
         25    2    1    2    0    0  0.46749512829E+02 -0.70574549499E+01 -0.13958676207E+02  0.13444671268E+03  0.12508296962E+03 0.  0.
        -24    2    1    2    0    0  0.11152819549E+02  0.18123070745E+02  0.70050491072E+03  0.70609863540E+03  0.86112263372E+02 0.  0.
        -11    1    3    3    0    0  0.13866866758E+01  0.18986291829E+02 -0.17699819021E+03  0.17801899201E+03  0.00000000000E+00 0.  1.
         12    1    3    3    0    0 -0.59289019053E+02 -0.30051907624E+02 -0.22052139856E+04  0.22062155442E+04  0.00000000000E+00 0. -1.
         11    1    5    5    0    0 -0.12141594193E+01 -0.33783613987E+02  0.33821928505E+03  0.33990453298E+03  0.00000000000E+00 0. -1.
        -12    1    5    5    0    0  0.12366978968E+02  0.51906684732E+02  0.36228562566E+03  0.36619410242E+03  0.00000000000E+00 0.  1.
          5    1    4    4  501    0 -0.32475155415E+02  0.26302051150E+02 -0.23043706932E+02  0.47905307045E+02  0.41800000000E+01 0.  1.
         -5    1    4    4    0  501  0.79224668243E+02 -0.33359506100E+02  0.90850307255E+01  0.86541405632E+02  0.41800000000E+01 0.  1.
</event>
<event>
11    1  0.9238666E-009  0.1258509E+03  0.7561462E-02  0.1124475E+00
         22   -1    0    0    0    0  0.00000000000E+00  0.00000000000E+00  0.15966001117E+04  0.15966001117E+04  0.00000000000E+00 0. -1.
         22   -1    0    0    0    0 -0.00000000000E+00 -0.00000000000E+00 -0.32541291607E+02  0.32541291607E+02  0.00000000000E+00 0. -1.
        -24    2    1    2    0    0 -0.15325818022E+02 -0.59858680704E+01  0.37842403962E+02  0.88807779909E+02  0.78638813064E+02 0.  0.
         25    2    1    2    0    0 -0.34577398679E+01  0.34462685964E+01  0.82893702656E+03  0.83833874833E+03  0.12510567622E+03 0.  0.
         24    2    1    2    0    0  0.18783557890E+02  0.25395994740E+01  0.69727938953E+03  0.70199487502E+03  0.78987251400E+02 0.  0.
        -13    1    5    5    0    0 -0.16970448323E+02  0.24749443061E+01  0.37367324829E+02  0.41114941693E+02  0.00000000000E+00 0.  1.
         14    1    5    5    0    0  0.35754006213E+02  0.64655167866E-01  0.65991206470E+03  0.66087993333E+03  0.00000000000E+00 0. -1.
         13    1    3    3    0    0 -0.16946622921E+02 -0.43522116801E+01 -0.22454838373E+02  0.28466639094E+02  0.00000000000E+00 0. -1.
        -14    1    3    3    0    0  0.16208048994E+01 -0.16336563903E+01  0.60297242334E+02  0.60341140815E+02  0.00000000000E+00 0.  1.
          5    1    4    4  501    0 -0.33057439696E+02  0.52543115395E+02  0.30665391542E+03  0.31290201268E+03  0.41800000000E+01 0. -1.
         -5    1    4    4    0  501  0.29599699828E+02 -0.49096846799E+02  0.52228311114E+03  0.52543673566E+03  0.41800000000E+01 0. -1.
</event>
<event>
11    1  0.1041312E-008  0.1375045E+03  0.7561462E-02  0.1110377E+00
         22   -1    0    0    0    0  0.00000000000E+00  0.00000000000E+00  0.70344505310E+03  0.70344505310E+03  0.00000000000E+00 0. -1.
         22   -1    0    0    0    0 -0.00000000000E+00 -0.00000000000E+00 -0.93182906681E+03  0.93182906681E+03  0.00000000000E+00 0.  1.
        -24    2    1    2    0    0  0.13841405514E+02 -0.46417667528E+02 -0.38503357763E+03  0.39621656881E+03  0.79940785157E+02 0.  0.
         25    2    1    2    0    0  0.16714914429E+01  0.10108383456E+03 -0.52575107036E+03  0.54980347107E+03  0.12509569664E+03 0.  0.
         24    2    1    2    0    0 -0.15512896957E+02 -0.54666167036E+02  0.68240063428E+03  0.68925408004E+03  0.78559031304E+02 0.  0.
        -13    1    5    5    0    0 -0.29028426999E+02 -0.18604409541E+02  0.10386684349E+03  0.10943991413E+03  0.00000000000E+00 0.  1.
         14    1    5    5    0    0  0.13515530042E+02 -0.36061757496E+02  0.57853379079E+03  0.57981416592E+03  0.00000000000E+00 0. -1.
         13    1    3    3    0    0 -0.52435199975E+01  0.19315373764E+02 -0.43387063526E+02  0.47780910906E+02  0.00000000000E+00 0. -1.
        -14    1    3    3    0    0  0.19084925512E+02 -0.65733041292E+02 -0.34164651410E+03  0.34843565790E+03  0.00000000000E+00 0.  1.
          5    1    4    4  501    0 -0.88045180137E+00 -0.26994285454E+02 -0.15825097561E+03  0.16059361857E+03  0.41800000000E+01 0.  1.
         -5    1    4    4    0  501  0.25519432443E+01  0.12807812002E+03 -0.36750009475E+03  0.38920985250E+03  0.41800000000E+01 0.  1.
</event>
<event>
11    1  0.9238666E-009  0.3255726E+03  0.7561462E-02  0.9899138E-01
         22   -1    0    0    0    0  0.00000000000E+00  0.00000000000E+00  0.31383572899E+03  0.31383572899E+03  0.00000000000E+00 0.  1.
         22   -1    0    0    0    0 -0.00000000000E+00 -0.00000000000E+00 -0.10724848485E+04  0.10724848485E+04  0.00000000000E+00 0.  1.
         24    2    1    2    0    0 -0.35471947036E+02 -0.64573731902E+02 -0.43772078354E+03  0.44722165944E+03  0.54586650818E+02 0.  0.
         25    2    1    2    0    0 -0.25871643706E+03 -0.28236542149E+02 -0.49649638387E+03  0.57435855392E+03  0.12509033598E+03 0.  0.
        -24    2    1    2    0    0  0.29418838409E+03  0.92810274050E+02  0.17556804793E+03  0.36474036411E+03  0.83969288748E+02 0.  0.
        -13    1    3    3    0    0  0.31958428641E+01 -0.50217180880E+02 -0.22873147381E+03  0.23420090901E+03  0.00000000000E+00 0.  1.
         14    1    3    3    0    0 -0.38667789900E+02 -0.14356551021E+02 -0.20898930973E+03  0.21302075043E+03  0.00000000000E+00 0. -1.
         11    1    5    5    0    0  0.18244416805E+03  0.65425053069E+02  0.63057138406E+02  0.20381980946E+03  0.00000000000E+00 0. -1.
        -12    1    5    5    0    0  0.11174421604E+03  0.27385220981E+02  0.11251090952E+03  0.16092055465E+03  0.00000000000E+00 0.  1.
          5    1    4    4  501    0 -0.12682772179E+03  0.45755865772E+02 -0.19606922499E+03  0.23799051169E+03  0.41800000000E+01 0.  1.
         -5    1    4    4    0  501 -0.13188871527E+03 -0.73992407921E+02 -0.30042715887E+03  0.33636804223E+03  0.41800000000E+01 0.  1.
</event>
<event>
11    1  0.9238666E-009  0.1787567E+03  0.7561462E-02  0.1070653E+00
         22   -1    0    0    0    0  0.00000000000E+00  0.00000000000E+00  0.43408272815E+03  0.43408272815E+03  0.00000000000E+00 0. -1.
         22   -1    0    0    0    0 -0.00000000000E+00 -0.00000000000E+00 -0.13085409715E+04  0.13085409715E+04  0.00000000000E+00 0. -1.
         24    2    1    2    0    0  0.70132451549E+02 -0.10946858312E+03 -0.12023184585E+04  0.12120372800E+04  0.81010869443E+02 0.  0.
         25    2    1    2    0    0 -0.83100326413E+02  0.59326655453E+02 -0.26771219249E+02  0.16367453189E+03  0.12508931973E+03 0.  0.
        -24    2    1    2    0    0  0.12967874864E+02  0.50141927665E+02  0.35463143448E+03  0.36691188769E+03  0.78603437072E+02 0.  0.
        -13    1    3    3    0    0 -0.86199617128E+01 -0.51095876218E+02 -0.54370483363E+03  0.54616850735E+03  0.00000000000E+00 0.  1.
         14    1    3    3    0    0  0.78752413262E+02 -0.58372706900E+02 -0.65861362491E+03  0.66586877267E+03  0.00000000000E+00 0. -1.
         11    1    5    5    0    0  0.20014541138E+02  0.21485870767E+02  0.32029005972E+03  0.32163324898E+03  0.00000000000E+00 0. -1.
        -12    1    5    5    0    0 -0.70466662744E+01  0.28656056897E+02  0.34341374766E+02  0.45278638709E+02  0.00000000000E+00 0.  1.
          5    1    4    4  501    0  0.15586628996E+02 -0.11788530024E+02  0.24488593017E+02  0.31608164001E+02  0.41800000000E+01 0. -1.
         -5    1    4    4    0  501 -0.98686955409E+02  0.71115185477E+02 -0.51259812266E+02  0.13206636789E+03  0.41800000000E+01 0. -1.
</event>
<event>
11    1  0.9238666E-009  0.2020400E+03  0.7561462E-02  0.1053090E+00
         22   -1    0    0    0    0  0.00000000000E+00  0.00000000000E+00  0.31875035977E+03  0.31875035977E+03  0.00000000000E+00 0.  1.
         22   -1    0    0    0    0 -0.00000000000E+00 -0.00000000000E+00 -0.57838349760E+03  0.57838349760E+03  0.00000000000E+00 0. -1.
        -24    2    1    2    0    0  0.10804796496E+03 -0.11283274916E+03 -0.47720379598E+03  0.50841786762E+03  0.79747559212E+02 0.  0.
         25    2    1    2    0    0 -0.12032369007E+03  0.14371771109E+03  0.11177175589E+03  0.25153896262E+03  0.12508538454E+03 0.  0.
         24    2    1    2    0    0  0.12275725118E+02 -0.30884961932E+02  0.10579890227E+03  0.13717702713E+03  0.80743759832E+02 0.  0.
        -11    1    5    5    0    0  0.64282117116E+01 -0.26371833503E+02  0.11899640043E+03  0.12205301645E+03  0.00000000000E+00 0.  1.
         12    1    5    5    0    0  0.58475134064E+01 -0.45131284287E+01 -0.13197498169E+02  0.15124010684E+02  0.00000000000E+00 0. -1.
         13    1    3    3    0    0  0.47428812342E+02 -0.63814994421E+02 -0.35246693486E+03  0.36132365813E+03  0.00000000000E+00 0. -1.
        -14    1    3    3    0    0  0.60619152615E+02 -0.49017754740E+02 -0.12473686113E+03  0.14709420950E+03  0.00000000000E+00 0.  1.
          5    1    4    4  501    0 -0.10374809149E+03  0.76912012982E+02  0.11339681861E+02  0.12971193088E+03  0.41800000000E+01 0.  1.
         -5    1    4    4    0  501 -0.16575598587E+02  0.66805698111E+02  0.10043207403E+03  0.12182703174E+03  0.41800000000E+01 0.  1.
</event>
<event>
11    1  0.9238666E-009  0.1584437E+03  0.7561462E-02  0.1088550E+00
         22   -1    0    0    0    0  0.00000000000E+00  0.00000000000E+00  0.72429193472E+03  0.72429193472E+03  0.00000000000E+00 0.  1.
         22   -1    0    0    0    0 -0.00000000000E+00 -0.00000000000E+00 -0.45588039858E+03  0.45588039858E+03  0.00000000000E+00 0.  1.
         24    2    1    2    0    0  0.19066907340E+02 -0.18480438014E+01 -0.25673830419E+03  0.27005085096E+03  0.81522653561E+02 0.  0.
         25    2    1    2    0    0 -0.25469435478E+02  0.98749872442E+02 -0.15022888438E+03  0.22049853772E+03  0.12510258983E+03 0.  0.
        -24    2    1    2    0    0  0.64025281383E+01 -0.96901828641E+02  0.67537872471E+03  0.68962294462E+03  0.10006211666E+03 0.  0.
        -13    1    3    3    0    0  0.38383448107E+02 -0.23276864669E+02 -0.21283070249E+03  0.21751323969E+03  0.00000000000E+00 0.  1.
         14    1    3    3    0    0 -0.19316540767E+02  0.21428820867E+02 -0.43907601703E+02  0.52537611273E+02  0.00000000000E+00 0. -1.
         11    1    5    5    0    0 -0.41130541087E+01 -0.17887528953E+02  0.13064178138E+02  0.22528951520E+02  0.00000000000E+00 0. -1.
        -12    1    5    5    0    0  0.10515582247E+02 -0.79014299687E+02  0.66231454658E+03  0.66709399310E+03  0.00000000000E+00 0.  1.
          5    1    4    4  501    0  0.16252268582E+02  0.23783107258E+02  0.16126270819E+02  0.33276139131E+02  0.41800000000E+01 0. -1.
         -5    1    4    4    0  501 -0.41721704060E+02  0.74966765184E+02 -0.16635515520E+03  0.18722239859E+03  0.41800000000E+01 0. -1.
</event>
<event>
11    1  0.9238666E-009  0.1994443E+03  0.7561462E-02  0.1054917E+00
         22   -1    0    0    0    0  0.00000000000E+00  0.00000000000E+00  0.17679810320E+03  0.17679810320E+03  0.00000000000E+00 0. -1.
         22   -1    0    0    0    0 -0.00000000000E+00 -0.00000000000E+00 -0.13480100925E+04  0.13480100925E+04  0.00000000000E+00 0.  1.
         24    2    1    2    0    0 -0.45310241674E+01 -0.37721644858E+02 -0.79213146853E+03  0.79724970650E+03  0.81800846007E+02 0.  0.
         25    2    1    2    0    0  0.28040056576E+02 -0.11917197832E+03 -0.48814555633E+03  0.51857664548E+03  0.12508975932E+03 0.  0.
        -24    2    1    2    0    0 -0.23509032408E+02  0.15689362318E+03  0.10906503553E+03  0.20898184375E+03  0.81301570980E+02 0.  0.
        -11    1    3    3    0    0 -0.21324767274E+02  0.93828655689E+01 -0.52254659442E+03  0.52306570066E+03  0.00000000000E+00 0.  1.
         12    1    3    3    0    0  0.16793743107E+02 -0.47104510427E+02 -0.26958487411E+03  0.27418400584E+03  0.00000000000E+00 0. -1.
         13    1    5    5    0    0  0.29141974072E+01  0.55843506268E+02  0.85086649427E+02  0.10181712847E+03  0.00000000000E+00 0. -1.
        -14    1    5    5    0    0 -0.26423229816E+02  0.10105011691E+03  0.23978386099E+02  0.10716471528E+03  0.00000000000E+00 0.  1.
          5    1    4    4  501    0  0.41132143969E+02 -0.62010262641E+02 -0.42811115322E+03  0.43455006369E+03  0.41800000000E+01 0.  1.
         -5    1    4    4    0  501 -0.13092087394E+02 -0.57161715676E+02 -0.60034403112E+02  0.84026581797E+02  0.41800000000E+01 0.  1.
</event>
<event>
11    1  0.9238666E-009  0.1363311E+03  0.7561462E-02  0.1111726E+00
         22   -1    0    0    0    0  0.00000000000E+00  0.00000000000E+00  0.15967915534E+04  0.15967915534E+04  0.00000000000E+00 0.  1.
         22   -1    0    0    0    0 -0.00000000000E+00 -0.00000000000E+00 -0.72286858374E+02  0.72286858374E+02  0.00000000000E+00 0.  1.
        -24    2    1    2    0    0  0.24090579544E+02  0.47926201584E+02 -0.23773418294E+02  0.99122116921E+02  0.79892063589E+02 0.  0.
         25    2    1    2    0    0 -0.58875364096E+02 -0.69899078393E+00  0.56377946083E+03  0.58048464939E+03  0.12509336772E+03 0.  0.
         24    2    1    2    0    0  0.34784784552E+02 -0.47227210800E+02  0.98449865248E+03  0.98947164545E+03  0.79850796678E+02 0.  0.
        -13    1    5    5    0    0  0.59614390715E+02 -0.37003068843E+02  0.61266794374E+03  0.61667261328E+03  0.00000000000E+00 0.  1.
         14    1    5    5    0    0 -0.24829606163E+02 -0.10224141957E+02  0.37183070874E+03  0.37279903217E+03  0.00000000000E+00 0. -1.
         13    1    3    3    0    0 -0.16517611478E+02  0.25508858950E+02  0.19153319223E+02  0.35921901552E+02  0.00000000000E+00 0. -1.
        -14    1    3    3    0    0  0.40608191022E+02  0.22417342634E+02 -0.42926737517E+02  0.63200215369E+02  0.00000000000E+00 0.  1.
          5    1    4    4  501    0 -0.92110796321E+02 -0.19491752394E+02  0.31627461584E+03  0.33001732111E+03  0.41800000000E+01 0. -1.
         -5    1    4    4    0  501  0.33235432225E+02  0.18792761610E+02  0.24750484499E+03  0.25046732828E+03  0.41800000000E+01 0. -1.
</event>
<event>
11    1  0.9238666E-009  0.1273196E+03  0.7561462E-02  0.1122607E+00
         22   -1    0    0    0    0  0.00000000000E+00  0.00000000000E+00  0.90151049806E+03  0.90151049806E+03  0.00000000000E+00 0. -1.
         22   -1    0    0    0    0 -0.00000000000E+00 -0.00000000000E+00 -0.95345990701E+03  0.95345990701E+03  0.00000000000E+00 0. -1.
         24    2    1    2    0    0 -0.14003460287E+02 -0.19774967441E+02 -0.89459635573E+03  0.89866962051E+03  0.81959141743E+02 0.  0.
         25    2    1    2    0    0  0.33635138196E+01  0.51087514703E+01  0.16985516595E+02  0.12638453171E+03  0.12508848673E+03 0.  0.
        -24    2    1    2    0    0  0.10639946467E+02  0.14666215971E+02  0.82566143018E+03  0.82991625286E+03  0.81950491925E+02 0.  0.
        -13    1    3    3    0    0 -0.28802518008E+02  0.85022735898E+01 -0.13065762402E+03  0.13406449349E+03  0.00000000000E+00 0.  1.
         14    1    3    3    0    0  0.14799057721E+02 -0.28277241031E+02 -0.76393873170E+03  0.76460512702E+03  0.00000000000E+00 0. -1.
         13    1    5    5    0    0  0.13890041242E+01 -0.18428771781E+02  0.68019624938E+03  0.68044726954E+03  0.00000000000E+00 0. -1.
        -14    1    5    5    0    0  0.92509423428E+01  0.33094987752E+02  0.14546518080E+03  0.14946898332E+03  0.00000000000E+00 0.  1.
          5    1    4    4  501    0 -0.30805847559E+02  0.54680092902E+02 -0.25450504886E+01  0.62951270722E+02  0.41800000000E+01 0. -1.
         -5    1    4    4    0  501  0.34169361378E+02 -0.49571341431E+02  0.19530567084E+02  0.63433260983E+02  0.41800000000E+01 0. -1.
</event>
<event>
11    1  0.9238666E-009  0.1719773E+03  0.7561462E-02  0.1076324E+00
         22   -1    0    0    0    0  0.00000000000E+00  0.00000000000E+00  0.36263371017E+03  0.36263371017E+03  0.00000000000E+00 0.  1.
         22   -1    0    0    0    0 -0.00000000000E+00 -0.00000000000E+00 -0.53396947563E+03  0.53396947563E+03  0.00000000000E+00 0. -1.
        -24    2    1    2    0    0  0.37811590727E+01  0.40036209027E+02 -0.38739519294E+03  0.39742984588E+03  0.79109112514E+02 0.  0.
         25    2    1    2    0    0  0.40249180980E+02 -0.14485542102E+03 -0.47461975424E+02  0.20125354745E+03  0.12508901504E+03 0.  0.
         24    2    1    2    0    0 -0.44030340052E+02  0.10481921199E+03  0.26352140291E+03  0.29791979247E+03  0.79918301445E+02 0.  0.
        -13    1    5    5    0    0 -0.13145086327E+01  0.93527609834E+02  0.19676906249E+03  0.21786969888E+03  0.00000000000E+00 0.  1.
         14    1    5    5    0    0 -0.42715831420E+02  0.11291602158E+02  0.66752340417E+02  0.80050093594E+02  0.00000000000E+00 0. -1.
         11    1    3    3    0    0 -0.13855528928E+02  0.19748940248E+02 -0.35277314331E+03  0.35359706865E+03  0.00000000000E+00 0. -1.
        -12    1    3    3    0    0  0.17636688001E+02  0.20287268779E+02 -0.34622049637E+02  0.43832777225E+02  0.00000000000E+00 0.  1.
          5    1    4    4  501    0 -0.23922102855E+02 -0.11623022599E+03 -0.45772499365E+01  0.11882826286E+03  0.41800000000E+01 0. -1.
         -5    1    4    4    0  501  0.64171283835E+02 -0.28625195032E+02 -0.42884725487E+02  0.82425284590E+02  0.41800000000E+01 0. -1.
</event>
<event>
11    1  0.9238666E-009  0.2090745E+03  0.7561462E-02  0.1048286E+00
         22   -1    0    0    0    0  0.00000000000E+00  0.00000000000E+00  0.16203123775E+04  0.16203123775E+04  0.00000000000E+00 0. -1.
         22   -1    0    0    0    0 -0.00000000000E+00 -0.00000000000E+00 -0.12958425162E+04  0.12958425162E+04  0.00000000000E+00 0. -1.
         24    2    1    2    0    0 -0.16649417275E+03  0.91583635944E+01 -0.10275559264E+04  0.10441166871E+04  0.80649173127E+02 0.  0.
         25    2    1    2    0    0  0.15655275705E+03 -0.16779462686E+03 -0.18795594708E+03  0.32192846404E+03  0.12508675140E+03 0.  0.
        -24    2    1    2    0    0  0.99414156983E+01  0.15863626327E+03  0.15399817348E+04  0.15501097427E+04  0.77667078821E+02 0.  0.
        -13    1    3    3    0    0 -0.37247879635E+02  0.30724621248E+02 -0.40858982582E+03  0.41143292606E+03  0.00000000000E+00 0.  1.
         14    1    3    3    0    0 -0.12924629311E+03 -0.21566257654E+02 -0.61896610059E+03  0.63268376100E+03  0.00000000000E+00 0. -1.
         13    1    5    5    0    0  0.34030602382E+02  0.14050899862E+03  0.13545569925E+04  0.13622501629E+04  0.00000000000E+00 0. -1.
        -14    1    5    5    0    0 -0.24089186683E+02  0.18127264647E+02  0.18542474231E+03  0.18785957974E+03  0.00000000000E+00 0.  1.
          5    1    4    4  501    0  0.54693032955E+02 -0.60970779812E+02  0.11239829152E+01  0.82021336141E+02  0.41800000000E+01 0. -1.
         -5    1    4    4    0  501  0.10185972409E+03 -0.10682384705E+03 -0.18907992999E+03  0.23990712790E+03  0.41800000000E+01 0. -1.
</event>
<event>
11    1  0.9238666E-009  0.1449505E+03  0.7561462E-02  0.1102153E+00
         22   -1    0    0    0    0  0.00000000000E+00  0.00000000000E+00  0.51142962700E+03  0.51142962700E+03  0.00000000000E+00 0.  1.
         22   -1    0    0    0    0 -0.00000000000E+00 -0.00000000000E+00 -0.44566213783E+03  0.44566213783E+03  0.00000000000E+00 0. -1.
         24    2    1    2    0    0  0.73588102761E+02 -0.29182554878E+01 -0.39637805426E+03  0.41071020896E+03  0.78381048473E+02 0.  0.
         25    2    1    2    0    0 -0.64242916826E+02  0.22347226163E+02  0.99244139646E+02  0.17356473378E+03  0.12509503059E+03 0.  0.
        -24    2    1    2    0    0 -0.93451859356E+01 -0.19428970675E+02  0.36290140379E+03  0.37281682209E+03  0.82644640250E+02 0.  0.
        -13    1    3    3    0    0  0.72960191030E+01  0.31842693443E+02 -0.11596648590E+03  0.12047993556E+03  0.00000000000E+00 0.  1.
         14    1    3    3    0    0  0.66292083658E+02 -0.34760948931E+02 -0.28041156836E+03  0.29023027339E+03  0.00000000000E+00 0. -1.
         13    1    5    5    0    0  0.21880698023E+02 -0.20690250976E+02  0.50069282643E+02  0.58427600462E+02  0.00000000000E+00 0. -1.
        -14    1    5    5    0    0 -0.31225883959E+02  0.12612803000E+01  0.31283212115E+03  0.31438922163E+03  0.00000000000E+00 0.  1.
          5    1    4    4  501    0 -0.91514760168E+02  0.58624775108E+01  0.28921734530E+02  0.96245826400E+02  0.41800000000E+01 0.  1.
         -5    1    4    4    0  501  0.27271843343E+02  0.16484748653E+02  0.70322405116E+02  0.77318907382E+02  0.41800000000E+01 0.  1.
</event>
<event>
11    1  0.9238666E-009  0.1448318E+03  0.7561462E-02  0.1102280E+00
         22   -1    0    0    0    0  0.00000000000E+00  0.00000000000E+00  0.19198151115E+04  0.19198151115E+04  0.00000000000E+00 0. -1.
         22   -1    0    0    0    0 -0.00000000000E+00 -0.00000000000E+00 -0.16666335853E+04  0.16666335853E+04  0.00000000000E+00 0.  1.
        -24    2    1    2    0    0 -0.60943785381E+01 -0.49719034139E+02 -0.13277310526E+04  0.13304798368E+04  0.69265607575E+02 0.  0.
         25    2    1    2    0    0  0.67882044216E+02  0.10651239362E+02 -0.32081638904E+03  0.35112846540E+03  0.12508646174E+03 0.  0.
         24    2    1    2    0    0 -0.61787665678E+02  0.39067794777E+02  0.19017289678E+04  0.19048403947E+04  0.80621672499E+02 0.  0.
        -11    1    5    5    0    0 -0.29480616264E+01  0.31241172727E+02  0.23887164365E+03  0.24092397988E+03  0.00000000000E+00 0.  1.
         12    1    5    5    0    0 -0.58839604052E+02  0.78266220504E+01  0.16628573241E+04  0.16639164148E+04  0.00000000000E+00 0. -1.
         11    1    3    3    0    0  0.16474399860E+02 -0.40234358461E+02 -0.38770650139E+03  0.39013656669E+03  0.00000000000E+00 0. -1.
        -12    1    3    3    0    0 -0.22568778398E+02 -0.94846756786E+01 -0.94002455117E+03  0.94034327010E+03  0.00000000000E+00 0.  1.
          5    1    4    4  501    0 -0.16476185977E+02 -0.30238591859E+02 -0.31082426949E+02  0.46577106040E+02  0.41800000000E+01 0.  1.
         -5    1    4    4    0  501  0.84358230194E+02  0.40889831221E+02 -0.28973396209E+03  0.30455135936E+03  0.41800000000E+01 0.  1.
</event>
<event>
11    1  0.9238666E-009  0.2009990E+03  0.7561462E-02  0.1053819E+00
         22   -1    0    0    0    0  0.00000000000E+00  0.00000000000E+00  0.39766228778E+03  0.39766228778E+03  0.00000000000E+00 0.  1.
         22   -1    0    0    0    0 -0.00000000000E+00 -0.00000000000E+00 -0.53402260836E+03  0.53402260836E+03  0.00000000000E+00 0.  1.
         24    2    1    2    0    0 -0.47623663536E+01 -0.21376951871E+02 -0.41827711538E+03  0.42693824069E+03  0.82709503125E+02 0.  0.
         25    2    1    2    0    0 -0.14739796838E+03  0.60260967774E+02  0.41993540599E+02  0.20680629483E+03  0.12509132988E+03 0.  0.
        -24    2    1    2    0    0  0.15216033473E+03 -0.38884015902E+02  0.23992325421E+03  0.29794036062E+03  0.80873706592E+02 0.  0.
        -13    1    3    3    0    0 -0.77047579906E+01 -0.25187519415E+02 -0.42071714236E+03  0.42154085010E+03  0.00000000000E+00 0.  1.
         14    1    3    3    0    0  0.29423916370E+01  0.38105675437E+01  0.24400269749E+01  0.53973905907E+01  0.00000000000E+00 0. -1.
         11    1    5    5    0    0  0.54690095874E+02  0.74987426070E+01  0.32362226898E+02  0.63988682259E+02  0.00000000000E+00 0. -1.
        -12    1    5    5    0    0  0.97470238857E+02 -0.46382758509E+02  0.20756102731E+03  0.23395167836E+03  0.00000000000E+00 0.  1.
          5    1    4    4  501    0 -0.84789545174E+02  0.61760464686E+02  0.81271733505E+02  0.13276365857E+03  0.41800000000E+01 0. -1.
         -5    1    4    4    0  501 -0.62608423204E+02 -0.14994969122E+01 -0.39278192906E+02  0.74042636265E+02  0.41800000000E+01 0. -1.
</event>
<event>
11    1  0.9238666E-009  0.1377221E+03  0.7561462E-02  0.1110129E+00
         22   -1    0    0    0    0  0.00000000000E+00  0.00000000000E+00  0.11902482233E+04  0.11902482233E+04  0.00000000000E+00 0. -1.
         22   -1    0    0    0    0 -0.00000000000E+00 -0.00000000000E+00 -0.14863876872E+04  0.14863876872E+04  0.00000000000E+00 0. -1.
        -24    2    1    2    0    0  0.13019948672E+02 -0.38064787323E+02 -0.14644842713E+04  0.14674874258E+04  0.84774507554E+02 0.  0.
         25    2    1    2    0    0 -0.18518938461E+01  0.90088473788E+02  0.31548740149E+03  0.35113917106E+03  0.12508818622E+03 0.  0.
         24    2    1    2    0    0 -0.11168054826E+02 -0.52023686465E+02  0.85285740590E+03  0.85800931360E+03  0.77350100328E+02 0.  0.
        -11    1    5    5    0    0 -0.41802220220E+02 -0.12124368343E+02  0.38088936229E+03  0.38336814191E+03  0.00000000000E+00 0.  1.
         12    1    5    5    0    0  0.30634165394E+02 -0.39899318122E+02  0.47196804360E+03  0.47464117169E+03  0.00000000000E+00 0. -1.
         11    1    3    3    0    0  0.37611463844E+02 -0.32629299331E+01 -0.10780209061E+04  0.10786817616E+04  0.00000000000E+00 0. -1.
        -12    1    3    3    0    0 -0.24591515172E+02 -0.34801857390E+02 -0.38646336519E+03  0.38880566422E+03  0.00000000000E+00 0.  1.
          5    1    4    4  501    0  0.92624503827E+01  0.10113348169E+03  0.13035930943E+03  0.16530213569E+03  0.41800000000E+01 0.  1.
         -5    1    4    4    0  501 -0.11114344229E+02 -0.11045007903E+02  0.18512809206E+03  0.18583703537E+03  0.41800000000E+01 0.  1.
</event>
<event>
11    1  0.9238666E-009  0.1370107E+03  0.7561462E-02  0.1110943E+00
         22   -1    0    0    0    0  0.00000000000E+00  0.00000000000E+00  0.37866796546E+03  0.37866796546E+03  0.00000000000E+00 0.  1.
         22   -1    0    0    0    0 -0.00000000000E+00 -0.00000000000E+00 -0.59578415275E+03  0.59578415275E+03  0.00000000000E+00 0. -1.
         24    2    1    2    0    0 -0.45887670373E+02  0.29122364197E+02 -0.48382409073E+03  0.49334810858E+03  0.79704548651E+02 0.  0.
         25    2    1    2    0    0  0.54995030951E+02 -0.48663573212E+02 -0.50522392570E+02  0.15359998114E+03  0.12509134770E+03 0.  0.
        -24    2    1    2    0    0 -0.91073605778E+01  0.19541209014E+02  0.31723029601E+03  0.32750402848E+03  0.78479456518E+02 0.  0.
        -13    1    3    3    0    0  0.22149601391E+02 -0.40980055729E+00 -0.12314262069E+03  0.12511945416E+03  0.00000000000E+00 0.  1.
         14    1    3    3    0    0 -0.68037271764E+02  0.29532164755E+02 -0.36068147004E+03  0.36822865442E+03  0.00000000000E+00 0. -1.
         13    1    5    5    0    0 -0.13908642079E+02  0.44298914508E+02  0.12002639408E+03  0.12869413129E+03  0.00000000000E+00 0. -1.
        -14    1    5    5    0    0  0.48012815010E+01 -0.24757705494E+02  0.19720390193E+03  0.19880989719E+03  0.00000000000E+00 0.  1.
          5    1    4    4  501    0  0.94254940660E+02 -0.28658215490E+02 -0.22260405926E+02  0.10108553421E+03  0.41800000000E+01 0.  1.
         -5    1    4    4    0  501 -0.39259909709E+02 -0.20005357722E+02 -0.28261986645E+02  0.52514446936E+02  0.41800000000E+01 0.  1.
</event>
<event>
11    1  0.9238666E-009  0.1323549E+03  0.7561462E-02  0.1116409E+00
         22   -1    0    0    0    0  0.00000000000E+00  0.00000000000E+00  0.10829120095E+03  0.10829120095E+03  0.00000000000E+00 0.  1.
         22   -1    0    0    0    0 -0.00000000000E+00 -0.00000000000E+00 -0.22083632206E+04  0.22083632206E+04  0.00000000000E+00 0.  1.
         24    2    1    2    0    0  0.28256053352E+02 -0.23753001437E+02 -0.20040120148E+04  0.20056891755E+04  0.73227752985E+02 0.  0.
         25    2    1    2    0    0 -0.66996320036E+02  0.12015593076E+02 -0.14872684214E+03  0.20591071999E+03  0.12508664860E+03 0.  0.
        -24    2    1    2    0    0  0.38740266684E+02  0.11737408362E+02  0.52666837267E+02  0.10505452604E+03  0.81388467705E+02 0.  0.
        -11    1    3    3    0    0 -0.13191014987E+02 -0.20555947411E+02 -0.14155448558E+04  0.14157555540E+04  0.00000000000E+00 0.  1.
         12    1    3    3    0    0  0.41447068339E+02 -0.31970540268E+01 -0.58846715900E+03  0.58993362156E+03  0.00000000000E+00 0. -1.
         13    1    5    5    0    0  0.11268030301E+02  0.62489515611E+01 -0.21894121805E+02  0.25404142814E+02  0.00000000000E+00 0. -1.
        -14    1    5    5    0    0  0.27472236383E+02  0.54884568006E+01  0.74560959072E+02  0.79650383224E+02  0.00000000000E+00 0.  1.
          5    1    4    4  501    0 -0.12759430505E+02 -0.44699599536E+02 -0.11970797312E+02  0.48183292268E+02  0.41800000000E+01 0. -1.
         -5    1    4    4    0  501 -0.54236889531E+02  0.56715192612E+02 -0.13675604483E+03  0.15772742772E+03  0.41800000000E+01 0. -1.
</event>
<event>
11    1  0.9238666E-009  0.1431704E+03  0.7561462E-02  0.1104069E+00
         22   -1    0    0    0    0  0.00000000000E+00  0.00000000000E+00  0.13152409100E+04  0.13152409100E+04  0.00000000000E+00 0.  1.
         22   -1    0    0    0    0 -0.00000000000E+00 -0.00000000000E+00 -0.30814279646E+03  0.30814279646E+03  0.00000000000E+00 0. -1.
        -24    2    1    2    0    0  0.34349014700E+02 -0.63175690177E+02 -0.26592004084E+03  0.28687017894E+03  0.80062530599E+02 0.  0.
         25    2    1    2    0    0 -0.58762825787E+01  0.40429177713E+02  0.11402494819E+03  0.17412278413E+03  0.12509199030E+03 0.  0.
         24    2    1    2    0    0 -0.28472732121E+02  0.22746512464E+02  0.11589932062E+04  0.11623907434E+04  0.80986962062E+02 0.  0.
        -11    1    5    5    0    0 -0.37892572981E+02  0.43531982402E+02  0.10112439182E+04  0.10128895018E+04  0.00000000000E+00 0.  1.
         12    1    5    5    0    0  0.94198408598E+01 -0.20785469938E+02  0.14774928792E+03  0.14950124161E+03  0.00000000000E+00 0. -1.
         11    1    3    3    0    0  0.40955568186E+02 -0.75452557722E+02 -0.25528839005E+03  0.26933735190E+03  0.00000000000E+00 0. -1.
        -12    1    3    3    0    0 -0.66065534866E+01  0.12276867544E+02 -0.10631650787E+02  0.17532827043E+02  0.00000000000E+00 0.  1.
          5    1    4    4  501    0  0.54553704643E+02  0.71004570498E+01  0.79698942166E+02  0.96932538205E+02  0.41800000000E+01 0. -1.
         -5    1    4    4    0  501 -0.60429987221E+02  0.33328720664E+02  0.34326006028E+02  0.77190245928E+02  0.41800000000E+01 0. -1.
</event>
<event>
11    1  0.9238666E-009  0.1518946E+03  0.7561462E-02  0.1094959E+00
         22   -1    0    0    0    0  0.00000000000E+00  0.00000000000E+00  0.66960070223E+03  0.66960070223E+03  0.00000000000E+00 0.  1.
         22   -1    0    0    0    0 -0.00000000000E+00 -0.00000000000E+00 -0.36849264238E+03  0.36849264238E+03  0.00000000000E+00 0. -1.
         24    2    1    2    0    0 -0.79039707640E+02 -0.23697978502E+02 -0.19198871297E+03  0.22266993242E+03  0.76898396152E+02 0.  0.
         25    2    1    2    0    0  0.15540961773E+03  0.56728352711E+02 -0.86124403256E+02  0.22457871257E+03  0.12509168645E+03 0.  0.
        -24    2    1    2    0    0 -0.76369910086E+02 -0.33030374209E+02  0.57922117608E+03  0.59084469962E+03  0.81712419327E+02 0.  0.
        -13    1    3    3    0    0 -0.94259345722E+02 -0.23722721184E+02 -0.17175861546E+03  0.19735403148E+03  0.00000000000E+00 0.  1.
         14    1    3    3    0    0  0.15219638083E+02  0.24742681439E-01 -0.20230097508E+02  0.25315900947E+02  0.00000000000E+00 0. -1.
         13    1    5    5    0    0  0.44450379769E+01 -0.28086813318E+02  0.75884038135E+02  0.81037119203E+02  0.00000000000E+00 0. -1.
        -14    1    5    5    0    0 -0.80814948062E+02 -0.49435608904E+01  0.50333713794E+03  0.50980758042E+03  0.00000000000E+00 0.  1.
          5    1    4    4  501    0  0.63591327116E+02  0.18808247462E+01  0.26645986291E+02  0.69100473020E+02  0.41800000000E+01 0.  1.
         -5    1    4    4    0  501  0.91818290609E+02  0.54847527965E+02 -0.11277038955E+03  0.15547823955E+03  0.41800000000E+01 0.  1.
</event>
<event>
11    1  0.9238666E-009  0.1484334E+03  0.7561462E-02  0.1098490E+00
         22   -1    0    0    0    0  0.00000000000E+00  0.00000000000E+00  0.23107704046E+04  0.23107704046E+04  0.00000000000E+00 0. -1.
         22   -1    0    0    0    0 -0.00000000000E+00 -0.00000000000E+00 -0.67177554422E+02  0.67177554422E+02  0.00000000000E+00 0.  1.
        -24    2    1    2    0    0  0.43957316031E+02 -0.77379805219E+02  0.14430999745E+02  0.12133423114E+03  0.81202598509E+02 0.  0.
         25    2    1    2    0    0 -0.64387378074E+02 -0.13908048983E+02  0.41222650137E+03  0.43579535137E+03  0.12509089319E+03 0.  0.
         24    2    1    2    0    0  0.20430062043E+02  0.91287854202E+02  0.18169353491E+04  0.18208183765E+04  0.73311921429E+02 0.  0.
        -11    1    5    5    0    0 -0.11854276647E+02 -0.36139506628E+01  0.46776890365E+03  0.46793304194E+03  0.00000000000E+00 0.  1.
         12    1    5    5    0    0  0.32284338690E+02  0.94901804865E+02  0.13491664454E+04  0.13528853346E+04  0.00000000000E+00 0. -1.
         13    1    3    3    0    0  0.44375859989E+01 -0.39726057499E+02  0.43841890458E+02  0.59329277535E+02  0.00000000000E+00 0. -1.
        -14    1    3    3    0    0  0.39519730032E+02 -0.37653747720E+02 -0.29410890713E+02  0.62004953606E+02  0.00000000000E+00 0.  1.
          5    1    4    4  501    0 -0.65342032235E+02  0.14501765992E+02  0.39822770956E+03  0.40383494580E+03  0.41800000000E+01 0. -1.
         -5    1    4    4    0  501  0.95465416129E+00 -0.28409814975E+02  0.13998791814E+02  0.31960405563E+02  0.41800000000E+01 0. -1.
</event>
<event>
11    1  0.9238666E-009  0.1318616E+03  0.7561462E-02  0.1117003E+00
         22   -1    0    0    0    0  0.00000000000E+00  0.00000000000E+00  0.73358999283E+03  0.73358999283E+03  0.00000000000E+00 0. -1.
         22   -1    0    0    0    0 -0.00000000000E+00 -0.00000000000E+00 -0.32097145101E+03  0.32097145101E+03  0.00000000000E+00 0.  1.
        -24    2    1    2    0    0 -0.41358368329E+02 -0.16142220971E+02 -0.27359389416E+03  0.29005546304E+03  0.85483722361E+02 0.  0.
         25    2    1    2    0    0  0.92514161250E+01 -0.30614738162E+01  0.73727252416E+02  0.14549584304E+03  0.12505347365E+03 0.  0.
         24    2    1    2    0    0  0.32106952204E+02  0.19203694787E+02  0.61248518356E+03  0.61901013776E+03  0.81460495293E+02 0.  0.
        -11    1    5    5    0    0 -0.63802360414E+01  0.42752930817E+02  0.35225592327E+03  0.35489823328E+03  0.00000000000E+00 0.  1.
         12    1    5    5    0    0  0.38487188246E+02 -0.23549236031E+02  0.26022926029E+03  0.26411190448E+03  0.00000000000E+00 0. -1.
         13    1    3    3    0    0  0.25276737560E+02 -0.11821995997E+02 -0.58115556325E+02  0.64467751147E+02  0.00000000000E+00 0. -1.
        -14    1    3    3    0    0 -0.66635105889E+02 -0.43202249735E+01 -0.21547833783E+03  0.22558771189E+03  0.00000000000E+00 0.  1.
          5    1    4    4  501    0  0.43302150352E+02 -0.49874386308E+02  0.29161241137E+02  0.72321373185E+02  0.41800000000E+01 0.  1.
         -5    1    4    4    0  501 -0.34050734227E+02  0.46812912492E+02  0.44566011279E+02  0.73174469856E+02  0.41800000000E+01 0.  1.
</event>
<event>
11    1  0.9238666E-009  0.1559324E+03  0.7561462E-02  0.1090967E+00
         22   -1    0    0    0    0  0.00000000000E+00  0.00000000000E+00  0.10609337373E+04  0.10609337373E+04  0.00000000000E+00 0. -1.
         22   -1    0    0    0    0 -0.00000000000E+00 -0.00000000000E+00 -0.79217069001E+03  0.79217069001E+03  0.00000000000E+00 0.  1.
        -24    2    1    2    0    0  0.63926913538E+01  0.48527310113E+02 -0.74050195975E+03  0.74647186285E+03  0.80506666192E+02 0.  0.
         25    2    1    2    0    0 -0.34740490568E+02  0.44149612736E+02  0.61163041254E+02  0.15014882662E+03  0.12509061728E+03 0.  0.
         24    2    1    2    0    0  0.28347799215E+02 -0.92676922849E+02  0.94810196580E+03  0.95648373785E+03  0.81062898157E+02 0.  0.
        -11    1    5    5    0    0 -0.27551356442E+02 -0.31495414888E+02  0.24968669720E+03  0.25316888663E+03  0.00000000000E+00 0.  1.
         12    1    5    5    0    0  0.55899155657E+02 -0.61181507961E+02  0.69841526860E+03  0.70331485121E+03  0.00000000000E+00 0. -1.
         13    1    3    3    0    0  0.20609614123E+02 -0.15144407477E+02 -0.31018056120E+03  0.31123317596E+03  0.00000000000E+00 0. -1.
        -14    1    3    3    0    0 -0.14216922769E+02  0.63671717590E+02 -0.43032139855E+03  0.43523868689E+03  0.00000000000E+00 0.  1.
          5    1    4    4  501    0  0.56469017449E+00  0.53572757250E+02 -0.22882863963E+02  0.58407679782E+02  0.41800000000E+01 0.  1.
         -5    1    4    4    0  501 -0.35305180743E+02 -0.94231445137E+01  0.84045905218E+02  0.91741146841E+02  0.41800000000E+01 0.  1.
</event>
<event>
11    1  0.9238666E-009  0.1777529E+03  0.7561462E-02  0.1071475E+00
         22   -1    0    0    0    0  0.00000000000E+00  0.00000000000E+00  0.72671635788E+03  0.72671635788E+03  0.00000000000E+00 0.  1.
         22   -1    0    0    0    0 -0.00000000000E+00 -0.00000000000E+00 -0.94757543567E+03  0.94757543567E+03  0.00000000000E+00 0.  1.
         24    2    1    2    0    0 -0.24603121342E+02 -0.21458570221E+02 -0.88466045743E+03  0.88910442138E+03  0.82563692816E+02 0.  0.
         25    2    1    2    0    0 -0.70613314247E+02 -0.69426743639E+02  0.74634970789E+02  0.17613711393E+03  0.12509033200E+03 0.  0.
        -24    2    1    2    0    0  0.95216435590E+02  0.90885313861E+02  0.58916640884E+03  0.60905025823E+03  0.80615444322E+02 0.  0.
        -13    1    3    3    0    0 -0.30271335632E+02  0.21494867622E+02 -0.22678698876E+03  0.22980583405E+03  0.00000000000E+00 0.  1.
         14    1    3    3    0    0  0.56682142894E+01 -0.42953437843E+02 -0.65787346867E+03  0.65929858733E+03  0.00000000000E+00 0. -1.
         11    1    5    5    0    0  0.10253778936E+02  0.40931324186E+02  0.80142054872E+02  0.90571862304E+02  0.00000000000E+00 0. -1.
        -12    1    5    5    0    0  0.84962656653E+02  0.49953989675E+02  0.50902435397E+03  0.51847839593E+03  0.00000000000E+00 0.  1.
          5    1    4    4  501    0 -0.38000675808E+02 -0.37708775508E+02  0.10729275274E+03  0.11998004127E+03  0.41800000000E+01 0. -1.
         -5    1    4    4    0  501 -0.32612638439E+02 -0.31717968131E+02 -0.32657781952E+02  0.56157072665E+02  0.41800000000E+01 0. -1.
</event>
<event>
11    1  0.9238666E-009  0.1575931E+03  0.7561462E-02  0.1089363E+00
         22   -1    0    0    0    0  0.00000000000E+00  0.00000000000E+00  0.24293836916E+04  0.24293836916E+04  0.00000000000E+00 0.  1.
         22   -1    0    0    0    0 -0.00000000000E+00 -0.00000000000E+00 -0.31634961535E+03  0.31634961535E+03  0.00000000000E+00 0.  1.
        -24    2    1    2    0    0  0.68068407563E+01  0.68936625873E+01 -0.29687625070E+03  0.30768094063E+03  0.80238378173E+02 0.  0.
         25    2    1    2    0    0 -0.50725565528E+02  0.78798251028E+02  0.49589636208E+03  0.51994422482E+03  0.12508616088E+03 0.  0.
         24    2    1    2    0    0  0.43918724772E+02 -0.85691913615E+02  0.19140139649E+04  0.19181081415E+04  0.80108840386E+02 0.  0.
        -11    1    5    5    0    0  0.48049563245E+02 -0.83490138724E+02  0.19082635442E+04  0.19106933605E+04  0.00000000000E+00 0.  1.
         12    1    5    5    0    0 -0.41308384734E+01 -0.22017748914E+01  0.57504206881E+01  0.74147809985E+01  0.00000000000E+00 0. -1.
         11    1    3    3    0    0  0.38307300396E+02  0.13128649741E+02 -0.95056974524E+02  0.10332298444E+03  0.00000000000E+00 0. -1.
        -12    1    3    3    0    0 -0.31500459639E+02 -0.62349871536E+01 -0.20181927618E+03  0.20435795619E+03  0.00000000000E+00 0.  1.
          5    1    4    4  501    0 -0.36707183406E+02 -0.31866229021E+01  0.33072242603E+02  0.49687196640E+02  0.41800000000E+01 0. -1.
         -5    1    4    4    0  501 -0.14018382122E+02  0.81984873930E+02  0.46282411947E+03  0.47025702818E+03  0.41800000000E+01 0. -1.
</event>
<event>
11    1  0.9238666E-009  0.7237022E+03  0.7561462E-02  0.8998087E-01
         22   -1    0    0    0    0  0.00000000000E+00  0.00000000000E+00  0.28880911596E+04  0.28880911596E+04  0.00000000000E+00 0.  1.
         22   -1    0    0    0    0 -0.00000000000E+00 -0.00000000000E+00 -0.48624544675E+03  0.48624544675E+03  0.00000000000E+00 0.  1.
        -24    2    1    2    0    0 -0.10231329668E+03 -0.17579859230E+03 -0.26054946634E+03  0.33967130345E+03  0.78213900580E+02 0.  0.
         25    2    1    2    0    0  0.73047009869E+03  0.31346666202E+03  0.15771848105E+04  0.17705954232E+04  0.12509321680E+03 0.  0.
         24    2    1    2    0    0 -0.62815680201E+03 -0.13766806972E+03  0.10852103687E+04  0.12640698797E+04  0.81594430771E+02 0.  0.
        -11    1    5    5    0    0 -0.58457930479E+03 -0.14394660370E+03  0.98195790881E+03  0.11518224355E+04  0.00000000000E+00 0.  1.
         12    1    5    5    0    0 -0.43577497214E+02  0.62785339793E+01  0.10325245992E+03  0.11224744421E+03  0.00000000000E+00 0. -1.
         13    1    3    3    0    0 -0.49838411487E+02 -0.13952484739E+03 -0.14291734418E+03  0.20585533164E+03  0.00000000000E+00 0. -1.
        -14    1    3    3    0    0 -0.52474885197E+02 -0.36273744909E+02 -0.11763212216E+03  0.13381597181E+03  0.00000000000E+00 0.  1.
          5    1    4    4  501    0  0.58362258603E+03  0.21214364255E+03  0.13035119375E+04  0.14438771040E+04  0.41800000000E+01 0. -1.
         -5    1    4    4    0  501  0.14684751266E+03  0.10132301947E+03  0.27367287300E+03  0.32671831915E+03  0.41800000000E+01 0. -1.
</event>
<event>
11    1  0.9238666E-009  0.1749994E+03  0.7561462E-02  0.1073761E+00
         22   -1    0    0    0    0  0.00000000000E+00  0.00000000000E+00  0.19677733376E+04  0.19677733376E+04  0.00000000000E+00 0. -1.
         22   -1    0    0    0    0 -0.00000000000E+00 -0.00000000000E+00 -0.17662716861E+04  0.17662716861E+04  0.00000000000E+00 0. -1.
         24    2    1    2    0    0  0.24715467091E+02 -0.27103342551E+01 -0.16760551788E+04  0.16781236999E+04  0.79498363459E+02 0.  0.
         25    2    1    2    0    0 -0.66249867389E+02 -0.11221362754E+03  0.81657735696E+01  0.18081290391E+03  0.12508270556E+03 0.  0.
        -24    2    1    2    0    0  0.41534400299E+02  0.11492396179E+03  0.18693910567E+04  0.18751084198E+04  0.80473845931E+02 0.  0.
        -11    1    3    3    0    0  0.30956209734E+02  0.21503863097E+02 -0.38815127745E+03  0.38997707270E+03  0.00000000000E+00 0.  1.
         12    1    3    3    0    0 -0.62407426434E+01 -0.24214197352E+02 -0.12879039013E+04  0.12881466272E+04  0.00000000000E+00 0. -1.
         13    1    5    5    0    0  0.47995450630E+02  0.52158752115E+02  0.13565305199E+04  0.13583810769E+04  0.00000000000E+00 0. -1.
        -14    1    5    5    0    0 -0.64610503318E+01  0.62765209676E+02  0.51286053674E+03  0.51672734287E+03  0.00000000000E+00 0.  1.
          5    1    4    4  501    0 -0.32555826848E+02 -0.81786828539E+02  0.63863898322E+02  0.10883490751E+03  0.41800000000E+01 0.  1.
         -5    1    4    4    0  501 -0.33694040541E+02 -0.30426798997E+02 -0.55698124752E+02  0.71977996403E+02  0.41800000000E+01 0.  1.
</event>
<event>
11    1  0.9238666E-009  0.1419521E+03  0.7561462E-02  0.1105398E+00
         22   -1    0    0    0    0  0.00000000000E+00  0.00000000000E+00  0.10200835986E+04  0.10200835986E+04  0.00000000000E+00 0.  1.
         22   -1    0    0    0    0 -0.00000000000E+00 -0.00000000000E+00 -0.88422530635E+03  0.88422530635E+03  0.00000000000E+00 0.  1.
        -24    2    1    2    0    0  0.14216772420E+01 -0.38765883649E+02 -0.84980425732E+03  0.85442495650E+03  0.79811751193E+02 0.  0.
         25    2    1    2    0    0  0.62779051210E+02  0.54757685357E+02  0.16741532841E+03  0.22497687361E+03  0.12508832118E+03 0.  0.
         24    2    1    2    0    0 -0.64200728452E+02 -0.15991801709E+02  0.81824722112E+03  0.82490707479E+03  0.81028981889E+02 0.  0.
        -13    1    5    5    0    0 -0.28296618995E+02 -0.42837705268E+02  0.59450792652E+03  0.59672057308E+03  0.00000000000E+00 0.  1.
         14    1    5    5    0    0 -0.35904109457E+02  0.26845903559E+02  0.22373929460E+03  0.22818650171E+03  0.00000000000E+00 0. -1.
         11    1    3    3    0    0  0.15390078472E+02  0.21459423636E+02 -0.29815084244E+03  0.29931803525E+03  0.00000000000E+00 0. -1.
        -12    1    3    3    0    0 -0.13968401230E+02 -0.60225307284E+02 -0.55165341488E+03  0.55510692125E+03  0.00000000000E+00 0.  1.
          5    1    4    4  501    0  0.53482450917E+01 -0.11950893977E+02 -0.16238901097E+02  0.21274442443E+02  0.41800000000E+01 0. -1.
         -5    1    4    4    0  501  0.57430806119E+02  0.66708579335E+02  0.18365422950E+03  0.20370243117E+03  0.41800000000E+01 0. -1.
</event>
<event>
11    1  0.9238666E-009  0.1345148E+03  0.7561462E-02  0.1113843E+00
         22   -1    0    0    0    0  0.00000000000E+00  0.00000000000E+00  0.73610430568E+03  0.73610430568E+03  0.00000000000E+00 0. -1.
         22   -1    0    0    0    0 -0.00000000000E+00 -0.00000000000E+00 -0.73945762356E+03  0.73945762356E+03  0.00000000000E+00 0.  1.
         24    2    1    2    0    0  0.24325786887E+02  0.10991066059E+02 -0.62186022717E+03  0.62815557414E+03  0.84597492534E+02 0.  0.
         25    2    1    2    0    0 -0.73161378310E+02 -0.11593650511E+02 -0.63942117789E+02  0.15880757594E+03  0.12507698326E+03 0.  0.
        -24    2    1    2    0    0  0.48835591424E+02  0.60258445204E+00  0.68244902708E+03  0.68859877916E+03  0.77758125000E+02 0.  0.
        -11    1    3    3    0    0  0.50399588491E+02  0.26636273642E+02 -0.35176248314E+03  0.35635158781E+03  0.00000000000E+00 0.  1.
         12    1    3    3    0    0 -0.26073801605E+02 -0.15645207583E+02 -0.27009774403E+03  0.27180398633E+03  0.00000000000E+00 0. -1.
         13    1    5    5    0    0  0.15541582895E+02  0.95978787042E+01  0.58396753055E+03  0.58425314446E+03  0.00000000000E+00 0. -1.
        -14    1    5    5    0    0  0.33294008529E+02 -0.89952942522E+01  0.98481496524E+02  0.10434563470E+03  0.00000000000E+00 0.  1.
          5    1    4    4  501    0 -0.55140231133E+02  0.89904286752E+01 -0.99234972763E+02  0.11395755840E+03  0.41800000000E+01 0. -1.
         -5    1    4    4    0  501 -0.18021147177E+02 -0.20584079186E+02  0.35292854974E+02  0.44850017544E+02  0.41800000000E+01 0. -1.
</event>
<event>
11    1  0.9238666E-009  0.1279321E+03  0.7561462E-02  0.1121836E+00
         22   -1    0    0    0    0  0.00000000000E+00  0.00000000000E+00  0.79107285031E+02  0.79107285031E+02  0.00000000000E+00 0. -1.
         22   -1    0    0    0    0 -0.00000000000E+00 -0.00000000000E+00 -0.11607252066E+04  0.11607252066E+04  0.00000000000E+00 0. -1.
        -24    2    1    2    0    0 -0.88221641063E+01 -0.19698583924E+02 -0.60550661390E+03  0.61121884217E+03  0.80525454116E+02 0.  0.
         25    2    1    2    0    0 -0.16848392357E+02  0.27792423127E+02 -0.51788713332E+03  0.53377042087E+03  0.12508993657E+03 0.  0.
         24    2    1    2    0    0  0.25670556464E+02 -0.80938392025E+01  0.41775825606E+02  0.94843228632E+02  0.80780757053E+02 0.  0.
        -11    1    5    5    0    0  0.21045203738E+02 -0.26142847446E+02 -0.13754559300E+02  0.36270331877E+02  0.00000000000E+00 0.  1.
         12    1    5    5    0    0  0.46253527260E+01  0.18049008243E+02  0.55530384906E+02  0.58572896755E+02  0.00000000000E+00 0. -1.
         11    1    3    3    0    0 -0.60675372311E+01 -0.29582108977E+02 -0.59734651088E+03  0.59810932967E+03  0.00000000000E+00 0. -1.
        -12    1    3    3    0    0 -0.27546268753E+01  0.98835250525E+01 -0.81601030195E+01  0.13109512499E+02  0.00000000000E+00 0.  1.
          5    1    4    4  501    0  0.29744718634E+02  0.50530422514E+02 -0.13335453512E+03  0.14573598156E+03  0.41800000000E+01 0.  1.
         -5    1    4    4    0  501 -0.46593110992E+02 -0.22737999387E+02 -0.38453259821E+03  0.38803443931E+03  0.41800000000E+01 0.  1.
</event>
<event>
11    1  0.9238666E-009  0.1619841E+03  0.7561462E-02  0.1085226E+00
         22   -1    0    0    0    0  0.00000000000E+00  0.00000000000E+00  0.38077266192E+03  0.38077266192E+03  0.00000000000E+00 0. -1.
         22   -1    0    0    0    0 -0.00000000000E+00 -0.00000000000E+00 -0.10180121410E+04  0.10180121410E+04  0.00000000000E+00 0. -1.
        -24    2    1    2    0    0  0.28353682864E+02  0.25351946582E+02 -0.92727192916E+03  0.93148586480E+03  0.79912659712E+02 0.  0.
         25    2    1    2    0    0 -0.11524032423E+03 -0.67737654092E+02  0.40342405076E+02  0.18746791070E+03  0.12509190934E+03 0.  0.
         24    2    1    2    0    0  0.86886641371E+02  0.42385707510E+02  0.24969004499E+03  0.27983102744E+03  0.81329261052E+02 0.  0.
        -11    1    5    5    0    0 -0.12622661334E+02 -0.19492012675E+01  0.89684020285E+01  0.15606511452E+02  0.00000000000E+00 0.  1.
         12    1    5    5    0    0  0.99509302705E+02  0.44334908777E+02  0.24072164296E+03  0.26422451599E+03  0.00000000000E+00 0. -1.
         13    1    3    3    0    0  0.16778793447E+02  0.42067389795E+02 -0.86040488984E+03  0.86159605828E+03  0.00000000000E+00 0. -1.
        -14    1    3    3    0    0  0.11574889417E+02 -0.16715443213E+02 -0.66867039322E+02  0.69889806513E+02  0.00000000000E+00 0.  1.
          5    1    4    4  501    0 -0.11894054241E+03 -0.42964580757E+01  0.21171718926E+02  0.12095877919E+03  0.41800000000E+01 0.  1.
         -5    1    4    4    0  501  0.37002181773E+01 -0.63441196017E+02  0.19170686150E+02  0.66509131509E+02  0.41800000000E+01 0.  1.
</event>
<event>
11    1  0.9238666E-009  0.1285873E+03  0.7561462E-02  0.1121017E+00
         22   -1    0    0    0    0  0.00000000000E+00  0.00000000000E+00  0.45712694030E+03  0.45712694030E+03  0.00000000000E+00 0.  1.
         22   -1    0    0    0    0 -0.00000000000E+00 -0.00000000000E+00 -0.90794969125E+03  0.90794969125E+03  0.00000000000E+00 0. -1.
        -24    2    1    2    0    0  0.27597578898E+02 -0.13733021241E+02 -0.80139514323E+03  0.80585711451E+03  0.78875161992E+02 0.  0.
         25    2    1    2    0    0 -0.21316726545E+02 -0.16179477793E+02 -0.59038786832E+02  0.14088792429E+03  0.12509056930E+03 0.  0.
         24    2    1    2    0    0 -0.62808523525E+01  0.29912499034E+02  0.40961117911E+03  0.41833159275E+03  0.79283016673E+02 0.  0.
        -11    1    5    5    0    0 -0.58661809899E+01  0.25028272773E+02  0.41205381594E+03  0.41285490641E+03  0.00000000000E+00 0.  1.
         12    1    5    5    0    0 -0.41467136258E+00  0.48842262612E+01 -0.24426368308E+01  0.54766863336E+01  0.00000000000E+00 0. -1.
         13    1    3    3    0    0  0.41811132688E+02 -0.36905862783E+02 -0.60947592076E+03  0.61202214953E+03  0.00000000000E+00 0. -1.
        -14    1    3    3    0    0 -0.14213553790E+02  0.23172841542E+02 -0.19191922247E+03  0.19383496498E+03  0.00000000000E+00 0.  1.
          5    1    4    4  501    0 -0.54799924445E+01  0.33381953451E+02  0.24782316923E+02  0.42142861382E+02  0.41800000000E+01 0.  1.
         -5    1    4    4    0  501 -0.15836734101E+02 -0.49561431244E+02 -0.83821103755E+02  0.98745062908E+02  0.41800000000E+01 0.  1.
</event>
<event>
11    1  0.9238666E-009  0.1925228E+03  0.7561462E-02  0.1059941E+00
         22   -1    0    0    0    0  0.00000000000E+00  0.00000000000E+00  0.84318880674E+02  0.84318880674E+02  0.00000000000E+00 0.  1.
         22   -1    0    0    0    0 -0.00000000000E+00 -0.00000000000E+00 -0.87432645087E+03  0.87432645087E+03  0.00000000000E+00 0.  1.
        -24    2    1    2    0    0 -0.98353258183E+02  0.32023904590E+02 -0.38061947246E+03  0.40240387270E+03  0.79742084767E+02 0.  0.
         25    2    1    2    0    0 -0.62850724736E+02 -0.10228597918E+03 -0.25419207837E+03  0.30769178434E+03  0.12509191143E+03 0.  0.
         24    2    1    2    0    0  0.16120398292E+03  0.70262074590E+02 -0.15519601937E+03  0.24854967451E+03  0.82265746450E+02 0.  0.
        -11    1    5    5    0    0  0.82645958080E+02  0.79034408012E+02 -0.10232990166E+03  0.15345423035E+03  0.00000000000E+00 0.  1.
         12    1    5    5    0    0  0.78558024839E+02 -0.87723334224E+01 -0.52866117701E+02  0.95095444166E+02  0.00000000000E+00 0. -1.
         11    1    3    3    0    0 -0.41535866075E+02 -0.21917225769E+02 -0.91380753145E+02  0.10274256665E+03  0.00000000000E+00 0. -1.
        -12    1    3    3    0    0 -0.56817392108E+02  0.53941130359E+02 -0.28923871932E+03  0.29966130605E+03  0.00000000000E+00 0.  1.
          5    1    4    4  501    0 -0.30669591931E+02  0.23253861939E+02 -0.31121754218E+02  0.49672949881E+02  0.41800000000E+01 0. -1.
         -5    1    4    4    0  501 -0.32181132805E+02 -0.12553984112E+03 -0.22307032415E+03  0.25801883445E+03  0.41800000000E+01 0. -1.
</event>
<event>
11    1  0.9238666E-009  0.2967871E+03  0.7561462E-02  0.1001560E+00
         22   -1    0    0    0    0  0.00000000000E+00  0.00000000000E+00  0.36845813867E+04  0.36845813867E+04  0.00000000000E+00 0.  1.
         22   -1    0    0    0    0 -0.00000000000E+00 -0.00000000000E+00 -0.98825846709E+03  0.98825846709E+03  0.00000000000E+00 0. -1.
         24    2    1    2    0    0  0.20536015761E+03  0.17275622061E+03 -0.88333759968E+03  0.92673542123E+03  0.80843799206E+02 0.  0.
         25    2    1    2    0    0 -0.23439049335E+03 -0.15521679564E+03  0.20358646694E+03  0.36895100671E+03  0.12508492641E+03 0.  0.
        -24    2    1    2    0    0  0.29030335739E+02 -0.17539424969E+02  0.33760740524E+04  0.33771534259E+04  0.78350896223E+02 0.  0.
        -13    1    3    3    0    0  0.14829512485E+03  0.16621247511E+03 -0.71122768515E+03  0.74529380184E+03  0.00000000000E+00 0.  1.
         14    1    3    3    0    0  0.57065032758E+02  0.65437454942E+01 -0.17210991452E+03  0.18144161939E+03  0.00000000000E+00 0. -1.
         13    1    5    5    0    0  0.29412541769E+02  0.26185342854E+02  0.19907426558E+04  0.19911321130E+04  0.00000000000E+00 0. -1.
        -14    1    5    5    0    0 -0.38220603046E+00 -0.43724767822E+02  0.13853313966E+04  0.13860213129E+04  0.00000000000E+00 0.  1.
          5    1    4    4  501    0 -0.90434657371E+00 -0.35221724844E+02  0.59994363490E+02  0.69700672840E+02  0.41800000000E+01 0.  1.
         -5    1    4    4    0  501 -0.23348614678E+03 -0.11999507079E+03  0.14359210345E+03  0.29925033387E+03  0.41800000000E+01 0.  1.
</event>
<event>
11    1  0.9238666E-009  0.1553397E+03  0.7561462E-02  0.1091544E+00
         22   -1    0    0    0    0  0.00000000000E+00  0.00000000000E+00  0.71582433345E+03  0.71582433345E+03  0.00000000000E+00 0.  1.
         22   -1    0    0    0    0 -0.00000000000E+00 -0.00000000000E+00 -0.48852561249E+03  0.48852561249E+03  0.00000000000E+00 0. -1.
         24    2    1    2    0    0  0.96662637519E+02  0.34275365976E+02 -0.35965788492E+03  0.38256403135E+03  0.80516940418E+02 0.  0.
         25    2    1    2    0    0 -0.57467474467E+02  0.17794492147E+01 -0.72186353786E+02  0.15544950744E+03  0.12509197668E+03 0.  0.
        -24    2    1    2    0    0 -0.39195163052E+02 -0.36054815190E+02  0.65914295966E+03  0.66633640715E+03  0.81844704869E+02 0.  0.
        -11    1    3    3    0    0  0.13779777471E+02  0.36147040876E+02 -0.57968902949E+02  0.69691351977E+02  0.00000000000E+00 0.  1.
         12    1    3    3    0    0  0.82882860048E+02 -0.18716749003E+01 -0.30168898197E+03  0.31287267938E+03  0.00000000000E+00 0. -1.
         13    1    5    5    0    0 -0.41359704576E+00 -0.14311934642E+02  0.15279043096E+02  0.20939238134E+02  0.00000000000E+00 0. -1.
        -14    1    5    5    0    0 -0.38781566006E+02 -0.21742880548E+02  0.64386391657E+03  0.64539716902E+03  0.00000000000E+00 0.  1.
          5    1    4    4  501    0  0.22101810613E+01  0.56422750284E+02 -0.31252559094E+02  0.64673073994E+02  0.41800000000E+01 0.  1.
         -5    1    4    4    0  501 -0.59677655528E+02 -0.54643301069E+02 -0.40933794693E+02  0.90776433445E+02  0.41800000000E+01 0.  1.
</event>
<event>
11    1  0.9882668E-009  0.1795240E+03  0.7561462E-02  0.1070029E+00
         22   -1    0    0    0    0  0.00000000000E+00  0.00000000000E+00  0.68287503224E+03  0.68287503224E+03  0.00000000000E+00 0. -1.
         22   -1    0    0    0    0 -0.00000000000E+00 -0.00000000000E+00 -0.47017190590E+03  0.47017190590E+03  0.00000000000E+00 0. -1.
        -24    2    1    2    0    0 -0.50089258837E+02 -0.77432182506E+01 -0.36803265034E+03  0.38005537541E+03  0.80157129333E+02 0.  0.
         25    2    1    2    0    0 -0.81369866938E+02  0.32335700073E+02 -0.18433118113E+02  0.15379613197E+03  0.12508724004E+03 0.  0.
         24    2    1    2    0    0  0.13145912578E+03 -0.24592481822E+02  0.59916889479E+03  0.61919543077E+03  0.80705173894E+02 0.  0.
        -11    1    5    5    0    0 -0.77906211773E+01 -0.14167785207E+02  0.76871229379E+02  0.78553203768E+02  0.00000000000E+00 0.  1.
         12    1    5    5    0    0  0.13924974695E+03 -0.10424696615E+02  0.52229766541E+03  0.54064222700E+03  0.00000000000E+00 0. -1.
         11    1    3    3    0    0 -0.52041659912E+02 -0.11617271176E+02 -0.37099166530E+03  0.37480409693E+03  0.00000000000E+00 0. -1.
        -12    1    3    3    0    0  0.19524010747E+01  0.38740529252E+01  0.29590149658E+01  0.52512784721E+01  0.00000000000E+00 0.  1.
          5    1    4    4  501    0 -0.87202234720E+02  0.10702400876E+02  0.35804398249E+02  0.94964195667E+02  0.41800000000E+01 0.  1.
         -5    1    4    4    0  501  0.58323677818E+01  0.21633299197E+02 -0.54237516362E+02  0.58831936304E+02  0.41800000000E+01 0.  1.
</event>
<event>
11    1  0.9238666E-009  0.1308192E+03  0.7561462E-02  0.1118266E+00
         22   -1    0    0    0    0  0.00000000000E+00  0.00000000000E+00  0.10354554984E+03  0.10354554984E+03  0.00000000000E+00 0. -1.
         22   -1    0    0    0    0 -0.00000000000E+00 -0.00000000000E+00 -0.12080512935E+04  0.12080512935E+04  0.00000000000E+00 0.  1.
         24    2    1    2    0    0 -0.36438750100E+02  0.86342477855E+01 -0.10540568641E+04  0.10585642670E+04  0.90111607617E+02 0.  0.
         25    2    1    2    0    0  0.52754969138E+02  0.30413134879E+00 -0.95897915138E+02  0.16621474187E+03  0.12509097098E+03 0.  0.
        -24    2    1    2    0    0 -0.16316219038E+02 -0.89383791343E+01  0.45449035671E+02  0.86817834405E+02  0.71593350963E+02 0.  0.
        -13    1    3    3    0    0  0.13612205856E+02  0.19483792724E+02 -0.73819292924E+03  0.73857546067E+03  0.00000000000E+00 0.  1.
         14    1    3    3    0    0 -0.50050955956E+02 -0.10849544938E+02 -0.31586393491E+03  0.31998880636E+03  0.00000000000E+00 0. -1.
         13    1    5    5    0    0  0.96902957263E+01  0.83545224932E+00  0.56194289226E+02  0.57029798819E+02  0.00000000000E+00 0. -1.
        -14    1    5    5    0    0 -0.26006514765E+02 -0.97738313836E+01 -0.10745253555E+02  0.29788035586E+02  0.00000000000E+00 0.  1.
          5    1    4    4  501    0  0.91590942295E+02 -0.48030394587E+00 -0.45238431250E+02  0.10224049816E+03  0.41800000000E+01 0. -1.
         -5    1    4    4    0  501 -0.38835973156E+02  0.78443529466E+00 -0.50659483888E+02  0.63974243704E+02  0.41800000000E+01 0. -1.
</event>
<event>
11    1  0.9238666E-009  0.1737430E+03  0.7561462E-02  0.1074820E+00
         22   -1    0    0    0    0  0.00000000000E+00  0.00000000000E+00  0.30824637098E+03  0.30824637098E+03  0.00000000000E+00 0.  1.
         22   -1    0    0    0    0 -0.00000000000E+00 -0.00000000000E+00 -0.44735454001E+03  0.44735454001E+03  0.00000000000E+00 0.  1.
         24    2    1    2    0    0  0.46164390283E+02  0.57808356138E+02 -0.34170971130E+03  0.36060857660E+03  0.88317958267E+02 0.  0.
         25    2    1    2    0    0  0.13591419718E+01  0.76588181101E+02  0.16369428099E+02  0.14759187526E+03  0.12509119360E+03 0.  0.
        -24    2    1    2    0    0 -0.47523532255E+02 -0.13439653724E+03  0.18623211417E+03  0.24740045912E+03  0.78763389245E+02 0.  0.
        -11    1    3    3    0    0  0.38549006084E+02  0.73931132855E+02 -0.32709286217E+03  0.33755233484E+03  0.00000000000E+00 0.  1.
         12    1    3    3    0    0  0.76153841991E+01 -0.16122776716E+02 -0.14616849128E+02  0.23056241757E+02  0.00000000000E+00 0. -1.
         13    1    5    5    0    0  0.12052809488E+02 -0.83294743091E+01  0.51360305995E+02  0.53409094644E+02  0.00000000000E+00 0. -1.
        -14    1    5    5    0    0 -0.59576341743E+02 -0.12606706293E+03  0.13487180818E+03  0.19399136448E+03  0.00000000000E+00 0.  1.
          5    1    4    4  501    0  0.10902089525E+02 -0.32230671762E+02 -0.88494605187E+01  0.35404196217E+02  0.41800000000E+01 0. -1.
         -5    1    4    4    0  501 -0.95429475532E+01  0.10881885286E+03  0.25218888618E+02  0.11218767905E+03  0.41800000000E+01 0. -1.
</event>
<event>
11    1  0.9238666E-009  0.1312071E+03  0.7561462E-02  0.1117795E+00
         22   -1    0    0    0    0  0.00000000000E+00  0.00000000000E+00  0.16377751880E+02  0.16377751880E+02  0.00000000000E+00 0.  1.
         22   -1    0    0    0    0 -0.00000000000E+00 -0.00000000000E+00 -0.35041816890E+04  0.35041816890E+04  0.00000000000E+00 0. -1.
        -24    2    1    2    0    0 -0.13014171388E+02  0.43610362087E+02 -0.24907192439E+04  0.24924826253E+04  0.81951530918E+02 0.  0.
         25    2    1    2    0    0  0.40827200148E+01 -0.68417714354E+01 -0.82331108741E+03  0.83279807599E+03  0.12509200724E+03 0.  0.
         24    2    1    2    0    0  0.89314513731E+01 -0.36768590652E+02 -0.17377360580E+03  0.19527873953E+03  0.80652464050E+02 0.  0.
        -11    1    5    5    0    0 -0.32290434824E+02 -0.62485439024E+01 -0.38659631954E+02  0.50757104181E+02  0.00000000000E+00 0.  1.
         12    1    5    5    0    0  0.41221886197E+02 -0.30520046749E+02 -0.13511397385E+03  0.14452163535E+03  0.00000000000E+00 0. -1.
         13    1    3    3    0    0  0.20105412512E+02 -0.32605425972E+01 -0.14767620561E+04  0.14769025117E+04  0.00000000000E+00 0. -1.
        -14    1    3    3    0    0 -0.33119583900E+02  0.46870904684E+02 -0.10139571878E+04  0.10155801136E+04  0.00000000000E+00 0.  1.
          5    1    4    4  501    0  0.41877476506E+02  0.17588793600E+02 -0.12562476714E+03  0.13364932929E+03  0.41800000000E+01 0.  1.
         -5    1    4    4    0  501 -0.37794756491E+02 -0.24430565035E+02 -0.69768632027E+03  0.69914874670E+03  0.41800000000E+01 0.  1.
</event>
<event>
11    1  0.9238666E-009  0.1320495E+03  0.7561462E-02  0.1116776E+00
         22   -1    0    0    0    0  0.00000000000E+00  0.00000000000E+00  0.61588693633E+03  0.61588693633E+03  0.00000000000E+00 0. -1.
         22   -1    0    0    0    0 -0.00000000000E+00 -0.00000000000E+00 -0.14399508944E+04  0.14399508944E+04  0.00000000000E+00 0. -1.
        -24    2    1    2    0    0  0.11531701329E+02 -0.13293290199E+02 -0.13956566596E+04  0.13980710003E+04  0.80220437361E+02 0.  0.
         25    2    1    2    0    0  0.31622114306E+02  0.16198996519E+02  0.68840459865E+02  0.14713625801E+03  0.12509078266E+03 0.  0.
         24    2    1    2    0    0 -0.43153815635E+02 -0.29057063200E+01  0.50275224168E+03  0.51063057244E+03  0.78186124463E+02 0.  0.
        -13    1    5    5    0    0 -0.43310537418E+02  0.30994217600E+02  0.24961214009E+03  0.25523061073E+03  0.00000000000E+00 0.  1.
         14    1    5    5    0    0  0.15672178268E+00 -0.33899923920E+02  0.25314010159E+03  0.25539996170E+03  0.00000000000E+00 0. -1.
         13    1    3    3    0    0  0.10200021352E+02 -0.28265761699E+02 -0.13423296842E+04  0.13426659952E+04  0.00000000000E+00 0. -1.
        -14    1    3    3    0    0  0.13316799769E+01  0.14972471500E+02 -0.53326975439E+02  0.55405005044E+02  0.00000000000E+00 0.  1.
          5    1    4    4  501    0  0.71592265408E+02  0.83888593846E+01  0.76820016994E+02  0.10542586418E+03  0.41800000000E+01 0.  1.
         -5    1    4    4    0  501 -0.39970151102E+02  0.78101371342E+01 -0.79795571288E+01  0.41710393827E+02  0.41800000000E+01 0.  1.
</event>
<event>
11    1  0.9238666E-009  0.2083386E+03  0.7561462E-02  0.1048779E+00
         22   -1    0    0    0    0  0.00000000000E+00  0.00000000000E+00  0.42170573014E+03  0.42170573014E+03  0.00000000000E+00 0. -1.
         22   -1    0    0    0    0 -0.00000000000E+00 -0.00000000000E+00 -0.40810443906E+03  0.40810443906E+03  0.00000000000E+00 0. -1.
        -24    2    1    2    0    0  0.22261054610E+02  0.19613519503E+02 -0.28379850003E+03  0.29677934646E+03  0.81585214135E+02 0.  0.
         25    2    1    2    0    0 -0.11798125232E+03 -0.14706290002E+03  0.55886740297E+02  0.23306216808E+03  0.12509026336E+03 0.  0.
         24    2    1    2    0    0  0.95720197706E+02  0.12744938052E+03  0.24151305081E+03  0.29996865467E+03  0.79037581099E+02 0.  0.
        -11    1    5    5    0    0  0.96557343827E+01  0.73163384487E+02  0.77990701026E+02  0.10737161395E+03  0.00000000000E+00 0.  1.
         12    1    5    5    0    0  0.86064463324E+02  0.54285996033E+02  0.16352234978E+03  0.19259704071E+03  0.00000000000E+00 0. -1.
         13    1    3    3    0    0  0.75074719178E+01 -0.35361589059E+01 -0.26089842416E+03  0.26103037042E+03  0.00000000000E+00 0. -1.
        -14    1    3    3    0    0  0.14753582692E+02  0.23149678408E+02 -0.22900075869E+02  0.35748976034E+02  0.00000000000E+00 0.  1.
          5    1    4    4  501    0 -0.11784066654E+03 -0.10652643105E+03 -0.59333392877E+01  0.15901880429E+03  0.41800000000E+01 0. -1.
         -5    1    4    4    0  501 -0.14058577476E+00 -0.40536468972E+02  0.61820079584E+02  0.74043363787E+02  0.41800000000E+01 0. -1.
</event>
<event>
11    1  0.9238666E-009  0.1353075E+03  0.7561462E-02  0.1112914E+00
         22   -1    0    0    0    0  0.00000000000E+00  0.00000000000E+00  0.49601543199E+02  0.49601543199E+02  0.00000000000E+00 0. -1.
         22   -1    0    0    0    0 -0.00000000000E+00 -0.00000000000E+00 -0.15197480049E+04  0.15197480049E+04  0.00000000000E+00 0. -1.
         24    2    1    2    0    0 -0.10539574507E+02 -0.25915770279E+02 -0.10448376863E+04  0.10485371963E+04  0.83437111407E+02 0.  0.
         25    2    1    2    0    0 -0.42128747374E+02  0.28728546915E+02 -0.39464740509E+03  0.41712605781E+03  0.12508961985E+03 0.  0.
        -24    2    1    2    0    0  0.52668321880E+02 -0.28127766364E+01 -0.30661370321E+02  0.10368629399E+03  0.83838321124E+02 0.  0.
        -11    1    3    3    0    0 -0.30310472431E+02  0.21105520953E+02 -0.41993786270E+03  0.42155898316E+03  0.00000000000E+00 0.  1.
         12    1    3    3    0    0  0.19770897925E+02 -0.47021291232E+02 -0.62489982358E+03  0.62697821313E+03  0.00000000000E+00 0. -1.
         11    1    5    5    0    0  0.58686607053E+02 -0.22436140182E+02  0.44811444977E+01  0.62988720337E+02  0.00000000000E+00 0. -1.
        -12    1    5    5    0    0 -0.60182851732E+01  0.19623363545E+02 -0.35142514819E+02  0.40697573651E+02  0.00000000000E+00 0.  1.
          5    1    4    4  501    0 -0.15323292240E+02 -0.98996710112E+01  0.93330895101E+00  0.18739003090E+02  0.41800000000E+01 0.  1.
         -5    1    4    4    0  501 -0.26805455133E+02  0.38628217926E+02 -0.39558071404E+03  0.39838705472E+03  0.41800000000E+01 0.  1.
</event>
<event>
11    1  0.9238666E-009  0.1434456E+03  0.7561462E-02  0.1103771E+00
         22   -1    0    0    0    0  0.00000000000E+00  0.00000000000E+00  0.18735942899E+04  0.18735942899E+04  0.00000000000E+00 0.  1.
         22   -1    0    0    0    0 -0.00000000000E+00 -0.00000000000E+00 -0.49527222152E+02  0.49527222152E+02  0.00000000000E+00 0. -1.
        -24    2    1    2    0    0  0.40818047742E+02  0.49126999877E+02  0.49661328891E+02  0.11497572075E+03  0.81692065929E+02 0.  0.
         25    2    1    2    0    0 -0.10587875879E+03 -0.38280520662E+02  0.46327835354E+03  0.49289905738E+03  0.12508772154E+03 0.  0.
         24    2    1    2    0    0  0.65060711051E+02 -0.10846479215E+02  0.13111273853E+04  0.13152467339E+04  0.80426415702E+02 0.  0.
        -11    1    5    5    0    0  0.73234196484E+02 -0.12201663715E+02  0.12949002374E+04  0.12970268899E+04  0.00000000000E+00 0.  1.
         12    1    5    5    0    0 -0.81734854331E+01  0.13551844998E+01  0.16227147889E+02  0.18219844065E+02  0.00000000000E+00 0. -1.
         13    1    3    3    0    0  0.43422836079E+02  0.62811372867E+02  0.15271729573E+02  0.77871926769E+02  0.00000000000E+00 0. -1.
        -14    1    3    3    0    0 -0.26047883370E+01 -0.13684372989E+02  0.34389599318E+02  0.37103793979E+02  0.00000000000E+00 0.  1.
          5    1    4    4  501    0 -0.90496533452E+02  0.46334954932E+01  0.14285546015E+03  0.16922247706E+03  0.41800000000E+01 0. -1.
         -5    1    4    4    0  501 -0.15382225340E+02 -0.42914016155E+02  0.32042289339E+03  0.32367658032E+03  0.41800000000E+01 0. -1.
</event>
<event>
11    1  0.9238666E-009  0.1962953E+03  0.7561462E-02  0.1057175E+00
         22   -1    0    0    0    0  0.00000000000E+00  0.00000000000E+00  0.21673365617E+04  0.21673365617E+04  0.00000000000E+00 0. -1.
         22   -1    0    0    0    0 -0.00000000000E+00 -0.00000000000E+00 -0.15824245931E+04  0.15824245931E+04  0.00000000000E+00 0.  1.
         24    2    1    2    0    0  0.33064150776E+02  0.77880605391E+01 -0.14040603765E+04  0.14067089833E+04  0.79314126770E+02 0.  0.
         25    2    1    2    0    0 -0.16139520016E+03 -0.86680700415E+02 -0.10269001433E+03  0.24444884265E+03  0.12509213873E+03 0.  0.
        -24    2    1    2    0    0  0.12833104939E+03  0.78892639876E+02  0.20916623594E+04  0.20986033289E+04  0.79947477402E+02 0.  0.
        -11    1    3    3    0    0  0.56633346272E+02  0.11538626403E+02 -0.75456197032E+03  0.75677225297E+03  0.00000000000E+00 0.  1.
         12    1    3    3    0    0 -0.23569195495E+02 -0.37505658634E+01 -0.64949840620E+03  0.64993673029E+03  0.00000000000E+00 0. -1.
         13    1    5    5    0    0  0.66839818690E+02  0.42255593469E+02  0.59518209180E+03  0.60041220752E+03  0.00000000000E+00 0. -1.
        -14    1    5    5    0    0  0.61491230696E+02  0.36637046407E+02  0.14964802676E+04  0.14981911213E+04  0.00000000000E+00 0.  1.
          5    1    4    4  501    0 -0.59485726214E+02 -0.10224060905E+03 -0.48539519641E+02  0.12792674126E+03  0.41800000000E+01 0.  1.
         -5    1    4    4    0  501 -0.10190947395E+03  0.15559908639E+02 -0.54150494686E+02  0.11652210139E+03  0.41800000000E+01 0.  1.
</event>
<event>
11    1  0.9238666E-009  0.1321828E+03  0.7561462E-02  0.1116616E+00
         22   -1    0    0    0    0  0.00000000000E+00  0.00000000000E+00  0.13529160284E+03  0.13529160284E+03  0.00000000000E+00 0. -1.
         22   -1    0    0    0    0 -0.00000000000E+00 -0.00000000000E+00 -0.12326976693E+04  0.12326976693E+04  0.00000000000E+00 0. -1.
        -24    2    1    2    0    0 -0.17435722329E+02  0.40441943151E+02 -0.56412851460E+03  0.57163939660E+03  0.81185365604E+02 0.  0.
         25    2    1    2    0    0 -0.10028259737E+02 -0.44978429370E+02 -0.64327264869E+03  0.65693845347E+03  0.12507919892E+03 0.  0.
         24    2    1    2    0    0  0.27463982066E+02  0.45364862197E+01  0.10999509679E+03  0.13941142210E+03  0.81004773168E+02 0.  0.
        -13    1    5    5    0    0 -0.22340751250E+02  0.13621991036E+02  0.11326120220E+02  0.28512257109E+02  0.00000000000E+00 0.  1.
         14    1    5    5    0    0  0.49804733316E+02 -0.90855048167E+01  0.98668976568E+02  0.11089916499E+03  0.00000000000E+00 0. -1.
         11    1    3    3    0    0  0.29271488082E+02  0.11859230625E+02 -0.11764759852E+03  0.12181304858E+03  0.00000000000E+00 0. -1.
        -12    1    3    3    0    0 -0.46707210410E+02  0.28582712526E+02 -0.44648091607E+03  0.44982634802E+03  0.00000000000E+00 0.  1.
          5    1    4    4  501    0  0.32287831852E+02 -0.72078907739E+02 -0.31295591349E+03  0.32279521250E+03  0.41800000000E+01 0.  1.
         -5    1    4    4    0  501 -0.42316091590E+02  0.27100478368E+02 -0.33031673520E+03  0.33414324098E+03  0.41800000000E+01 0.  1.
</event>
<event>
11    1  0.9238666E-009  0.1999782E+03  0.7561462E-02  0.1054539E+00
         22   -1    0    0    0    0  0.00000000000E+00  0.00000000000E+00  0.94196213440E+03  0.94196213440E+03  0.00000000000E+00 0. -1.
         22   -1    0    0    0    0 -0.00000000000E+00 -0.00000000000E+00 -0.97716781222E+03  0.97716781222E+03  0.00000000000E+00 0. -1.
         24    2    1    2    0    0  0.19454969903E+02 -0.91285324033E+02 -0.93158815933E+03  0.94008822766E+03  0.84840267190E+02 0.  0.
         25    2    1    2    0    0 -0.15363513379E+03  0.12326581941E+03  0.49850704348E+03  0.55040922604E+03  0.12507128826E+03 0.  0.
        -24    2    1    2    0    0  0.13418016388E+03 -0.31980495376E+02  0.39787543803E+03  0.42863249293E+03  0.79961749214E+02 0.  0.
        -13    1    3    3    0    0 -0.11975427631E+02 -0.11429443878E+02 -0.28710067599E+02  0.33140776030E+02  0.00000000000E+00 0.  1.
         14    1    3    3    0    0  0.31430397534E+02 -0.79855880154E+02 -0.90287809173E+03  0.90694745163E+03  0.00000000000E+00 0. -1.
         11    1    5    5    0    0  0.68589873254E+02 -0.98884062917E+01  0.30518099651E+03  0.31295014287E+03  0.00000000000E+00 0. -1.
        -12    1    5    5    0    0  0.65590290629E+02 -0.22092089084E+02  0.92694441523E+02  0.11568235005E+03  0.00000000000E+00 0.  1.
          5    1    4    4  501    0 -0.89130063316E+02  0.52683213386E+02  0.11350788297E+03  0.15369190302E+03  0.41800000000E+01 0.  1.
         -5    1    4    4    0  501 -0.64505070469E+02  0.70582606023E+02  0.38499916051E+03  0.39671732302E+03  0.41800000000E+01 0.  1.
</event>
<event>
11    1  0.9238666E-009  0.2913596E+03  0.7561462E-02  0.1003916E+00
         22   -1    0    0    0    0  0.00000000000E+00  0.00000000000E+00  0.83008252430E+03  0.83008252430E+03  0.00000000000E+00 0. -1.
         22   -1    0    0    0    0 -0.00000000000E+00 -0.00000000000E+00 -0.24912049004E+03  0.24912049004E+03  0.00000000000E+00 0. -1.
         24    2    1    2    0    0 -0.52661768576E+02  0.42805221631E+02 -0.12873672963E+03  0.16326423948E+03  0.74003496325E+02 0.  0.
         25    2    1    2    0    0 -0.16327839629E+03  0.15104719901E+03  0.20077071953E+03  0.32470266162E+03  0.12509134908E+03 0.  0.
        -24    2    1    2    0    0  0.21594016487E+03 -0.19385242064E+03  0.50892804436E+03  0.59123611325E+03  0.79645913144E+02 0.  0.
        -13    1    3    3    0    0 -0.54461299425E+02  0.33392907791E+02 -0.43031315851E+02  0.77024759459E+02  0.00000000000E+00 0.  1.
         14    1    3    3    0    0  0.17995308496E+01  0.94123138394E+01 -0.85705413778E+02  0.86239480019E+02  0.00000000000E+00 0. -1.
         11    1    5    5    0    0  0.11101992324E+03 -0.62052544805E+02  0.27474556589E+03  0.30275578880E+03  0.00000000000E+00 0. -1.
        -12    1    5    5    0    0  0.10492024163E+03 -0.13179987583E+03  0.23418247847E+03  0.28848032445E+03  0.00000000000E+00 0.  1.
          5    1    4    4  501    0 -0.14361702884E+03  0.11788230395E+03  0.21427028695E+03  0.28363941339E+03  0.41800000000E+01 0.  1.
         -5    1    4    4    0  501 -0.19661367458E+02  0.33164895060E+02 -0.13499567419E+02  0.41063248229E+02  0.41800000000E+01 0.  1.
</event>
<event>
11    1  0.9238666E-009  0.1341878E+03  0.7561462E-02  0.1114228E+00
         22   -1    0    0    0    0  0.00000000000E+00  0.00000000000E+00  0.10302722367E+04  0.10302722367E+04  0.00000000000E+00 0. -1.
         22   -1    0    0    0    0 -0.00000000000E+00 -0.00000000000E+00 -0.40004063919E+03  0.40004063919E+03  0.00000000000E+00 0.  1.
         24    2    1    2    0    0  0.42914338945E+02 -0.12312209870E+02 -0.28429719677E+03  0.29889080164E+03  0.80731556519E+02 0.  0.
         25    2    1    2    0    0 -0.80594052241E+02 -0.71806962807E+01 -0.54129030217E+02  0.15850918463E+03  0.12509294962E+03 0.  0.
        -24    2    1    2    0    0  0.37679713296E+02  0.19492906151E+02  0.96865782448E+03  0.97291288960E+03  0.80385170552E+02 0.  0.
        -13    1    3    3    0    0  0.45072195499E+02 -0.36511551785E+02 -0.25133966307E+03  0.25794616193E+03  0.00000000000E+00 0.  1.
         14    1    3    3    0    0 -0.21578565539E+01  0.24199341915E+02 -0.32957533698E+02  0.40944639716E+02  0.00000000000E+00 0. -1.
         11    1    5    5    0    0  0.12435279567E+02 -0.12679607269E+02  0.76415344651E+03  0.76435979645E+03  0.00000000000E+00 0. -1.
        -12    1    5    5    0    0  0.25244433730E+02  0.32172513419E+02  0.20450437797E+03  0.20855309315E+03  0.00000000000E+00 0.  1.
          5    1    4    4  501    0  0.17519493422E+02  0.12815274184E+02  0.23110697098E+02  0.31980316173E+02  0.41800000000E+01 0. -1.
         -5    1    4    4    0  501 -0.98113545663E+02 -0.19995970465E+02 -0.77239727314E+02  0.12652886846E+03  0.41800000000E+01 0. -1.
</event>
<event>
11    1  0.9238666E-009  0.1666665E+03  0.7561462E-02  0.1080970E+00
         22   -1    0    0    0    0  0.00000000000E+00  0.00000000000E+00  0.36675323768E+04  0.36675323768E+04  0.00000000000E+00 0. -1.
         22   -1    0    0    0    0 -0.00000000000E+00 -0.00000000000E+00 -0.98360176318E+03  0.98360176318E+03  0.00000000000E+00 0.  1.
        -24    2    1    2    0    0 -0.10692379153E+03  0.26688267206E+02 -0.96291932659E+03  0.97248054949E+03  0.79748534852E+02 0.  0.
         25    2    1    2    0    0  0.10992838960E+03  0.12588796646E+02  0.44076906656E+03  0.47134678320E+03  0.12509073250E+03 0.  0.
         24    2    1    2    0    0 -0.30045980732E+01 -0.39277063853E+02  0.32060808737E+04  0.32073068073E+04  0.79439739966E+02 0.  0.
        -13    1    5    5    0    0 -0.76024633561E+01  0.24195787126E+01  0.33074460389E+02  0.34023105976E+02  0.00000000000E+00 0.  1.
         14    1    5    5    0    0  0.45978652829E+01 -0.41696642565E+02  0.31730064133E+04  0.31732837013E+04  0.00000000000E+00 0. -1.
         11    1    3    3    0    0 -0.40331928104E+01 -0.21163312465E+02 -0.11482919935E+03  0.11683277563E+03  0.00000000000E+00 0. -1.
        -12    1    3    3    0    0 -0.10289059872E+03  0.47851579671E+02 -0.84809012724E+03  0.85564777386E+03  0.00000000000E+00 0.  1.
          5    1    4    4  501    0  0.93906904368E+02 -0.38848655260E+02  0.19753911060E+03  0.22218662723E+03  0.41800000000E+01 0. -1.
         -5    1    4    4    0  501  0.16021485236E+02  0.51437451906E+02  0.24322995596E+03  0.24916015597E+03  0.41800000000E+01 0. -1.
</event>
<event>
11    1  0.9238666E-009  0.1467770E+03  0.7561462E-02  0.1100218E+00
         22   -1    0    0    0    0  0.00000000000E+00  0.00000000000E+00  0.51289221267E+03  0.51289221267E+03  0.00000000000E+00 0. -1.
         22   -1    0    0    0    0 -0.00000000000E+00 -0.00000000000E+00 -0.11213956904E+04  0.11213956904E+04  0.00000000000E+00 0. -1.
        -24    2    1    2    0    0  0.72668275612E+02 -0.26890555592E+02 -0.94582132830E+03  0.95307341468E+03  0.88131540493E+02 0.  0.
         25    2    1    2    0    0 -0.72935407243E+02  0.32294193383E+01 -0.13702718805E+03  0.19942056715E+03  0.12514835021E+03 0.  0.
         24    2    1    2    0    0  0.26713163122E+00  0.23661136254E+02  0.47434503866E+03  0.48179392120E+03  0.81007691471E+02 0.  0.
        -13    1    5    5    0    0  0.86851562238E+00 -0.23670873688E+01 -0.28979583303E+01  0.38412998427E+01  0.00000000000E+00 0.  1.
         14    1    5    5    0    0 -0.60138399117E+00  0.26028223622E+02  0.47724299699E+03  0.47795262136E+03  0.00000000000E+00 0. -1.
         11    1    3    3    0    0  0.46349803219E+02 -0.51679829157E+02 -0.39399538038E+03  0.40006433078E+03  0.00000000000E+00 0. -1.
        -12    1    3    3    0    0  0.26318472394E+02  0.24789273565E+02 -0.55182594792E+03  0.55300908390E+03  0.00000000000E+00 0.  1.
          5    1    4    4  501    0 -0.66258571696E+02 -0.39036647731E+02 -0.27536499468E+02  0.81791132723E+02  0.41800000000E+01 0. -1.
         -5    1    4    4    0  501 -0.66768355479E+01  0.42266067069E+02 -0.10949068858E+03  0.11762943443E+03  0.41800000000E+01 0. -1.
</event>
<event>
11    1  0.9238666E-009  0.2226682E+03  0.7561462E-02  0.1039559E+00
         22   -1    0    0    0    0  0.00000000000E+00  0.00000000000E+00  0.84284199998E+03  0.84284199998E+03  0.00000000000E+00 0.  1.
         22   -1    0    0    0    0 -0.00000000000E+00 -0.00000000000E+00 -0.12016375003E+04  0.12016375003E+04  0.00000000000E+00 0.  1.
        -24    2    1    2    0    0  0.61814517583E+02  0.16666016271E+03 -0.90063805795E+03  0.92188399801E+03  0.84407049090E+02 0.  0.
         25    2    1    2    0    0 -0.11976742042E+03 -0.18792225660E+03 -0.23010002568E+03  0.34387889030E+03  0.12509060659E+03 0.  0.
         24    2    1    2    0    0  0.57952902836E+02  0.21262093888E+02  0.77194258330E+03  0.77871661197E+03  0.81814389162E+02 0.  0.
        -11    1    5    5    0    0  0.20286020472E+02  0.44308917102E+02  0.56594662239E+03  0.56804082790E+03  0.00000000000E+00 0.  1.
         12    1    5    5    0    0  0.37666882364E+02 -0.23046823215E+02  0.20599596091E+03  0.21067578408E+03  0.00000000000E+00 0. -1.
         13    1    3    3    0    0 -0.17337900196E+02  0.61077976492E+02 -0.24456018104E+03  0.25266737847E+03  0.00000000000E+00 0. -1.
        -14    1    3    3    0    0  0.79152417779E+02  0.10558218622E+03 -0.65607787692E+03  0.66921661954E+03  0.00000000000E+00 0.  1.
          5    1    4    4  501    0 -0.91259887599E+02 -0.82083286100E+02 -0.19168767326E+03  0.22765691165E+03  0.41800000000E+01 0.  1.
         -5    1    4    4    0  501 -0.28507532820E+02 -0.10583897050E+03 -0.38412352423E+02  0.11622197866E+03  0.41800000000E+01 0.  1.
</event>
<event>
11    1  0.9238666E-009  0.3031150E+03  0.7561462E-02  0.9988814E-01
         22   -1    0    0    0    0  0.00000000000E+00  0.00000000000E+00  0.25985058599E+03  0.25985058599E+03  0.00000000000E+00 0.  1.
         22   -1    0    0    0    0 -0.00000000000E+00 -0.00000000000E+00 -0.10084442166E+04  0.10084442166E+04  0.00000000000E+00 0. -1.
        -24    2    1    2    0    0  0.82537258478E+02  0.27987797254E+03 -0.45322546207E+03  0.54496099763E+03  0.80156664885E+02 0.  0.
         25    2    1    2    0    0 -0.26071818909E+03  0.16433987165E+02 -0.21414637284E+03  0.36020867679E+03  0.12509025454E+03 0.  0.
         24    2    1    2    0    0  0.17818093062E+03 -0.29631195971E+03 -0.81221795709E+02  0.36312512817E+03  0.75588736654E+02 0.  0.
        -13    1    5    5    0    0  0.64096843908E+02 -0.16916735866E+03 -0.21567740303E+02  0.18218443418E+03  0.00000000000E+00 0.  1.
         14    1    5    5    0    0  0.11408408671E+03 -0.12714460104E+03 -0.59654055406E+02  0.18094069399E+03  0.00000000000E+00 0. -1.
         13    1    3    3    0    0  0.49332530219E+02  0.21706586947E+03 -0.39369637724E+03  0.45226997212E+03  0.00000000000E+00 0. -1.
        -14    1    3    3    0    0  0.33204728259E+02  0.62812103070E+02 -0.59529084823E+02  0.92691025513E+02  0.00000000000E+00 0.  1.
          5    1    4    4  501    0 -0.14162567284E+03  0.15293862480E+02 -0.37917539686E+02  0.14746845647E+03  0.41800000000E+01 0.  1.
         -5    1    4    4    0  501 -0.11909251625E+03  0.11401246848E+01 -0.17622883315E+03  0.21274022033E+03  0.41800000000E+01 0.  1.
</event>
<event>
11    1  0.9238666E-009  0.1383279E+03  0.7561462E-02  0.1109440E+00
         22   -1    0    0    0    0  0.00000000000E+00  0.00000000000E+00  0.19553195158E+03  0.19553195158E+03  0.00000000000E+00 0. -1.
         22   -1    0    0    0    0 -0.00000000000E+00 -0.00000000000E+00 -0.25147139344E+04  0.25147139344E+04  0.00000000000E+00 0. -1.
        -24    2    1    2    0    0  0.22516431154E+02  0.42550309371E+02 -0.14357947946E+04  0.14396515877E+04  0.93661536871E+02 0.  0.
         25    2    1    2    0    0 -0.41799658742E+02 -0.80448750507E+02 -0.10602802075E+04  0.10714769862E+04  0.12509836373E+03 0.  0.
         24    2    1    2    0    0  0.19283227587E+02  0.37898441136E+02  0.17689301919E+03  0.19911731210E+03  0.80922364234E+02 0.  0.
        -13    1    5    5    0    0  0.92744140733E+01 -0.57232794377E+01 -0.48616922236E+01  0.11933429314E+02  0.00000000000E+00 0.  1.
         14    1    5    5    0    0  0.10008813514E+02  0.43621720574E+02  0.18175471141E+03  0.18718388279E+03  0.00000000000E+00 0. -1.
         11    1    3    3    0    0 -0.29964995215E+02  0.36550027673E+02 -0.90543338145E+03  0.90666609824E+03  0.00000000000E+00 0. -1.
        -12    1    3    3    0    0  0.52481426369E+02  0.60002816978E+01 -0.53036141312E+03  0.53298548950E+03  0.00000000000E+00 0.  1.
          5    1    4    4  501    0 -0.21171783654E+02 -0.21311017431E+02 -0.45050740663E+02  0.54308797826E+02  0.41800000000E+01 0. -1.
         -5    1    4    4    0  501 -0.20627875088E+02 -0.59137733076E+02 -0.10152294668E+04  0.10171681883E+04  0.41800000000E+01 0. -1.
</event>
<event>
11    1  0.9238666E-009  0.2105509E+03  0.7561462E-02  0.1047304E+00
         22   -1    0    0    0    0  0.00000000000E+00  0.00000000000E+00  0.61470860004E+03  0.61470860004E+03  0.00000000000E+00 0.  1.
         22   -1    0    0    0    0 -0.00000000000E+00 -0.00000000000E+00 -0.33016654508E+03  0.33016654508E+03  0.00000000000E+00 0. -1.
        -24    2    1    2    0    0  0.76789129597E+02 -0.13444223487E+03 -0.15057277003E+03  0.23155575798E+03  0.83514220573E+02 0.  0.
         25    2    1    2    0    0 -0.99177941707E+02  0.18417002088E+03 -0.23084750899E+02  0.24482339890E+03  0.12510287852E+03 0.  0.
         24    2    1    2    0    0  0.22388812110E+02 -0.49727786003E+02  0.45819957589E+03  0.46849598825E+03  0.81040286599E+02 0.  0.
        -13    1    5    5    0    0 -0.24450159774E+02 -0.41038991533E+02  0.27964086644E+03  0.28369177521E+03  0.00000000000E+00 0.  1.
         14    1    5    5    0    0  0.46838971884E+02 -0.86887944697E+01  0.17855870944E+03  0.18480421303E+03  0.00000000000E+00 0. -1.
         13    1    3    3    0    0  0.92303212546E+02 -0.11285336217E+03 -0.10829406432E+03  0.18161323952E+03  0.00000000000E+00 0. -1.
        -14    1    3    3    0    0 -0.15514082950E+02 -0.21588872697E+02 -0.42278705709E+02  0.49942518464E+02  0.00000000000E+00 0.  1.
          5    1    4    4  501    0 -0.94800085756E+02  0.17532995037E+03 -0.58544780736E+02  0.20778019999E+03  0.41800000000E+01 0. -1.
         -5    1    4    4    0  501 -0.43778559508E+01  0.88400705031E+01  0.35460029837E+02  0.37043198907E+02  0.41800000000E+01 0. -1.
</event>
<event>
11    1  0.9238666E-009  0.4991567E+03  0.7561462E-02  0.9395408E-01
         22   -1    0    0    0    0  0.00000000000E+00  0.00000000000E+00  0.33717766990E+03  0.33717766990E+03  0.00000000000E+00 0.  1.
         22   -1    0    0    0    0 -0.00000000000E+00 -0.00000000000E+00 -0.14203836389E+04  0.14203836389E+04  0.00000000000E+00 0. -1.
         24    2    1    2    0    0  0.68008872588E+02  0.23388151104E+03 -0.53063496865E+03  0.59003805369E+03  0.85121483106E+02 0.  0.
         25    2    1    2    0    0 -0.37189328705E+03  0.21499643150E+03 -0.39878936605E+03  0.59934130404E+03  0.12509579428E+03 0.  0.
        -24    2    1    2    0    0  0.30388441446E+03 -0.44887794254E+03 -0.15378163425E+03  0.56818195103E+03  0.73108096637E+02 0.  0.
        -11    1    3    3    0    0  0.64057599698E+02  0.21772381324E+03 -0.41314564888E+03  0.47137709121E+03  0.00000000000E+00 0.  1.
         12    1    3    3    0    0  0.39512728901E+01  0.16157697805E+02 -0.11748931977E+03  0.11866096248E+03  0.00000000000E+00 0. -1.
         11    1    5    5    0    0  0.90868758548E+02 -0.83734723650E+02 -0.46685895645E+02  0.13209166543E+03  0.00000000000E+00 0. -1.
        -12    1    5    5    0    0  0.21301565591E+03 -0.36514321889E+03 -0.10709573861E+03  0.43609028560E+03  0.00000000000E+00 0.  1.
          5    1    4    4  501    0 -0.18659358875E+03  0.14238109581E+03 -0.14172710923E+03  0.27421449579E+03  0.41800000000E+01 0.  1.
         -5    1    4    4    0  501 -0.18529969829E+03  0.72615335686E+02 -0.25706225682E+03  0.32512680825E+03  0.41800000000E+01 0.  1.
</event>
<event>
11    1  0.9238666E-009  0.1766571E+03  0.7561462E-02  0.1072379E+00
         22   -1    0    0    0    0  0.00000000000E+00  0.00000000000E+00  0.15308500377E+03  0.15308500377E+03  0.00000000000E+00 0. -1.
         22   -1    0    0    0    0 -0.00000000000E+00 -0.00000000000E+00 -0.14557776777E+04  0.14557776777E+04  0.00000000000E+00 0.  1.
         24    2    1    2    0    0  0.95532633940E+02 -0.66294887074E+02 -0.10823760872E+04  0.10914993927E+04  0.79444533926E+02 0.  0.
         25    2    1    2    0    0 -0.15319510164E+03  0.15303947877E+03 -0.27816056486E+03  0.37404681472E+03  0.12509156059E+03 0.  0.
        -24    2    1    2    0    0  0.57662467696E+02 -0.86744591697E+02  0.57843978053E+02  0.14331647411E+03  0.79649868702E+02 0.  0.
        -13    1    3    3    0    0  0.59426019803E+02 -0.65095000713E+02 -0.47894201222E+03  0.48698486837E+03  0.00000000000E+00 0.  1.
         14    1    3    3    0    0  0.36106614136E+02 -0.11998863613E+01 -0.60343407495E+03  0.60451452432E+03  0.00000000000E+00 0. -1.
         13    1    5    5    0    0  0.48976786078E+02 -0.59378675685E+02  0.76942464965E+02  0.10883333871E+03  0.00000000000E+00 0. -1.
        -14    1    5    5    0    0  0.86856816180E+01 -0.27365916012E+02 -0.19098486912E+02  0.34483135394E+02  0.00000000000E+00 0.  1.
          5    1    4    4  501    0 -0.15814093802E+03  0.16373657853E+03 -0.22746663912E+03  0.32183344721E+03  0.41800000000E+01 0.  1.
         -5    1    4    4    0  501  0.49458363797E+01 -0.10697099760E+02 -0.50693925732E+02  0.52213367511E+02  0.41800000000E+01 0.  1.
</event>
<event>
11    1  0.9238666E-009  0.2137667E+03  0.7561462E-02  0.1045194E+00
         22   -1    0    0    0    0  0.00000000000E+00  0.00000000000E+00  0.19733805924E+03  0.19733805924E+03  0.00000000000E+00 0. -1.
         22   -1    0    0    0    0 -0.00000000000E+00 -0.00000000000E+00 -0.20305956554E+04  0.20305956554E+04  0.00000000000E+00 0.  1.
         24    2    1    2    0    0 -0.38388564131E+02  0.55782634386E+00 -0.15255011944E+04  0.15280716525E+04  0.79844148456E+02 0.  0.
         25    2    1    2    0    0 -0.13685558523E+03  0.26739137335E+02 -0.43117350629E+03  0.47010882397E+03  0.12508909293E+03 0.  0.
        -24    2    1    2    0    0  0.17524414937E+03 -0.27296963679E+02  0.12341710454E+03  0.22975323817E+03  0.78096943879E+02 0.  0.
        -13    1    3    3    0    0  0.13794204684E+02 -0.25454984720E+02 -0.38912879047E+03  0.39020437197E+03  0.00000000000E+00 0.  1.
         14    1    3    3    0    0 -0.52182768815E+02  0.26012811064E+02 -0.11363724039E+04  0.11378672805E+04  0.00000000000E+00 0. -1.
         11    1    5    5    0    0  0.69702312983E+02  0.89444318149E+01  0.10597017978E+02  0.71068362059E+02  0.00000000000E+00 0. -1.
        -12    1    5    5    0    0  0.10554183638E+03 -0.36241395494E+02  0.11282008656E+03  0.15868487611E+03  0.00000000000E+00 0.  1.
          5    1    4    4  501    0 -0.13217143070E+03  0.65731158914E+02 -0.33203534686E+03  0.36339347313E+03  0.41800000000E+01 0. -1.
         -5    1    4    4    0  501 -0.46841545385E+01 -0.38992021579E+02 -0.99138159430E+02  0.10671535084E+03  0.41800000000E+01 0. -1.
</event>
<event>
11    1  0.9238666E-009  0.1927271E+03  0.7561462E-02  0.1059789E+00
         22   -1    0    0    0    0  0.00000000000E+00  0.00000000000E+00  0.73755105734E+03  0.73755105734E+03  0.00000000000E+00 0.  1.
         22   -1    0    0    0    0 -0.00000000000E+00 -0.00000000000E+00 -0.21583398578E+04  0.21583398578E+04  0.00000000000E+00 0. -1.
         24    2    1    2    0    0 -0.11417476607E+03 -0.90848965260E+02 -0.18795069335E+04  0.18869118356E+04  0.81243772750E+02 0.  0.
         25    2    1    2    0    0  0.98074828913E+02  0.12306170513E+03 -0.23532331319E+03  0.30949307874E+03  0.12508416655E+03 0.  0.
        -24    2    1    2    0    0  0.16099937158E+02 -0.32212739866E+02  0.69404144617E+03  0.69948600085E+03  0.79311208573E+02 0.  0.
        -11    1    3    3    0    0 -0.78266439845E+01  0.10455048349E+02 -0.56147203281E+02  0.57646099853E+02  0.00000000000E+00 0.  1.
         12    1    3    3    0    0 -0.10634812209E+03 -0.10130401361E+03 -0.18233597302E+04  0.18292657357E+04  0.00000000000E+00 0. -1.
         13    1    5    5    0    0  0.45269219717E+01 -0.34170228630E+02  0.10885618537E+03  0.11418304007E+03  0.00000000000E+00 0. -1.
        -14    1    5    5    0    0  0.11573015186E+02  0.19574887639E+01  0.58518526080E+03  0.58530296078E+03  0.00000000000E+00 0.  1.
          5    1    4    4  501    0  0.73078928431E+02  0.12358549650E+03 -0.24362886514E+03  0.28281867169E+03  0.41800000000E+01 0. -1.
         -5    1    4    4    0  501  0.24995900482E+02 -0.52379137064E+00  0.83055519510E+01  0.26674407051E+02  0.41800000000E+01 0. -1.
</event>
<event>
11    1  0.9238666E-009  0.1686323E+03  0.7561462E-02  0.1079228E+00
         22   -1    0    0    0    0  0.00000000000E+00  0.00000000000E+00  0.72276554026E+03  0.72276554026E+03  0.00000000000E+00 0.  1.
         22   -1    0    0    0    0 -0.00000000000E+00 -0.00000000000E+00 -0.33461311146E+03  0.33461311146E+03  0.00000000000E+00 0. -1.
        -24    2    1    2    0    0  0.11436229608E+02 -0.14254769242E+02 -0.23546206701E+03  0.24936321731E+03  0.80035263159E+02 0.  0.
         25    2    1    2    0    0 -0.11989002320E+03  0.41871500800E+02  0.88937458472E+01  0.17847426548E+03  0.12508846662E+03 0.  0.
         24    2    1    2    0    0  0.10845379359E+03 -0.27616731558E+02  0.61472074997E+03  0.62954116894E+03  0.76912767064E+02 0.  0.
        -11    1    5    5    0    0  0.10796736568E+03  0.19909698038E+00  0.48597862313E+03  0.49782749405E+03  0.00000000000E+00 0.  1.
         12    1    5    5    0    0  0.48642790977E+00 -0.27815828538E+02  0.12874212684E+03  0.13171367489E+03  0.00000000000E+00 0. -1.
         11    1    3    3    0    0  0.21861370491E+02  0.26487367340E+02 -0.15287358312E+03  0.15668386185E+03  0.00000000000E+00 0. -1.
        -12    1    3    3    0    0 -0.10425140882E+02 -0.40742136583E+02 -0.82588483891E+02  0.92679355453E+02  0.00000000000E+00 0.  1.
          5    1    4    4  501    0 -0.11904344857E+03  0.75461834362E+02 -0.67617303711E+01  0.14117019689E+03  0.41800000000E+01 0.  1.
         -5    1    4    4    0  501 -0.84657462887E+00 -0.33590333562E+02  0.15655476218E+02  0.37304068585E+02  0.41800000000E+01 0.  1.
</event>
<event>
11    1  0.9238666E-009  0.1392244E+03  0.7561462E-02  0.1108428E+00
         22   -1    0    0    0    0  0.00000000000E+00  0.00000000000E+00  0.12074726204E+04  0.12074726204E+04  0.00000000000E+00 0.  1.
         22   -1    0    0    0    0 -0.00000000000E+00 -0.00000000000E+00 -0.21255393563E+03  0.21255393563E+03  0.00000000000E+00 0. -1.
         24    2    1    2    0    0 -0.59266484068E+02  0.14825069486E+02 -0.18461042664E+03  0.21057546038E+03  0.80800470730E+02 0.  0.
         25    2    1    2    0    0  0.63771296352E+02 -0.35693115027E+00  0.37977924737E+03  0.40490335634E+03  0.12509014990E+03 0.  0.
        -24    2    1    2    0    0 -0.45048122837E+01 -0.14468138336E+02  0.79974986399E+03  0.80454773928E+03  0.86415273345E+02 0.  0.
        -11    1    3    3    0    0  0.19304024490E+02  0.11880560690E+02 -0.42095595672E+02  0.47810378149E+02  0.00000000000E+00 0.  1.
         12    1    3    3    0    0 -0.78570508558E+02  0.29445087955E+01 -0.14251483097E+03  0.16276508223E+03  0.00000000000E+00 0. -1.
         11    1    5    5    0    0  0.24727931616E+02 -0.71005857530E+01  0.77294610669E+02  0.81463769606E+02  0.00000000000E+00 0. -1.
        -12    1    5    5    0    0 -0.29232743900E+02 -0.73675525825E+01  0.72245525332E+03  0.72308396968E+03  0.00000000000E+00 0.  1.
          5    1    4    4  501    0  0.78487353031E+02 -0.43047281137E+02  0.19445013366E+03  0.21410665538E+03  0.41800000000E+01 0.  1.
         -5    1    4    4    0  501 -0.14716056680E+02  0.42690349987E+02  0.18532911371E+03  0.19079670095E+03  0.41800000000E+01 0.  1.
</event>
<event>
11    1  0.9238666E-009  0.1377579E+03  0.7561462E-02  0.1110088E+00
         22   -1    0    0    0    0  0.00000000000E+00  0.00000000000E+00  0.10039995397E+04  0.10039995397E+04  0.00000000000E+00 0.  1.
         22   -1    0    0    0    0 -0.00000000000E+00 -0.00000000000E+00 -0.13817876876E+03  0.13817876876E+03  0.00000000000E+00 0.  1.
        -24    2    1    2    0    0  0.27556090978E+02  0.44776028287E+02 -0.36786553582E+02  0.10305575547E+03  0.80641226134E+02 0.  0.
         25    2    1    2    0    0 -0.31342067896E+02 -0.62407511618E+02  0.10699885983E+02  0.14366021584E+03  0.12508695907E+03 0.  0.
         24    2    1    2    0    0  0.37859769175E+01  0.17631483331E+02  0.89190743851E+03  0.89546233713E+03  0.77644803512E+02 0.  0.
        -13    1    5    5    0    0 -0.84581901164E+01  0.31544176779E+01  0.84239849967E+03  0.84244686692E+03  0.00000000000E+00 0.  1.
         14    1    5    5    0    0  0.12244167034E+02  0.14477065653E+02  0.49508938840E+02  0.53015470208E+02  0.00000000000E+00 0. -1.
         11    1    3    3    0    0 -0.64374840293E+01  0.35167438271E+01  0.22240245962E+02  0.23418736692E+02  0.00000000000E+00 0. -1.
        -12    1    3    3    0    0  0.33993575007E+02  0.41259284460E+02 -0.59026799544E+02  0.79637018781E+02  0.00000000000E+00 0.  1.
          5    1    4    4  501    0 -0.42684987125E+02 -0.15559768734E+02  0.59474952151E+02  0.74959034561E+02  0.41800000000E+01 0. -1.
         -5    1    4    4    0  501  0.11342919230E+02 -0.46847742884E+02 -0.48775066168E+02  0.68701181283E+02  0.41800000000E+01 0. -1.
</event>
<event>
11    1  0.9238666E-009  0.2525303E+03  0.7561462E-02  0.1022560E+00
         22   -1    0    0    0    0  0.00000000000E+00  0.00000000000E+00  0.56854258472E+03  0.56854258472E+03  0.00000000000E+00 0. -1.
         22   -1    0    0    0    0 -0.00000000000E+00 -0.00000000000E+00 -0.54000871020E+03  0.54000871020E+03  0.00000000000E+00 0. -1.
         24    2    1    2    0    0 -0.58307946647E+01  0.32982322041E+02 -0.32190228357E+03  0.33370325649E+03  0.81332352032E+02 0.  0.
         25    2    1    2    0    0 -0.13040035757E+03  0.14410153188E+03 -0.11028813239E+03  0.25608698485E+03  0.12509023510E+03 0.  0.
        -24    2    1    2    0    0  0.13623115224E+03 -0.17708385392E+03  0.46072429047E+03  0.51876105358E+03  0.83237856304E+02 0.  0.
        -11    1    3    3    0    0  0.41529689245E+01  0.48715689167E+02 -0.10306320181E+03  0.11407229764E+03  0.00000000000E+00 0.  1.
         12    1    3    3    0    0 -0.99837635893E+01 -0.15733367126E+02 -0.21883908176E+03  0.21963095885E+03  0.00000000000E+00 0. -1.
         11    1    5    5    0    0  0.95130978062E+02 -0.15513734644E+03  0.29503693851E+03  0.34664721884E+03  0.00000000000E+00 0. -1.
        -12    1    5    5    0    0  0.41100174176E+02 -0.21946507488E+02  0.16568735197E+03  0.17211383475E+03  0.00000000000E+00 0.  1.
          5    1    4    4  501    0 -0.29225533647E+02 -0.13996608147E+02 -0.48413851885E+02  0.58407279605E+02  0.41800000000E+01 0.  1.
         -5    1    4    4    0  501 -0.10117482393E+03  0.15809814003E+03 -0.61874280503E+02  0.19767970524E+03  0.41800000000E+01 0.  1.
</event>
<event>
11    1  0.9238666E-009  0.2598552E+03  0.7561462E-02  0.1018776E+00
         22   -1    0    0    0    0  0.00000000000E+00  0.00000000000E+00  0.26239332174E+03  0.26239332174E+03  0.00000000000E+00 0. -1.
         22   -1    0    0    0    0 -0.00000000000E+00 -0.00000000000E+00 -0.11504209797E+04  0.11504209797E+04  0.00000000000E+00 0.  1.
        -24    2    1    2    0    0  0.50958257562E+01  0.93459679532E+02 -0.88189258067E+03  0.89054671695E+03  0.81106424483E+02 0.  0.
         25    2    1    2    0    0  0.22328910334E+03 -0.82684073807E+02 -0.55737547986E+02  0.27467651453E+03  0.12508330684E+03 0.  0.
         24    2    1    2    0    0 -0.22838492910E+03 -0.10775605725E+02  0.49602470740E+02  0.24759106992E+03  0.81025571788E+02 0.  0.
        -11    1    5    5    0    0 -0.17016523141E+02 -0.87865136237E+01 -0.17372331266E+02  0.25856580886E+02  0.00000000000E+00 0.  1.
         12    1    5    5    0    0 -0.21136840596E+03 -0.19890921012E+01  0.66974802007E+02  0.22173448903E+03  0.00000000000E+00 0. -1.
         11    1    3    3    0    0  0.24370024845E+02  0.20260474391E+02 -0.97749845357E+02  0.10275902491E+03  0.00000000000E+00 0. -1.
        -12    1    3    3    0    0 -0.19274199089E+02  0.73199205141E+02 -0.78414273531E+03  0.78778769204E+03  0.00000000000E+00 0.  1.
          5    1    4    4  501    0  0.12320311850E+03 -0.16461600361E+02 -0.85545377271E+02  0.15094858948E+03  0.41800000000E+01 0. -1.
         -5    1    4    4    0  501  0.10008598484E+03 -0.66222473446E+02  0.29807829285E+02  0.12372792505E+03  0.41800000000E+01 0. -1.
</event>
<event>
11    1  0.9238666E-009  0.1321950E+03  0.7561462E-02  0.1116601E+00
         22   -1    0    0    0    0  0.00000000000E+00  0.00000000000E+00  0.32767050049E+03  0.32767050049E+03  0.00000000000E+00 0. -1.
         22   -1    0    0    0    0 -0.00000000000E+00 -0.00000000000E+00 -0.73963254440E+03  0.73963254440E+03  0.00000000000E+00 0. -1.
         24    2    1    2    0    0  0.18915297681E+01  0.43422660507E+02 -0.68028017057E+03  0.68642219380E+03  0.80654896564E+02 0.  0.
         25    2    1    2    0    0 -0.20706226222E+02 -0.22214026936E+02  0.36505601500E+02  0.13379818621E+03  0.12508830839E+03 0.  0.
        -24    2    1    2    0    0  0.18814696454E+02 -0.21208633571E+02  0.23181252516E+03  0.24708266487E+03  0.80678358418E+02 0.  0.
        -13    1    3    3    0    0 -0.74584360360E+01  0.28893844069E+02 -0.72561489849E+02  0.78457965194E+02  0.00000000000E+00 0.  1.
         14    1    3    3    0    0  0.93499658041E+01  0.14528816438E+02 -0.60771868072E+03  0.60796422861E+03  0.00000000000E+00 0. -1.
         11    1    5    5    0    0  0.22087613099E+02 -0.13210424154E+01  0.22458266523E+03  0.22567007185E+03  0.00000000000E+00 0. -1.
        -12    1    5    5    0    0 -0.32729166451E+01 -0.19887591156E+02  0.72298599313E+01  0.21412593023E+02  0.00000000000E+00 0.  1.
          5    1    4    4  501    0 -0.25110496030E+02 -0.72503289829E+02  0.12916045316E+02  0.77920219928E+02  0.41800000000E+01 0. -1.
         -5    1    4    4    0  501  0.44042698079E+01  0.50289262894E+02  0.23589556184E+02  0.55877966282E+02  0.41800000000E+01 0. -1.
</event>
<event>
11    1  0.9238666E-009  0.1535969E+03  0.7561462E-02  0.1093259E+00
         22   -1    0    0    0    0  0.00000000000E+00  0.00000000000E+00  0.16176497332E+04  0.16176497332E+04  0.00000000000E+00 0.  1.
         22   -1    0    0    0    0 -0.00000000000E+00 -0.00000000000E+00 -0.19326060059E+03  0.19326060059E+03  0.00000000000E+00 0.  1.
         24    2    1    2    0    0 -0.55268122898E+01  0.17428725476E+02 -0.15930616383E+03  0.17936240131E+03  0.80362373301E+02 0.  0.
         25    2    1    2    0    0  0.39946046369E+02  0.66491826038E+02  0.23394399691E+03  0.27639520071E+03  0.12509062210E+03 0.  0.
        -24    2    1    2    0    0 -0.34419234079E+02 -0.83920551514E+02  0.13497512995E+04  0.13551527318E+04  0.79893761873E+02 0.  0.
        -13    1    3    3    0    0 -0.38153666138E+00  0.34370216780E+02 -0.15790356541E+03  0.16160134078E+03  0.00000000000E+00 0.  1.
         14    1    3    3    0    0 -0.51452756284E+01 -0.16941491304E+02 -0.14025984232E+01  0.17761060533E+02  0.00000000000E+00 0. -1.
         11    1    5    5    0    0 -0.22027238168E+02  0.92938864598E+01  0.17202912556E+03  0.17368245619E+03  0.00000000000E+00 0. -1.
        -12    1    5    5    0    0 -0.12391995911E+02 -0.93214437974E+02  0.11777221740E+04  0.11814702756E+04  0.00000000000E+00 0.  1.
          5    1    4    4  501    0  0.60965991580E+02 -0.33669659372E+00  0.48187947883E+02  0.77823622475E+02  0.41800000000E+01 0. -1.
         -5    1    4    4    0  501 -0.21019945212E+02  0.66828522632E+02  0.18575604902E+03  0.19857157823E+03  0.41800000000E+01 0. -1.
</event>
<event>
11    1  0.9238666E-009  0.1375683E+03  0.7561462E-02  0.1110305E+00
         22   -1    0    0    0    0  0.00000000000E+00  0.00000000000E+00  0.62884308917E+03  0.62884308917E+03  0.00000000000E+00 0.  1.
         22   -1    0    0    0    0 -0.00000000000E+00 -0.00000000000E+00 -0.15927371812E+04  0.15927371812E+04  0.00000000000E+00 0.  1.
         24    2    1    2    0    0  0.42471975751E+02 -0.42998437581E+02 -0.15268230850E+04  0.15299032431E+04  0.75910909021E+02 0.  0.
         25    2    1    2    0    0  0.15188249681E+02  0.56966846878E+02  0.20081999363E+02  0.13973977601E+03  0.12509202105E+03 0.  0.
        -24    2    1    2    0    0 -0.57660225431E+02 -0.13968409296E+02  0.54284699356E+03  0.55193725127E+03  0.80200080277E+02 0.  0.
        -11    1    3    3    0    0  0.54280987758E+02 -0.19563816742E+01 -0.86481807367E+03  0.86652210221E+03  0.00000000000E+00 0.  1.
         12    1    3    3    0    0 -0.11809012007E+02 -0.41042055907E+02 -0.66200501131E+03  0.66338114091E+03  0.00000000000E+00 0. -1.
         13    1    5    5    0    0 -0.26296546334E+02 -0.47169806527E+00  0.39630626853E+02  0.47563824835E+02  0.00000000000E+00 0. -1.
        -14    1    5    5    0    0 -0.31363679097E+02 -0.13496711231E+02  0.50321636670E+03  0.50437342644E+03  0.00000000000E+00 0.  1.
          5    1    4    4  501    0 -0.54943322531E+02  0.25695764363E+02  0.24781908998E+01  0.60849443934E+02  0.41800000000E+01 0. -1.
         -5    1    4    4    0  501  0.70131572212E+02  0.31271082514E+02  0.17603808463E+02  0.78890332075E+02  0.41800000000E+01 0. -1.
</event>
<event>
11    1  0.9238666E-009  0.1320365E+03  0.7561462E-02  0.1116792E+00
         22   -1    0    0    0    0  0.00000000000E+00  0.00000000000E+00  0.15864512325E+04  0.15864512325E+04  0.00000000000E+00 0.  1.
         22   -1    0    0    0    0 -0.00000000000E+00 -0.00000000000E+00 -0.79535185154E+03  0.79535185154E+03  0.00000000000E+00 0.  1.
        -24    2    1    2    0    0  0.33549418950E+02  0.26489697288E+01 -0.35586282857E+03  0.36634288284E+03  0.80225772062E+02 0.  0.
         25    2    1    2    0    0 -0.68500890481E+02  0.20959724825E+02 -0.42097044122E+03  0.44496731697E+03  0.12509244074E+03 0.  0.
         24    2    1    2    0    0  0.34951471531E+02 -0.23608694554E+02  0.15679326507E+04  0.15704928842E+04  0.79095678209E+02 0.  0.
        -11    1    5    5    0    0 -0.11072736132E+02 -0.16106554851E+02  0.11139757236E+04  0.11141471803E+04  0.00000000000E+00 0.  1.
         12    1    5    5    0    0  0.46024207663E+02 -0.75021397036E+01  0.45395692715E+03  0.45634570394E+03  0.00000000000E+00 0. -1.
         11    1    3    3    0    0  0.25495105797E+02 -0.89117282697E+01 -0.30756687088E+02  0.40931566315E+02  0.00000000000E+00 0. -1.
        -12    1    3    3    0    0  0.80543131526E+01  0.11560697998E+02 -0.32510614148E+03  0.32541131653E+03  0.00000000000E+00 0.  1.
          5    1    4    4  501    0 -0.69007409817E+02 -0.31432112741E+02 -0.34039763361E+03  0.34876642856E+03  0.41800000000E+01 0. -1.
         -5    1    4    4    0  501  0.50651933618E+00  0.52391837567E+02 -0.80572807602E+02  0.96200888407E+02  0.41800000000E+01 0. -1.
</event>
<event>
11    1  0.9238666E-009  0.1859592E+03  0.7561462E-02  0.1064922E+00
         22   -1    0    0    0    0  0.00000000000E+00  0.00000000000E+00  0.11382317942E+03  0.11382317942E+03  0.00000000000E+00 0. -1.
         22   -1    0    0    0    0 -0.00000000000E+00 -0.00000000000E+00 -0.19539432679E+04  0.19539432679E+04  0.00000000000E+00 0. -1.
        -24    2    1    2    0    0 -0.31093417140E+02 -0.13511442849E+03 -0.14993933999E+04  0.15079677642E+04  0.81015436131E+02 0.  0.
         25    2    1    2    0    0  0.51212576093E+02  0.12419401144E+03 -0.41062101193E+03  0.44978112564E+03  0.12508623072E+03 0.  0.
         24    2    1    2    0    0 -0.20119158953E+02  0.10920417046E+02  0.69894323384E+02  0.11001755741E+03  0.81820599074E+02 0.  0.
        -11    1    5    5    0    0  0.20132382919E+02  0.93664034522E+01 -0.69404563944E+01  0.23263969795E+02  0.00000000000E+00 0.  1.
         12    1    5    5    0    0 -0.40251541872E+02  0.15540135939E+01  0.76834779778E+02  0.86753587620E+02  0.00000000000E+00 0. -1.
         13    1    3    3    0    0 -0.40779149155E+02 -0.21612495223E+02 -0.48900342817E+03  0.49117653824E+03  0.00000000000E+00 0. -1.
        -14    1    3    3    0    0  0.96857320145E+01 -0.11350193327E+03 -0.10103899718E+04  0.10167912260E+04  0.00000000000E+00 0.  1.
          5    1    4    4  501    0  0.51856892039E+02  0.12231381770E+02 -0.23843411772E+03  0.24435025034E+03  0.41800000000E+01 0.  1.
         -5    1    4    4    0  501 -0.64431594608E+00  0.11196262967E+03 -0.17218689421E+03  0.20543087529E+03  0.41800000000E+01 0.  1.
</event>
<event>
11    1  0.9238666E-009  0.1577707E+03  0.7561462E-02  0.1089193E+00
         22   -1    0    0    0    0  0.00000000000E+00  0.00000000000E+00  0.40125884066E+03  0.40125884066E+03  0.00000000000E+00 0. -1.
         22   -1    0    0    0    0 -0.00000000000E+00 -0.00000000000E+00 -0.70902466838E+03  0.70902466838E+03  0.00000000000E+00 0.  1.
         24    2    1    2    0    0 -0.49916243593E+02 -0.86195239585E+02 -0.55104576156E+03  0.56587749038E+03  0.81514735418E+02 0.  0.
         25    2    1    2    0    0  0.19216893835E+02  0.78910136526E+02 -0.10659389145E+03  0.18330998683E+03  0.12507675613E+03 0.  0.
        -24    2    1    2    0    0  0.30699349757E+02  0.72851030583E+01  0.34987382528E+03  0.36109603182E+03  0.83565110999E+02 0.  0.
        -13    1    3    3    0    0 -0.42446651570E+02 -0.96483614885E+02 -0.37966516314E+03  0.39402594111E+03  0.00000000000E+00 0.  1.
         14    1    3    3    0    0 -0.74695920229E+01  0.10288375300E+02 -0.17138059842E+03  0.17185154927E+03  0.00000000000E+00 0. -1.
         13    1    5    5    0    0  0.51263652156E+02  0.14312750274E+02  0.31858602253E+03  0.32300134768E+03  0.00000000000E+00 0. -1.
        -14    1    5    5    0    0 -0.20564302399E+02 -0.70276472161E+01  0.31287802755E+02  0.38094684141E+02  0.00000000000E+00 0.  1.
          5    1    4    4  501    0 -0.30383334136E+02 -0.47394418221E+01 -0.74682071270E+02  0.80873317424E+02  0.41800000000E+01 0. -1.
         -5    1    4    4    0  501  0.49600227971E+02  0.83649578349E+02 -0.31911820176E+02  0.10243666941E+03  0.41800000000E+01 0. -1.
</event>
<event>
11    1  0.9238666E-009  0.3374477E+03  0.7561462E-02  0.9854804E-01
         22   -1    0    0    0    0  0.00000000000E+00  0.00000000000E+00  0.34052888119E+03  0.34052888119E+03  0.00000000000E+00 0. -1.
         22   -1    0    0    0    0 -0.00000000000E+00 -0.00000000000E+00 -0.25819626753E+04  0.25819626753E+04  0.00000000000E+00 0. -1.
         24    2    1    2    0    0  0.29442268106E+02 -0.74517632530E+02 -0.13706399156E+04  0.13756089669E+04  0.85008980666E+02 0.  0.
         25    2    1    2    0    0  0.14379829369E+03  0.33186137693E+03 -0.10923770928E+04  0.11574736986E+04  0.12509087638E+03 0.  0.
        -24    2    1    2    0    0 -0.17324056180E+03 -0.25734374439E+03  0.22158321435E+03  0.38940889093E+03  0.79385568104E+02 0.  0.
        -11    1    3    3    0    0 -0.25399707935E+02 -0.10051121269E+02 -0.53415567414E+03  0.53485367570E+03  0.00000000000E+00 0.  1.
         12    1    3    3    0    0  0.54841976041E+02 -0.64466511262E+02 -0.83648424149E+03  0.84075529119E+03  0.00000000000E+00 0. -1.
         13    1    5    5    0    0 -0.12131645046E+03 -0.20090506281E+03  0.12444097869E+03  0.26564277252E+03  0.00000000000E+00 0. -1.
        -14    1    5    5    0    0 -0.51924111334E+02 -0.56438681588E+02  0.97142235666E+02  0.12376611842E+03  0.00000000000E+00 0.  1.
          5    1    4    4  501    0  0.61723512548E+02  0.23377546422E+03 -0.56089432895E+03  0.61080330739E+03  0.41800000000E+01 0. -1.
         -5    1    4    4    0  501  0.82074781144E+02  0.98085912701E+02 -0.53148276387E+03  0.54667039125E+03  0.41800000000E+01 0. -1.
</event>
<event>
11    1  0.9238666E-009  0.1422829E+03  0.7561462E-02  0.1105036E+00
         22   -1    0    0    0    0  0.00000000000E+00  0.00000000000E+00  0.96648738640E+03  0.96648738640E+03  0.00000000000E+00 0.  1.
         22   -1    0    0    0    0 -0.00000000000E+00 -0.00000000000E+00 -0.13249230465E+03  0.13249230465E+03  0.00000000000E+00 0. -1.
        -24    2    1    2    0    0 -0.36390966920E+02  0.63256037339E+02 -0.71828665521E+02  0.12884622828E+03  0.78207190327E+02 0.  0.
         25    2    1    2    0    0  0.38992712428E+02 -0.23794844167E+02  0.11983397844E+03  0.17915003010E+03  0.12509166504E+03 0.  0.
         24    2    1    2    0    0 -0.26017455081E+01 -0.39461193172E+02  0.78598976883E+03  0.79098343268E+03  0.79441294175E+02 0.  0.
        -11    1    5    5    0    0  0.34754409965E+02 -0.19788338804E+02  0.53269182370E+03  0.53419100180E+03  0.00000000000E+00 0.  1.
         12    1    5    5    0    0 -0.37356155473E+02 -0.19672854368E+02  0.25329794513E+03  0.25679243088E+03  0.00000000000E+00 0. -1.
         11    1    3    3    0    0 -0.29352424368E+02  0.73940763682E+02 -0.80666783277E+02  0.11329576900E+03  0.00000000000E+00 0. -1.
        -12    1    3    3    0    0 -0.70385425519E+01 -0.10684726343E+02  0.88381177559E+01  0.15550459278E+02  0.00000000000E+00 0.  1.
          5    1    4    4  501    0  0.33131088106E+02 -0.68119485079E+02  0.35836780196E+02  0.83902803656E+02  0.41800000000E+01 0. -1.
         -5    1    4    4    0  501  0.58616243221E+01  0.44324640911E+02  0.83997198244E+02  0.95247226439E+02  0.41800000000E+01 0. -1.
</event>
<event>
11    1  0.9238666E-009  0.1519578E+03  0.7561462E-02  0.1094895E+00
         22   -1    0    0    0    0  0.00000000000E+00  0.00000000000E+00  0.30604778214E+03  0.30604778214E+03  0.00000000000E+00 0. -1.
         22   -1    0    0    0    0 -0.00000000000E+00 -0.00000000000E+00 -0.18778494544E+04  0.18778494544E+04  0.00000000000E+00 0. -1.
         24    2    1    2    0    0 -0.14724397012E+02  0.86282908642E+02 -0.17330083273E+04  0.17372914982E+04  0.84866595529E+02 0.  0.
         25    2    1    2    0    0 -0.24022064135E+02 -0.67880276047E+02 -0.96250826614E+02  0.17349450915E+03  0.12510528222E+03 0.  0.
        -24    2    1    2    0    0  0.38746461147E+02 -0.18402632595E+02  0.25745748158E+03  0.27311122927E+03  0.80407982135E+02 0.  0.
        -13    1    3    3    0    0  0.19487261893E+02 -0.35576416283E+01 -0.14118522480E+03  0.14256815174E+03  0.00000000000E+00 0.  1.
         14    1    3    3    0    0 -0.34211658905E+02  0.89840550271E+02 -0.15918231025E+04  0.15947233464E+04  0.00000000000E+00 0. -1.
         13    1    5    5    0    0  0.56495762524E+02  0.69052702388E+01  0.19906043595E+03  0.20703746304E+03  0.00000000000E+00 0. -1.
        -14    1    5    5    0    0 -0.17749301377E+02 -0.25307902834E+02  0.58397045634E+02  0.66073766231E+02  0.00000000000E+00 0.  1.
          5    1    4    4  501    0 -0.40120953891E+02 -0.89986427653E+02 -0.32221922607E+02  0.10374474830E+03  0.41800000000E+01 0.  1.
         -5    1    4    4    0  501  0.16098889755E+02  0.22106151605E+02 -0.64028904007E+02  0.69749760849E+02  0.41800000000E+01 0.  1.
</event>
<event>
11    1  0.9238666E-009  0.1308110E+03  0.7561462E-02  0.1118276E+00
         22   -1    0    0    0    0  0.00000000000E+00  0.00000000000E+00  0.44545444764E+03  0.44545444764E+03  0.00000000000E+00 0.  1.
         22   -1    0    0    0    0 -0.00000000000E+00 -0.00000000000E+00 -0.30390236914E+03  0.30390236914E+03  0.00000000000E+00 0. -1.
         24    2    1    2    0    0  0.30543124964E+02 -0.22270866478E+02 -0.13443421709E+03  0.16022049278E+03  0.78544087018E+02 0.  0.
         25    2    1    2    0    0 -0.45132324539E+02 -0.17975231891E+00 -0.12330382403E+03  0.18135348269E+03  0.12509313984E+03 0.  0.
        -24    2    1    2    0    0  0.14589199575E+02  0.22450618797E+02  0.39929011963E+03  0.40778284131E+03  0.78341374814E+02 0.  0.
        -11    1    3    3    0    0 -0.25896518923E+02 -0.11016361538E+01 -0.30075486189E+02  0.39703629104E+02  0.00000000000E+00 0.  1.
         12    1    3    3    0    0  0.56439643887E+02 -0.21169230324E+02 -0.10435873090E+03  0.12051686368E+03  0.00000000000E+00 0. -1.
         11    1    5    5    0    0 -0.12663775787E+02  0.37764054875E+02  0.11346006630E+03  0.12024841663E+03  0.00000000000E+00 0. -1.
        -12    1    5    5    0    0  0.27252975362E+02 -0.15313436078E+02  0.28583005333E+03  0.28753442468E+03  0.00000000000E+00 0.  1.
          5    1    4    4  501    0  0.96606456727E+01 -0.88109979659E+01 -0.12495142281E+03  0.12570319098E+03  0.41800000000E+01 0.  1.
         -5    1    4    4    0  501 -0.54792970212E+02  0.86312456470E+01  0.16475987774E+01  0.55650291713E+02  0.41800000000E+01 0.  1.
</event>
<event>
11    1  0.9238666E-009  0.1477451E+03  0.7561462E-02  0.1099205E+00
         22   -1    0    0    0    0  0.00000000000E+00  0.00000000000E+00  0.13525967165E+04  0.13525967165E+04  0.00000000000E+00 0.  1.
         22   -1    0    0    0    0 -0.00000000000E+00 -0.00000000000E+00 -0.30125257924E+03  0.30125257924E+03  0.00000000000E+00 0. -1.
         24    2    1    2    0    0 -0.60842787361E+01  0.32033393566E+02 -0.25559914044E+03  0.26993237545E+03  0.80432642455E+02 0.  0.
         25    2    1    2    0    0 -0.28659317164E+02  0.40875439900E+02  0.90580506516E+02  0.16231087618E+03  0.12509130393E+03 0.  0.
        -24    2    1    2    0    0  0.34743595900E+02 -0.72908833466E+02  0.12163627712E+04  0.12216060441E+04  0.79120922620E+02 0.  0.
        -13    1    3    3    0    0  0.27400155263E+02  0.12761578571E+02 -0.36211010314E+02  0.47168460480E+02  0.00000000000E+00 0.  1.
         14    1    3    3    0    0 -0.33484433999E+02  0.19271814995E+02 -0.21938813013E+03  0.22276391497E+03  0.00000000000E+00 0. -1.
         11    1    5    5    0    0  0.43003633533E+02 -0.66922209564E+02  0.61090598082E+03  0.61606331820E+03  0.00000000000E+00 0. -1.
        -12    1    5    5    0    0 -0.82600376331E+01 -0.59866239017E+01  0.60545679042E+03  0.60554272595E+03  0.00000000000E+00 0.  1.
          5    1    4    4  501    0 -0.68135131995E+02  0.31647718826E+02  0.15411806629E+02  0.76804755728E+02  0.41800000000E+01 0. -1.
         -5    1    4    4    0  501  0.39475814832E+02  0.92277210737E+01  0.75168699886E+02  0.85506120456E+02  0.41800000000E+01 0. -1.
</event>
<event>
11    1  0.9238666E-009  0.1496442E+03  0.7561462E-02  0.1097243E+00
         22   -1    0    0    0    0  0.00000000000E+00  0.00000000000E+00  0.14642767232E+04  0.14642767232E+04  0.00000000000E+00 0.  1.
         22   -1    0    0    0    0 -0.00000000000E+00 -0.00000000000E+00 -0.50431434205E+02  0.50431434205E+02  0.00000000000E+00 0. -1.
         24    2    1    2    0    0  0.84952773012E+02  0.26655728024E+01  0.60777709504E+02  0.13133495666E+03  0.79566713817E+02 0.  0.
         25    2    1    2    0    0 -0.69800874903E+02 -0.16799667116E+02  0.37498079974E+03  0.40176228452E+03  0.12509173489E+03 0.  0.
        -24    2    1    2    0    0 -0.15151898109E+02  0.14134094314E+02  0.97808677975E+03  0.98161091622E+03  0.80479124554E+02 0.  0.
        -13    1    3    3    0    0  0.42385704612E+02  0.11488894962E+02  0.73866929713E+02  0.85935242875E+02  0.00000000000E+00 0.  1.
         14    1    3    3    0    0  0.42567068400E+02 -0.88233221591E+01 -0.13089220208E+02  0.45399713785E+02  0.00000000000E+00 0. -1.
         13    1    5    5    0    0 -0.24970990821E+02 -0.25735338976E+02  0.27528440105E+03  0.27761008540E+03  0.00000000000E+00 0. -1.
        -14    1    5    5    0    0  0.98190927120E+01  0.39869433290E+02  0.70280237870E+03  0.70400083082E+03  0.00000000000E+00 0.  1.
          5    1    4    4  501    0 -0.31990793639E+02  0.37720334579E+02  0.28820665983E+03  0.29244962932E+03  0.41800000000E+01 0. -1.
         -5    1    4    4    0  501 -0.37810081264E+02 -0.54520001695E+02  0.86774139908E+02  0.10931265520E+03  0.41800000000E+01 0. -1.
</event>
<event>
11    1  0.9238666E-009  0.1301238E+03  0.7561462E-02  0.1119117E+00
         22   -1    0    0    0    0  0.00000000000E+00  0.00000000000E+00  0.20677696248E+04  0.20677696248E+04  0.00000000000E+00 0.  1.
         22   -1    0    0    0    0 -0.00000000000E+00 -0.00000000000E+00 -0.46646667549E+03  0.46646667549E+03  0.00000000000E+00 0.  1.
         24    2    1    2    0    0 -0.15862275692E+02  0.14359448718E+02 -0.45315409438E+03  0.45996553823E+03  0.75906900564E+02 0.  0.
         25    2    1    2    0    0  0.27000494384E+02  0.20937240535E+02  0.48538924144E+03  0.50241055218E+03  0.12508498110E+03 0.  0.
        -24    2    1    2    0    0 -0.11138218692E+02 -0.35296689253E+02  0.15690678023E+04  0.15718602099E+04  0.86028106642E+02 0.  0.
        -13    1    3    3    0    0 -0.32586529153E+02  0.29423510343E+02 -0.39772093072E+03  0.40013693103E+03  0.00000000000E+00 0.  1.
         14    1    3    3    0    0  0.16724253462E+02 -0.15064061625E+02 -0.55433163657E+02  0.59828607200E+02  0.00000000000E+00 0. -1.
         13    1    5    5    0    0  0.80693984068E+01 -0.14275408425E+01  0.12964501885E+04  0.12964760871E+04  0.00000000000E+00 0. -1.
        -14    1    5    5    0    0 -0.19207617099E+02 -0.33869148410E+02  0.27261761376E+03  0.27538412282E+03  0.00000000000E+00 0.  1.
          5    1    4    4  501    0  0.33116649600E+02  0.12829934318E+02  0.29414016530E+02  0.46303093458E+02  0.41800000000E+01 0.  1.
         -5    1    4    4    0  501 -0.61161552167E+01  0.81073062163E+01  0.45597522491E+03  0.45610745872E+03  0.41800000000E+01 0.  1.
</event>
<event>
11    1  0.9238666E-009  0.1837934E+03  0.7561462E-02  0.1066615E+00
         22   -1    0    0    0    0  0.00000000000E+00  0.00000000000E+00  0.71562245031E+03  0.71562245031E+03  0.00000000000E+00 0.  1.
         22   -1    0    0    0    0 -0.00000000000E+00 -0.00000000000E+00 -0.14134672422E+04  0.14134672422E+04  0.00000000000E+00 0.  1.
         24    2    1    2    0    0  0.70786620187E+02 -0.11429667001E+03 -0.13213137720E+04  0.13302219327E+04  0.74470340432E+02 0.  0.
         25    2    1    2    0    0 -0.18166272189E+03  0.53426200132E+02  0.88992985561E+02  0.24376965765E+03  0.12509273010E+03 0.  0.
        -24    2    1    2    0    0  0.11087610171E+03  0.60870469873E+02  0.53447599463E+03  0.55509810215E+03  0.80439978540E+02 0.  0.
        -11    1    3    3    0    0  0.76233538751E+02 -0.11877701665E+03 -0.11302334750E+04  0.11390115189E+04  0.00000000000E+00 0.  1.
         12    1    3    3    0    0 -0.54469185642E+01  0.44803466423E+01 -0.19108029705E+03  0.19121041381E+03  0.00000000000E+00 0. -1.
         11    1    5    5    0    0  0.20743441479E+02 -0.13443330310E+02  0.40088750565E+02  0.47096936377E+02  0.00000000000E+00 0. -1.
        -12    1    5    5    0    0  0.90132660226E+02  0.74313800183E+02  0.49438724406E+03  0.50800116578E+03  0.00000000000E+00 0.  1.
          5    1    4    4  501    0 -0.12694993051E+03  0.14275929728E+02 -0.52209624448E+01  0.12792504788E+03  0.41800000000E+01 0. -1.
         -5    1    4    4    0  501 -0.54712791385E+02  0.39150270404E+02  0.94213948005E+02  0.11584460977E+03  0.41800000000E+01 0. -1.
</event>
<event>
11    1  0.9238666E-009  0.1298129E+03  0.7561462E-02  0.1119499E+00
         22   -1    0    0    0    0  0.00000000000E+00  0.00000000000E+00  0.27184106886E+04  0.27184106886E+04  0.00000000000E+00 0. -1.
         22   -1    0    0    0    0 -0.00000000000E+00 -0.00000000000E+00 -0.13332731885E+03  0.13332731885E+03  0.00000000000E+00 0. -1.
        -24    2    1    2    0    0  0.34224469324E+02 -0.50014153037E+01 -0.94656069829E+02  0.12814347277E+03  0.79149539493E+02 0.  0.
         25    2    1    2    0    0 -0.38338751127E+02 -0.21011934116E+02  0.18571708230E+03  0.22814858197E+03  0.12509827970E+03 0.  0.
         24    2    1    2    0    0  0.41142818036E+01  0.26013349419E+02  0.24940223572E+04  0.24954459527E+04  0.80058495272E+02 0.  0.
        -11    1    5    5    0    0 -0.22958686497E+01  0.16833870036E+02  0.10258343651E+03  0.10398082342E+03  0.00000000000E+00 0.  1.
         12    1    5    5    0    0  0.64101504533E+01  0.91794793835E+01  0.23914389207E+04  0.23914651293E+04  0.00000000000E+00 0. -1.
         11    1    3    3    0    0  0.98010235864E+01  0.18360477633E+02 -0.91907099984E+02  0.94234188221E+02  0.00000000000E+00 0. -1.
        -12    1    3    3    0    0  0.24423445737E+02 -0.23361892936E+02 -0.27489698449E+01  0.33909284547E+02  0.00000000000E+00 0.  1.
          5    1    4    4  501    0 -0.58977068924E+02 -0.19560795960E+02  0.19528446147E+03  0.20497417566E+03  0.41800000000E+01 0.  1.
         -5    1    4    4    0  501  0.20638317797E+02 -0.14511381552E+01 -0.95673791693E+01  0.23174406305E+02  0.41800000000E+01 0.  1.
</event>
<event>
11    1  0.9238666E-009  0.1866203E+03  0.7561462E-02  0.1064410E+00
         22   -1    0    0    0    0  0.00000000000E+00  0.00000000000E+00  0.15661573783E+03  0.15661573783E+03  0.00000000000E+00 0.  1.
         22   -1    0    0    0    0 -0.00000000000E+00 -0.00000000000E+00 -0.44530829716E+03  0.44530829716E+03  0.00000000000E+00 0. -1.
        -24    2    1    2    0    0 -0.61503297965E+01  0.14829026067E+03 -0.20898587020E+03  0.26872530289E+03  0.80686842216E+02 0.  0.
         25    2    1    2    0    0  0.10082868005E+03 -0.99098685832E+02 -0.36905181045E+02  0.19234824401E+03  0.12509549285E+03 0.  0.
         24    2    1    2    0    0 -0.94678350251E+02 -0.49191574835E+02 -0.42801508078E+02  0.14085048808E+03  0.81382368225E+02 0.  0.
        -13    1    5    5    0    0 -0.53203525134E+02 -0.17529193113E+02  0.19746570810E+02  0.59395410232E+02  0.00000000000E+00 0.  1.
         14    1    5    5    0    0 -0.41474825117E+02 -0.31662381722E+02 -0.62548078888E+02  0.81455077849E+02  0.00000000000E+00 0. -1.
         13    1    3    3    0    0 -0.35866258475E+01  0.10126237152E+03 -0.73192564773E+02  0.12499633318E+03  0.00000000000E+00 0. -1.
        -14    1    3    3    0    0 -0.25637039490E+01  0.47027889147E+02 -0.13579330543E+03  0.14372896971E+03  0.00000000000E+00 0.  1.
          5    1    4    4  501    0  0.12499180785E+03 -0.71915282421E+02 -0.51151442017E+02  0.15306437305E+03  0.41800000000E+01 0. -1.
         -5    1    4    4    0  501 -0.24163127804E+02 -0.27183403410E+02  0.14246260972E+02  0.39283870964E+02  0.41800000000E+01 0. -1.
</event>
<event>
11    1  0.9238666E-009  0.1912735E+03  0.7561462E-02  0.1060872E+00
         22   -1    0    0    0    0  0.00000000000E+00  0.00000000000E+00  0.16951326088E+04  0.16951326088E+04  0.00000000000E+00 0.  1.
         22   -1    0    0    0    0 -0.00000000000E+00 -0.00000000000E+00 -0.30603147815E+03  0.30603147815E+03  0.00000000000E+00 0. -1.
        -24    2    1    2    0    0 -0.33377868530E+02  0.27728536150E+02 -0.25199240750E+03  0.26792648572E+03  0.80009215042E+02 0.  0.
         25    2    1    2    0    0 -0.34672284499E+02 -0.15435024973E+03  0.20456258537E+03  0.28726255959E+03  0.12509100650E+03 0.  0.
         24    2    1    2    0    0  0.68050153029E+02  0.12662171358E+03  0.14365309528E+04  0.14459750416E+04  0.80986178085E+02 0.  0.
        -13    1    5    5    0    0  0.18475434271E+02  0.10022636090E+03  0.71010845104E+03  0.71738460907E+03  0.00000000000E+00 0.  1.
         14    1    5    5    0    0  0.49574718758E+02  0.26395352678E+02  0.72642250175E+03  0.72859043257E+03  0.00000000000E+00 0. -1.
         13    1    3    3    0    0 -0.35928059226E+02  0.53869662626E+02 -0.17845836424E+03  0.18984244456E+03  0.00000000000E+00 0. -1.
        -14    1    3    3    0    0  0.25501906958E+01 -0.26141126476E+02 -0.73534043259E+02  0.78084041161E+02  0.00000000000E+00 0.  1.
          5    1    4    4  501    0 -0.68564996641E+02 -0.13313910409E+03  0.19506106886E+03  0.24595420872E+03  0.41800000000E+01 0. -1.
         -5    1    4    4    0  501  0.33892712141E+02 -0.21211145641E+02  0.95015165037E+01  0.41308350870E+02  0.41800000000E+01 0. -1.
</event>
<event>
11    1  0.9238666E-009  0.1340233E+03  0.7561462E-02  0.1114422E+00
         22   -1    0    0    0    0  0.00000000000E+00  0.00000000000E+00  0.27898929306E+03  0.27898929306E+03  0.00000000000E+00 0.  1.
         22   -1    0    0    0    0 -0.00000000000E+00 -0.00000000000E+00 -0.40979625789E+03  0.40979625789E+03  0.00000000000E+00 0.  1.
        -24    2    1    2    0    0  0.12960770872E+02 -0.21897782605E+02 -0.32396832941E+03  0.33469460021E+03  0.80109315826E+02 0.  0.
         25    2    1    2    0    0  0.16576034436E+02 -0.19617595503E+02 -0.14252902921E+02  0.12850137358E+03  0.12509933173E+03 0.  0.
         24    2    1    2    0    0 -0.29536805308E+02  0.41515378108E+02  0.20741426751E+03  0.22558957715E+03  0.72622513505E+02 0.  0.
        -11    1    5    5    0    0 -0.24004807316E+02  0.46626418103E+02  0.21087691594E+03  0.21730008587E+03  0.00000000000E+00 0.  1.
         12    1    5    5    0    0 -0.55319979919E+01 -0.51110399943E+01 -0.34626484374E+01  0.82894912875E+01  0.00000000000E+00 0. -1.
         13    1    3    3    0    0 -0.23645014566E+02 -0.17138420109E+02 -0.47400893317E+02  0.55674561919E+02  0.00000000000E+00 0. -1.
        -14    1    3    3    0    0  0.36605785437E+02 -0.47593624967E+01 -0.27656743610E+03  0.27902003829E+03  0.00000000000E+00 0.  1.
          5    1    4    4  501    0  0.34850798472E+02 -0.59872395210E+02  0.20216383262E+02  0.72287318491E+02  0.41800000000E+01 0.  1.
         -5    1    4    4    0  501 -0.18274764036E+02  0.40254799707E+02 -0.34469286183E+02  0.56214055094E+02  0.41800000000E+01 0.  1.
</event>
<event>
11    1  0.9238666E-009  0.1459427E+03  0.7561462E-02  0.1101098E+00
         22   -1    0    0    0    0  0.00000000000E+00  0.00000000000E+00  0.25395305763E+03  0.25395305763E+03  0.00000000000E+00 0. -1.
         22   -1    0    0    0    0 -0.00000000000E+00 -0.00000000000E+00 -0.94791563222E+03  0.94791563222E+03  0.00000000000E+00 0. -1.
        -24    2    1    2    0    0  0.12362783033E+02 -0.13793085063E+02 -0.86007456108E+03  0.86415813969E+03  0.81841017667E+02 0.  0.
         25    2    1    2    0    0 -0.52080968058E+02  0.73227834201E+02  0.17979881115E+02  0.15506827260E+03  0.12509256616E+03 0.  0.
         24    2    1    2    0    0  0.39718185025E+02 -0.59434749138E+02  0.14813210537E+03  0.18264227756E+03  0.79404390846E+02 0.  0.
        -13    1    5    5    0    0  0.36493835670E+01 -0.19189915255E+02 -0.50755464842E+01  0.20182468135E+02  0.00000000000E+00 0.  1.
         14    1    5    5    0    0  0.36068801458E+02 -0.40244833883E+02  0.15320765186E+03  0.16245980943E+03  0.00000000000E+00 0. -1.
         13    1    3    3    0    0  0.38816612350E+01  0.34360733535E+02 -0.31367661975E+03  0.31557685131E+03  0.00000000000E+00 0. -1.
        -14    1    3    3    0    0  0.84811217982E+01 -0.48153818598E+02 -0.54639794133E+03  0.54858128838E+03  0.00000000000E+00 0.  1.
          5    1    4    4  501    0 -0.82877533628E+02  0.23281600313E+02  0.36206370589E+02  0.93483111654E+02  0.41800000000E+01 0.  1.
         -5    1    4    4    0  501  0.30796565569E+02  0.49946233888E+02 -0.18226489474E+02  0.61585160948E+02  0.41800000000E+01 0.  1.
</event>
<event>
11    1  0.9238666E-009  0.1372943E+03  0.7561462E-02  0.1110618E+00
         22   -1    0    0    0    0  0.00000000000E+00  0.00000000000E+00  0.70321645559E+03  0.70321645559E+03  0.00000000000E+00 0.  1.
         22   -1    0    0    0    0 -0.00000000000E+00 -0.00000000000E+00 -0.52848628714E+03  0.52848628714E+03  0.00000000000E+00 0. -1.
         24    2    1    2    0    0  0.29521400850E+02  0.46927603932E+02 -0.48500661156E+03  0.49489899947E+03  0.81362726734E+02 0.  0.
         25    2    1    2    0    0 -0.45711255049E+02 -0.89037878226E+02  0.15222375583E+03  0.22099149600E+03  0.12509159392E+03 0.  0.
        -24    2    1    2    0    0  0.16189854199E+02  0.42110274294E+02  0.50751302418E+03  0.51581224726E+03  0.80358062023E+02 0.  0.
        -13    1    3    3    0    0  0.29311940572E+02  0.23512961840E+02 -0.71883265550E+02  0.81112595204E+02  0.00000000000E+00 0.  1.
         14    1    3    3    0    0  0.20946027830E+00  0.23414642093E+02 -0.41312334601E+03  0.41378640427E+03  0.00000000000E+00 0. -1.
         11    1    5    5    0    0 -0.22075394434E+02  0.15117892232E+02  0.58083135130E+02  0.63949388515E+02  0.00000000000E+00 0. -1.
        -12    1    5    5    0    0  0.38265248633E+02  0.26992382062E+02  0.44942988905E+03  0.45186285874E+03  0.00000000000E+00 0.  1.
          5    1    4    4  501    0 -0.45833901393E+02 -0.10366168840E+03  0.61536552412E+02  0.12903763730E+03  0.41800000000E+01 0.  1.
         -5    1    4    4    0  501  0.12264634385E+00  0.14623810171E+02  0.90687203418E+02  0.91953858700E+02  0.41800000000E+01 0.  1.
</event>
<event>
11    1  0.9238666E-009  0.1308018E+03  0.7561462E-02  0.1118288E+00
         22   -1    0    0    0    0  0.00000000000E+00  0.00000000000E+00  0.91181967549E+03  0.91181967549E+03  0.00000000000E+00 0. -1.
         22   -1    0    0    0    0 -0.00000000000E+00 -0.00000000000E+00 -0.62033340412E+03  0.62033340412E+03  0.00000000000E+00 0.  1.
         24    2    1    2    0    0  0.10176776002E+02 -0.36328387292E+02 -0.59335826816E+03  0.60053184860E+03  0.84505315153E+02 0.  0.
         25    2    1    2    0    0 -0.88165376541E+01  0.75176542536E+02  0.23899038554E+03  0.28016613696E+03  0.12508963200E+03 0.  0.
        -24    2    1    2    0    0 -0.13602383483E+01 -0.38848155243E+02  0.64585415399E+03  0.65145509405E+03  0.75862519957E+02 0.  0.
        -11    1    3    3    0    0  0.46779457256E+02 -0.15340406068E+02 -0.36542250340E+03  0.36872381490E+03  0.00000000000E+00 0.  1.
         12    1    3    3    0    0 -0.36602681254E+02 -0.20987981225E+02 -0.22793576476E+03  0.23180803370E+03  0.00000000000E+00 0. -1.
         11    1    5    5    0    0 -0.33104527903E+02 -0.13321481625E+02  0.44983472992E+03  0.45124788740E+03  0.00000000000E+00 0. -1.
        -12    1    5    5    0    0  0.31744289555E+02 -0.25526673619E+02  0.19601942407E+03  0.20020720666E+03  0.00000000000E+00 0.  1.
          5    1    4    4  501    0  0.33418981787E+02  0.50763118276E+02  0.34739528900E+02  0.70128665958E+02  0.41800000000E+01 0. -1.
         -5    1    4    4    0  501 -0.42235519441E+02  0.24413424260E+02  0.20425085664E+03  0.21003747100E+03  0.41800000000E+01 0. -1.
</event>
<event>
11    1  0.9238666E-009  0.1986370E+03  0.7561462E-02  0.1055492E+00
         22   -1    0    0    0    0  0.00000000000E+00  0.00000000000E+00  0.12657170458E+04  0.12657170458E+04  0.00000000000E+00 0.  1.
         22   -1    0    0    0    0 -0.00000000000E+00 -0.00000000000E+00 -0.51863444460E+03  0.51863444460E+03  0.00000000000E+00 0. -1.
        -24    2    1    2    0    0  0.49400552463E+01 -0.10861783717E+03 -0.46061653359E+03  0.47989428409E+03  0.79427288678E+02 0.  0.
         25    2    1    2    0    0  0.14454702230E+03  0.13190166869E+03  0.29327955811E+03  0.37411713019E+03  0.12513527096E+03 0.  0.
         24    2    1    2    0    0 -0.14948707755E+03 -0.23283831516E+02  0.91441957667E+03  0.93034007611E+03  0.80504483420E+02 0.  0.
        -11    1    5    5    0    0 -0.39821587977E+02  0.18208253541E+02  0.41677640891E+03  0.41907024994E+03  0.00000000000E+00 0.  1.
         12    1    5    5    0    0 -0.10966548957E+03 -0.41492085057E+02  0.49764316777E+03  0.51126982617E+03  0.00000000000E+00 0. -1.
         11    1    3    3    0    0  0.21284173165E+02 -0.10419311478E+03 -0.44248904550E+03  0.45508875681E+03  0.00000000000E+00 0. -1.
        -12    1    3    3    0    0 -0.16344117919E+02 -0.44247223965E+01 -0.18127488096E+02  0.24805527277E+02  0.00000000000E+00 0.  1.
          5    1    4    4  501    0  0.15646871691E+03  0.74245728804E+02  0.21735814642E+03  0.27795129759E+03  0.41800000000E+01 0.  1.
         -5    1    4    4    0  501 -0.11921694612E+02  0.57655939886E+02  0.75921411697E+02  0.96165832605E+02  0.41800000000E+01 0. -1.
</event>
<event>
11    1  0.9238666E-009  0.2052466E+03  0.7561462E-02  0.1050874E+00
         22   -1    0    0    0    0  0.00000000000E+00  0.00000000000E+00  0.18861170401E+04  0.18861170401E+04  0.00000000000E+00 0.  1.
         22   -1    0    0    0    0 -0.00000000000E+00 -0.00000000000E+00 -0.85481174481E+03  0.85481174481E+03  0.00000000000E+00 0. -1.
         24    2    1    2    0    0 -0.51681218652E+02  0.48013881936E+01 -0.74574826887E+03  0.75174340583E+03  0.79269577982E+02 0.  0.
         25    2    1    2    0    0  0.11655613769E+03 -0.15281402180E+03  0.28231066967E+02  0.23104534778E+03  0.12508997201E+03 0.  0.
        -24    2    1    2    0    0 -0.64874919035E+02  0.14801263361E+03  0.17488224972E+04  0.17581400313E+04  0.80992272083E+02 0.  0.
        -13    1    3    3    0    0  0.18376147667E+02 -0.12504695744E+02 -0.14928499839E+03  0.15093064951E+03  0.00000000000E+00 0.  1.
         14    1    3    3    0    0 -0.70057366319E+02  0.17306083938E+02 -0.59646327049E+03  0.60081275632E+03  0.00000000000E+00 0. -1.
         13    1    5    5    0    0  0.13391829244E+02  0.10092295349E+02  0.76540195896E+02  0.78355581191E+02  0.00000000000E+00 0. -1.
        -14    1    5    5    0    0 -0.78266748280E+02  0.13792033826E+03  0.16722823013E+04  0.16797844501E+04  0.00000000000E+00 0.  1.
          5    1    4    4  501    0 -0.61820119789E+01  0.75348167007E+01  0.27063431808E+02  0.29067034181E+02  0.41800000000E+01 0.  1.
         -5    1    4    4    0  501  0.12273814967E+03 -0.16034883850E+03  0.11676351589E+01  0.20197831360E+03  0.41800000000E+01 0.  1.
</event>
<event>
11    1  0.9238666E-009  0.1547985E+03  0.7561462E-02  0.1092074E+00
         22   -1    0    0    0    0  0.00000000000E+00  0.00000000000E+00  0.10951866247E+04  0.10951866247E+04  0.00000000000E+00 0.  1.
         22   -1    0    0    0    0 -0.00000000000E+00 -0.00000000000E+00 -0.52756077703E+03  0.52756077703E+03  0.00000000000E+00 0. -1.
        -24    2    1    2    0    0  0.78057641104E+02 -0.48941870398E+02 -0.45996270704E+03  0.47615688942E+03  0.81678574046E+02 0.  0.
         25    2    1    2    0    0 -0.69952845113E+02  0.39098506491E+02  0.37721299543E+02  0.15327253570E+03  0.12508988773E+03 0.  0.
         24    2    1    2    0    0 -0.81047959911E+01  0.98433639075E+01  0.98986725512E+03  0.99331797656E+03  0.81736407236E+02 0.  0.
        -11    1    5    5    0    0 -0.15455678936E+02  0.57785421342E+01  0.98087112741E+03  0.98100990726E+03  0.00000000000E+00 0.  1.
         12    1    5    5    0    0  0.73508829452E+01  0.40648217733E+01  0.89961277187E+01  0.12308069307E+02  0.00000000000E+00 0. -1.
         13    1    3    3    0    0  0.49409471015E+02  0.82182151377E+01 -0.29527684003E+03  0.29949498684E+03  0.00000000000E+00 0. -1.
        -14    1    3    3    0    0  0.28648170090E+02 -0.57160085536E+02 -0.16468586701E+03  0.17666190257E+03  0.00000000000E+00 0.  1.
          5    1    4    4  501    0 -0.20232135446E+02 -0.34043883130E+02 -0.22928666436E+02  0.45951294082E+02  0.41800000000E+01 0.  1.
         -5    1    4    4    0  501 -0.49720709667E+02  0.73142389621E+02  0.60649965979E+02  0.10732124162E+03  0.41800000000E+01 0.  1.
</event>
<event>
11    1  0.9238666E-009  0.1496646E+03  0.7561462E-02  0.1097222E+00
         22   -1    0    0    0    0  0.00000000000E+00  0.00000000000E+00  0.23364798511E+03  0.23364798511E+03  0.00000000000E+00 0. -1.
         22   -1    0    0    0    0 -0.00000000000E+00 -0.00000000000E+00 -0.14095967584E+04  0.14095967584E+04  0.00000000000E+00 0. -1.
         24    2    1    2    0    0 -0.72562620158E+02  0.38366671387E+02 -0.13334019749E+04  0.13383321291E+04  0.80216742253E+02 0.  0.
         25    2    1    2    0    0  0.66672095481E+02 -0.57335111221E+02  0.36975995037E+02  0.15731103669E+03  0.12508818793E+03 0.  0.
        -24    2    1    2    0    0  0.58905246768E+01  0.18968439835E+02  0.12047720662E+03  0.14760157771E+03  0.82927489018E+02 0.  0.
        -13    1    3    3    0    0 -0.71584091086E+02 -0.29962330704E+01 -0.72763929639E+03  0.73115812596E+03  0.00000000000E+00 0.  1.
         14    1    3    3    0    0 -0.97852907149E+00  0.41362904457E+02 -0.60576267852E+03  0.60717400313E+03  0.00000000000E+00 0. -1.
         11    1    5    5    0    0 -0.84406678636E+01  0.41885613129E+02  0.27588819383E+02  0.50860519228E+02  0.00000000000E+00 0. -1.
        -12    1    5    5    0    0  0.14331192540E+02 -0.22917173294E+02  0.92888387240E+02  0.96741058478E+02  0.00000000000E+00 0.  1.
          5    1    4    4  501    0  0.82332335314E+02 -0.77931926314E+01 -0.14484085174E+02  0.84063121599E+02  0.41800000000E+01 0. -1.
         -5    1    4    4    0  501 -0.15660239833E+02 -0.49541918590E+02  0.51460080211E+02  0.73247915087E+02  0.41800000000E+01 0. -1.
</event>
<event>
11    1  0.9238666E-009  0.2829029E+03  0.7561462E-02  0.1007698E+00
         22   -1    0    0    0    0  0.00000000000E+00  0.00000000000E+00  0.33724575447E+03  0.33724575447E+03  0.00000000000E+00 0. -1.
         22   -1    0    0    0    0 -0.00000000000E+00 -0.00000000000E+00 -0.13959682895E+04  0.13959682895E+04  0.00000000000E+00 0.  1.
         24    2    1    2    0    0  0.10743096324E+03  0.33415595705E+02 -0.88890023982E+03  0.89934768195E+03  0.77618314678E+02 0.  0.
         25    2    1    2    0    0  0.13748211544E+03 -0.13333861723E+03 -0.40888111244E+03  0.46852085685E+03  0.12509000873E+03 0.  0.
        -24    2    1    2    0    0 -0.24491307867E+03  0.99923021524E+02  0.23905881727E+03  0.36534550514E+03  0.79757091715E+02 0.  0.
        -11    1    3    3    0    0  0.78630324573E+02 -0.13596986948E+02 -0.59424872069E+03  0.59958247809E+03  0.00000000000E+00 0.  1.
         12    1    3    3    0    0  0.28800638666E+02  0.47012582653E+02 -0.29465151914E+03  0.29976520386E+03  0.00000000000E+00 0. -1.
         13    1    5    5    0    0 -0.22145937001E+03  0.62394658874E+02  0.21535331486E+03  0.31514186685E+03  0.00000000000E+00 0. -1.
        -14    1    5    5    0    0 -0.23453708665E+02  0.37528362650E+02  0.23705502404E+02  0.50203638290E+02  0.00000000000E+00 0.  1.
          5    1    4    4  501    0 -0.25527117190E+01 -0.67787663907E+02 -0.79231928121E+02  0.10438800002E+03  0.41800000000E+01 0.  1.
         -5    1    4    4    0  501  0.14003482716E+03 -0.65550953321E+02 -0.32964918432E+03  0.36413285683E+03  0.41800000000E+01 0.  1.
</event>
<event>
11    1  0.9238666E-009  0.1468646E+03  0.7561462E-02  0.1100126E+00
         22   -1    0    0    0    0  0.00000000000E+00  0.00000000000E+00  0.61577502750E+03  0.61577502750E+03  0.00000000000E+00 0. -1.
         22   -1    0    0    0    0 -0.00000000000E+00 -0.00000000000E+00 -0.31293648771E+03  0.31293648771E+03  0.00000000000E+00 0.  1.
        -24    2    1    2    0    0  0.38861525677E+02 -0.11459763851E+01 -0.24803817443E+03  0.26302763297E+03  0.78415995106E+02 0.  0.
         25    2    1    2    0    0  0.38597809937E+02 -0.23251874529E+02  0.35744563825E+02  0.13764488816E+03  0.12505199236E+03 0.  0.
         24    2    1    2    0    0 -0.77459335614E+02  0.24397850914E+02  0.51513215040E+03  0.52803899408E+03  0.82878483906E+02 0.  0.
        -13    1    5    5    0    0  0.15470607419E+01 -0.22695217011E+02  0.73884696653E+02  0.77307274378E+02  0.00000000000E+00 0.  1.
         14    1    5    5    0    0 -0.79006396356E+02  0.47093067925E+02  0.44124745374E+03  0.45073171970E+03  0.00000000000E+00 0. -1.
         13    1    3    3    0    0 -0.16071333295E+02 -0.12872100737E+00 -0.10452280346E+02  0.19171710602E+02  0.00000000000E+00 0. -1.
        -14    1    3    3    0    0  0.54932858972E+02 -0.10172553777E+01 -0.23758589409E+03  0.24385592236E+03  0.00000000000E+00 0.  1.
          5    1    4    4  501    0  0.27646357077E+01 -0.60599783691E+02 -0.17497103554E+02  0.63273991709E+02  0.41800000000E+01 0.  1.
         -5    1    4    4    0  501  0.35833174229E+02  0.37347909162E+02  0.53241667379E+02  0.74370896454E+02  0.41800000000E+01 0.  1.
</event>
<event>
11    1  0.9238666E-009  0.1425004E+03  0.7561462E-02  0.1104798E+00
         22   -1    0    0    0    0  0.00000000000E+00  0.00000000000E+00  0.19651172343E+04  0.19651172343E+04  0.00000000000E+00 0. -1.
         22   -1    0    0    0    0 -0.00000000000E+00 -0.00000000000E+00 -0.65039180511E+03  0.65039180511E+03  0.00000000000E+00 0.  1.
         24    2    1    2    0    0  0.23461892770E+02  0.67510926366E+02 -0.57413943096E+03  0.58584652332E+03  0.92042800455E+02 0.  0.
         25    2    1    2    0    0 -0.38388860706E+01 -0.34981537719E+02 -0.84834093461E+01  0.13024404467E+03  0.12511234116E+03 0.  0.
        -24    2    1    2    0    0 -0.19623006700E+02 -0.32529388647E+02  0.18973482694E+04  0.18994184714E+04  0.80105245272E+02 0.  0.
        -11    1    3    3    0    0  0.33006090203E+02  0.81319849346E+02 -0.34131406065E+03  0.35241680988E+03  0.00000000000E+00 0.  1.
         12    1    3    3    0    0 -0.95441974326E+01 -0.13808922980E+02 -0.23282537031E+03  0.23342971344E+03  0.00000000000E+00 0. -1.
         13    1    5    5    0    0 -0.38446859550E+02 -0.49537960062E+02  0.12472008042E+04  0.12487762076E+04  0.00000000000E+00 0. -1.
        -14    1    5    5    0    0  0.18823852851E+02  0.17008571414E+02  0.65014746520E+03  0.65064226381E+03  0.00000000000E+00 0.  1.
          5    1    4    4  501    0 -0.46366917699E+02 -0.30527877804E+02  0.37646216148E+02  0.67205300166E+02  0.41800000000E+01 0.  1.
         -5    1    4    4    0  501  0.42528031628E+02 -0.44536599143E+01 -0.46129625494E+02  0.63038744507E+02  0.41800000000E+01 0.  1.
</event>
<event>
11    1  0.9238666E-009  0.1266216E+03  0.7561462E-02  0.1123491E+00
         22   -1    0    0    0    0  0.00000000000E+00  0.00000000000E+00  0.14230065836E+04  0.14230065836E+04  0.00000000000E+00 0. -1.
         22   -1    0    0    0    0 -0.00000000000E+00 -0.00000000000E+00 -0.13056226463E+03  0.13056226463E+03  0.00000000000E+00 0. -1.
         24    2    1    2    0    0 -0.74146225824E+01 -0.17149331724E+02 -0.89144365348E+02  0.12246877809E+03  0.81870675628E+02 0.  0.
         25    2    1    2    0    0  0.11063826903E+02  0.27639449767E+02  0.15318187773E+03  0.19999596719E+03  0.12508937516E+03 0.  0.
        -24    2    1    2    0    0 -0.36492043205E+01 -0.10490118043E+02  0.12284068065E+04  0.12311041029E+04  0.80688726239E+02 0.  0.
        -11    1    3    3    0    0 -0.13914510624E+02 -0.42058492665E+02 -0.19844897991E+02  0.48542253630E+02  0.00000000000E+00 0.  1.
         12    1    3    3    0    0  0.64998880420E+01  0.24909160941E+02 -0.69299467356E+02  0.73926524464E+02  0.00000000000E+00 0. -1.
         11    1    5    5    0    0  0.32779589736E+02  0.68162782991E+00  0.88177539160E+03  0.88238472752E+03  0.00000000000E+00 0. -1.
        -12    1    5    5    0    0 -0.36428794056E+02 -0.11171745873E+02  0.34663141494E+03  0.34871937538E+03  0.00000000000E+00 0.  1.
          5    1    4    4  501    0 -0.36073269664E+02 -0.28410849174E+02  0.25362785497E+02  0.52623192826E+02  0.41800000000E+01 0.  1.
         -5    1    4    4    0  501  0.47137096567E+02  0.56050298941E+02  0.12781909223E+03  0.14737277436E+03  0.41800000000E+01 0.  1.
</event>
<event>
11    1  0.9238666E-009  0.1644365E+03  0.7561462E-02  0.1082977E+00
         22   -1    0    0    0    0  0.00000000000E+00  0.00000000000E+00  0.24335098180E+03  0.24335098180E+03  0.00000000000E+00 0.  1.
         22   -1    0    0    0    0 -0.00000000000E+00 -0.00000000000E+00 -0.43891617460E+03  0.43891617460E+03  0.00000000000E+00 0.  1.
         24    2    1    2    0    0 -0.40106217927E+02  0.55946458250E+01 -0.23689646380E+03  0.25357516082E+03  0.80874092553E+02 0.  0.
         25    2    1    2    0    0  0.70589664781E+02 -0.10566777057E+03 -0.12403509157E+03  0.21721225672E+03  0.12509149459E+03 0.  0.
        -24    2    1    2    0    0 -0.30483446853E+02  0.10007312475E+03  0.16536636257E+03  0.21147973885E+03  0.80210817520E+02 0.  0.
        -13    1    3    3    0    0 -0.27963849902E+02  0.36306004662E+02 -0.19454577271E+03  0.19987035938E+03  0.00000000000E+00 0.  1.
         14    1    3    3    0    0 -0.12142368025E+02 -0.30711358837E+02 -0.42350691085E+02  0.53704801445E+02  0.00000000000E+00 0. -1.
         11    1    5    5    0    0 -0.25302254993E+02 -0.55930421986E+01  0.29065249026E+02  0.38939375055E+02  0.00000000000E+00 0. -1.
        -12    1    5    5    0    0 -0.51811918602E+01  0.10566616695E+03  0.13630111354E+03  0.17254036380E+03  0.00000000000E+00 0.  1.
          5    1    4    4  501    0 -0.29663690035E+02 -0.16423831671E+02 -0.58601400743E+02  0.67832686238E+02  0.41800000000E+01 0.  1.
         -5    1    4    4    0  501  0.10025335482E+03 -0.89243938903E+02 -0.65433690827E+02  0.14937957048E+03  0.41800000000E+01 0.  1.
</event>
<event>
11    1  0.9238666E-009  0.2432189E+03  0.7561462E-02  0.1027575E+00
         22   -1    0    0    0    0  0.00000000000E+00  0.00000000000E+00  0.14973212404E+04  0.14973212404E+04  0.00000000000E+00 0.  1.
         22   -1    0    0    0    0 -0.00000000000E+00 -0.00000000000E+00 -0.52471084772E+03  0.52471084772E+03  0.00000000000E+00 0.  1.
        -24    2    1    2    0    0  0.10273107193E+03  0.18121962048E+03 -0.44893625004E+03  0.50148555255E+03  0.80930703865E+02 0.  0.
         25    2    1    2    0    0 -0.43077691924E+02 -0.21850005786E+03  0.30224980977E+03  0.39572968440E+03  0.12509625409E+03 0.  0.
         24    2    1    2    0    0 -0.59653380010E+02  0.37280437379E+02  0.11192968329E+04  0.11248168511E+04  0.86250748650E+02 0.  0.
        -11    1    5    5    0    0  0.76652010367E+01 -0.18233995489E+02  0.11074447420E+03  0.11249698869E+03  0.00000000000E+00 0.  1.
         12    1    5    5    0    0 -0.67318581047E+02  0.55514432868E+02  0.10085523587E+04  0.10123198624E+04  0.00000000000E+00 0. -1.
         11    1    3    3    0    0  0.90335503096E+01  0.53796412047E+02 -0.57280861609E+02  0.79099659209E+02  0.00000000000E+00 0. -1.
        -12    1    3    3    0    0  0.93697521624E+02  0.12742320843E+03 -0.39165538843E+03  0.42238589334E+03  0.00000000000E+00 0.  1.
          5    1    4    4  501    0 -0.48351115763E+01  0.15337756937E+02  0.97058096581E+01  0.19243186663E+02  0.41800000000E+01 0. -1.
         -5    1    4    4    0  501 -0.38242580347E+02 -0.23383781480E+03  0.29254400011E+03  0.37648649774E+03  0.41800000000E+01 0. -1.
</event>
<event>
11    1  0.9238666E-009  0.3103674E+03  0.7561462E-02  0.9958965E-01
         22   -1    0    0    0    0  0.00000000000E+00  0.00000000000E+00  0.44940866898E+04  0.44940866898E+04  0.00000000000E+00 0.  1.
         22   -1    0    0    0    0 -0.00000000000E+00 -0.00000000000E+00 -0.58764298177E+03  0.58764298177E+03  0.00000000000E+00 0.  1.
         24    2    1    2    0    0  0.23008517844E+03  0.16733559607E+03 -0.53996129527E+03  0.61547084125E+03  0.79408847062E+02 0.  0.
         25    2    1    2    0    0 -0.21401416395E+03 -0.14288540116E+03  0.22301291954E+04  0.22484083537E+04  0.12508235846E+03 0.  0.
        -24    2    1    2    0    0 -0.16071014494E+02 -0.24450194905E+02  0.22162758079E+04  0.22178504766E+04  0.78269985641E+02 0.  0.
        -13    1    3    3    0    0  0.20587420942E+03  0.11824642345E+03 -0.47076261832E+03  0.52724173732E+03  0.00000000000E+00 0.  1.
         14    1    3    3    0    0  0.24210969023E+02  0.49089172618E+02 -0.69198676948E+02  0.88229103932E+02  0.00000000000E+00 0. -1.
         11    1    5    5    0    0  0.22560813825E+02 -0.23241726281E+02  0.45537040875E+03  0.45652094950E+03  0.00000000000E+00 0. -1.
        -12    1    5    5    0    0 -0.38631828318E+02 -0.12084686247E+01  0.17609053991E+04  0.17613295272E+04  0.00000000000E+00 0.  1.
          5    1    4    4  501    0 -0.15752138602E+03 -0.32326789512E+02  0.11626077524E+04  0.11736832054E+04  0.41800000000E+01 0.  1.
         -5    1    4    4    0  501 -0.56492777926E+02 -0.11055861165E+03  0.10675214430E+04  0.10747251483E+04  0.41800000000E+01 0.  1.
</event>
<event>
11    1  0.9238666E-009  0.1287355E+03  0.7561462E-02  0.1120832E+00
         22   -1    0    0    0    0  0.00000000000E+00  0.00000000000E+00  0.22027722490E+03  0.22027722490E+03  0.00000000000E+00 0.  1.
         22   -1    0    0    0    0 -0.00000000000E+00 -0.00000000000E+00 -0.94156962676E+03  0.94156962676E+03  0.00000000000E+00 0.  1.
         24    2    1    2    0    0 -0.30649777283E+02 -0.10048025947E+02 -0.76212454312E+03  0.76714892030E+03  0.81506288218E+02 0.  0.
         25    2    1    2    0    0  0.16395245213E+02 -0.94401482325E+01 -0.14353738677E+03  0.19133338206E+03  0.12509021234E+03 0.  0.
        -24    2    1    2    0    0  0.14254532071E+02  0.19488174179E+02  0.18436952803E+03  0.20336454930E+03  0.82353120325E+02 0.  0.
        -13    1    3    3    0    0 -0.12402156200E+02  0.15762254455E+02 -0.65862136419E+03  0.65892667536E+03  0.00000000000E+00 0.  1.
         14    1    3    3    0    0 -0.18247621084E+02 -0.25810280401E+02 -0.10350317893E+03  0.10822224493E+03  0.00000000000E+00 0. -1.
         11    1    5    5    0    0 -0.18840275827E+02  0.30545601881E+01  0.43285577812E+01  0.19570966855E+02  0.00000000000E+00 0. -1.
        -12    1    5    5    0    0  0.33094807897E+02  0.16433613991E+02  0.18004097025E+03  0.18379358244E+03  0.00000000000E+00 0.  1.
          5    1    4    4  501    0  0.58157270641E+02 -0.37470789715E+02 -0.51437142005E+02  0.86310950568E+02  0.41800000000E+01 0. -1.
         -5    1    4    4    0  501 -0.41762025428E+02  0.28030641482E+02 -0.92100244769E+02  0.10502243149E+03  0.41800000000E+01 0. -1.
</event>
<event>
11    1  0.9238666E-009  0.1557384E+03  0.7561462E-02  0.1091155E+00
         22   -1    0    0    0    0  0.00000000000E+00  0.00000000000E+00  0.36521550314E+03  0.36521550314E+03  0.00000000000E+00 0.  1.
         22   -1    0    0    0    0 -0.00000000000E+00 -0.00000000000E+00 -0.68787774943E+03  0.68787774943E+03  0.00000000000E+00 0. -1.
         24    2    1    2    0    0 -0.51269194510E+02  0.65604566877E+02 -0.39303328894E+03  0.40963105460E+03  0.79937132624E+02 0.  0.
         25    2    1    2    0    0  0.55278289055E+02 -0.11484192431E+03 -0.25135226144E+03  0.30833436718E+03  0.12509103017E+03 0.  0.
        -24    2    1    2    0    0 -0.40090945445E+01  0.49237357434E+02  0.32172330410E+03  0.33512783079E+03  0.79777116815E+02 0.  0.
        -13    1    3    3    0    0 -0.15742510296E+02  0.75810431981E+02 -0.29038241191E+03  0.30052785790E+03  0.00000000000E+00 0.  1.
         14    1    3    3    0    0 -0.35526684215E+02 -0.10205865104E+02 -0.10265087704E+03  0.10910319670E+03  0.00000000000E+00 0. -1.
         11    1    5    5    0    0 -0.16154576921E+02  0.23948815004E+02  0.28550548997E+02  0.40615882898E+02  0.00000000000E+00 0. -1.
        -12    1    5    5    0    0  0.12145482376E+02  0.25288542430E+02  0.29317275510E+03  0.29451194789E+03  0.00000000000E+00 0.  1.
          5    1    4    4  501    0  0.30291267512E+01 -0.96159470834E+02 -0.71137282735E+02  0.11972386911E+03  0.41800000000E+01 0.  1.
         -5    1    4    4    0  501  0.52249162304E+02 -0.18682453476E+02 -0.18021497871E+03  0.18861049806E+03  0.41800000000E+01 0.  1.
</event>
<event>
11    1  0.9238666E-009  0.1465426E+03  0.7561462E-02  0.1100465E+00
         22   -1    0    0    0    0  0.00000000000E+00  0.00000000000E+00  0.21149931248E+04  0.21149931248E+04  0.00000000000E+00 0. -1.
         22   -1    0    0    0    0 -0.00000000000E+00 -0.00000000000E+00 -0.90796471573E+02  0.90796471573E+02  0.00000000000E+00 0. -1.
         24    2    1    2    0    0 -0.97147853168E+01  0.73271299932E+02 -0.39087290873E+02  0.11557576994E+03  0.79792743037E+02 0.  0.
         25    2    1    2    0    0 -0.27059830759E+02 -0.12328630918E+03  0.66620981384E+03  0.68950321017E+03  0.12508961709E+03 0.  0.
        -24    2    1    2    0    0  0.36774616076E+02  0.50015009251E+02  0.13970741302E+04  0.14007106162E+04  0.79499883914E+02 0.  0.
        -13    1    3    3    0    0  0.13340276928E+02  0.16394647134E+02  0.20922607291E+02  0.29740594127E+02  0.00000000000E+00 0.  1.
         14    1    3    3    0    0 -0.23055062245E+02  0.56876652798E+02 -0.60009898164E+02  0.85835175810E+02  0.00000000000E+00 0. -1.
         11    1    5    5    0    0  0.57911563298E+02  0.21456934154E+02  0.10522770033E+04  0.10540877767E+04  0.00000000000E+00 0. -1.
        -12    1    5    5    0    0 -0.21136947222E+02  0.28558075098E+02  0.34479712690E+03  0.34662283957E+03  0.00000000000E+00 0.  1.
          5    1    4    4  501    0 -0.58537178191E+02 -0.11684703664E+03  0.38859511615E+03  0.41000422912E+03  0.41800000000E+01 0. -1.
         -5    1    4    4    0  501  0.31477347432E+02 -0.64392725397E+01  0.27761469769E+03  0.27949898105E+03  0.41800000000E+01 0. -1.
</event>
<event>
11    1  0.9238666E-009  0.1479578E+03  0.7561462E-02  0.1098984E+00
         22   -1    0    0    0    0  0.00000000000E+00  0.00000000000E+00  0.84939590484E+03  0.84939590484E+03  0.00000000000E+00 0. -1.
         22   -1    0    0    0    0 -0.00000000000E+00 -0.00000000000E+00 -0.11514272116E+04  0.11514272116E+04  0.00000000000E+00 0.  1.
         24    2    1    2    0    0 -0.20683535704E+02 -0.30876018418E+02 -0.10719827803E+04  0.10758217591E+04  0.82850703014E+02 0.  0.
         25    2    1    2    0    0  0.64838638742E+02 -0.35552823723E+02 -0.14215050262E+01  0.14531736305E+03  0.12508822078E+03 0.  0.
        -24    2    1    2    0    0 -0.44155103039E+02  0.66428842141E+02  0.77137297849E+03  0.77968399433E+03  0.80798483227E+02 0.  0.
        -13    1    3    3    0    0  0.44913498613E+00  0.27566496940E+02 -0.25758079686E+03  0.25905208046E+03  0.00000000000E+00 0.  1.
         14    1    3    3    0    0 -0.21132670690E+02 -0.58442515358E+02 -0.81440198339E+03  0.81676967862E+03  0.00000000000E+00 0. -1.
         11    1    5    5    0    0 -0.63980962818E+02  0.35129978944E+02  0.59509172355E+03  0.59955136432E+03  0.00000000000E+00 0. -1.
        -12    1    5    5    0    0  0.19825859779E+02  0.31298863198E+02  0.17628125494E+03  0.18013263002E+03  0.00000000000E+00 0.  1.
          5    1    4    4  501    0  0.51028871718E+02  0.12364277329E+02  0.50667246453E+02  0.73085315665E+02  0.41800000000E+01 0.  1.
         -5    1    4    4    0  501  0.13809767024E+02 -0.47917101052E+02 -0.52088751480E+02  0.72232047383E+02  0.41800000000E+01 0.  1.
</event>
<event>
11    1  0.9238666E-009  0.1449660E+03  0.7561462E-02  0.1102136E+00
         22   -1    0    0    0    0  0.00000000000E+00  0.00000000000E+00  0.56981050115E+03  0.56981050115E+03  0.00000000000E+00 0.  1.
         22   -1    0    0    0    0 -0.00000000000E+00 -0.00000000000E+00 -0.12887057902E+04  0.12887057902E+04  0.00000000000E+00 0. -1.
         24    2    1    2    0    0 -0.66497336522E+01  0.75188521043E+02 -0.12350747108E+04  0.12400397502E+04  0.81188103760E+02 0.  0.
         25    2    1    2    0    0  0.52550711158E+02 -0.85209430055E+01  0.60573690885E+02  0.14883418477E+03  0.12509300066E+03 0.  0.
        -24    2    1    2    0    0 -0.45900977506E+02 -0.66667578037E+02  0.45560573088E+03  0.46964235636E+03  0.80224031208E+02 0.  0.
        -13    1    3    3    0    0 -0.83239176031E+01  0.50583468425E+01 -0.14601478878E+02  0.17552141250E+02  0.00000000000E+00 0.  1.
         14    1    3    3    0    0  0.16741839509E+01  0.70130174200E+02 -0.12204732319E+04  0.12224876090E+04  0.00000000000E+00 0. -1.
         13    1    5    5    0    0 -0.64821901720E+01  0.85394412464E+01  0.20029942256E+03  0.20058613991E+03  0.00000000000E+00 0. -1.
        -14    1    5    5    0    0 -0.39418787334E+02 -0.75207019284E+02  0.25530630831E+03  0.26905621645E+03  0.00000000000E+00 0.  1.
          5    1    4    4  501    0  0.92679929316E+02 -0.14265918471E+02  0.32436162732E+02  0.99310939884E+02  0.41800000000E+01 0. -1.
         -5    1    4    4    0  501 -0.40129218158E+02  0.57449754652E+01  0.28137528154E+02  0.49523244882E+02  0.41800000000E+01 0. -1.
</event>
<event>
11    1  0.9238666E-009  0.1435781E+03  0.7561462E-02  0.1103627E+00
         22   -1    0    0    0    0  0.00000000000E+00  0.00000000000E+00  0.13605538656E+04  0.13605538656E+04  0.00000000000E+00 0. -1.
         22   -1    0    0    0    0 -0.00000000000E+00 -0.00000000000E+00 -0.76260148876E+02  0.76260148876E+02  0.00000000000E+00 0.  1.
        -24    2    1    2    0    0 -0.49076084805E+02  0.28862925914E+02  0.11426639954E+02  0.98559073193E+02  0.79635370382E+02 0.  0.
         25    2    1    2    0    0  0.10091990166E+03  0.16441655408E+02  0.18752058668E+03  0.24752337824E+03  0.12509475515E+03 0.  0.
         24    2    1    2    0    0 -0.51843816858E+02 -0.45304581322E+02  0.10853464901E+04  0.10907315631E+04  0.83534739004E+02 0.  0.
        -13    1    5    5    0    0  0.47047220572E+01 -0.10395420433E+02  0.17959268524E+02  0.21277558636E+02  0.00000000000E+00 0.  1.
         14    1    5    5    0    0 -0.56548538915E+02 -0.34909160890E+02  0.10673872216E+04  0.10694540044E+04  0.00000000000E+00 0. -1.
         11    1    3    3    0    0  0.18139716540E+02 -0.54355307826E+01  0.13190137152E+02  0.23077565494E+02  0.00000000000E+00 0. -1.
        -12    1    3    3    0    0 -0.67215801344E+02  0.34298456697E+02 -0.17634971980E+01  0.75481507699E+02  0.00000000000E+00 0.  1.
          5    1    4    4  501    0  0.52560793250E+02  0.18145855546E+00  0.18909506182E+03  0.19630864657E+03  0.41800000000E+01 0. -1.
         -5    1    4    4    0  501  0.48359108412E+02  0.16260196853E+02 -0.15744751437E+01  0.51214731671E+02  0.41800000000E+01 0. -1.
</event>
<event>
11    1  0.9238666E-009  0.1295521E+03  0.7561462E-02  0.1119820E+00
         22   -1    0    0    0    0  0.00000000000E+00  0.00000000000E+00  0.49194462465E+03  0.49194462465E+03  0.00000000000E+00 0. -1.
         22   -1    0    0    0    0 -0.00000000000E+00 -0.00000000000E+00 -0.20241384103E+03  0.20241384103E+03  0.00000000000E+00 0. -1.
        -24    2    1    2    0    0 -0.17284827168E+02 -0.28260515378E+02 -0.16666489275E+03  0.18706193941E+03  0.78214836971E+02 0.  0.
         25    2    1    2    0    0  0.25111121900E+02  0.38610283681E+02  0.19765983181E+03  0.23840826818E+03  0.12509104995E+03 0.  0.
         24    2    1    2    0    0 -0.78262947329E+01 -0.10349768303E+02  0.25853584456E+03  0.26888825809E+03  0.72744373121E+02 0.  0.
        -11    1    5    5    0    0  0.23049014579E+02 -0.29566416660E+02  0.13545046699E+03  0.14054273042E+03  0.00000000000E+00 0.  1.
         12    1    5    5    0    0 -0.30875309312E+02  0.19216648357E+02  0.12308537757E+03  0.12834552767E+03  0.00000000000E+00 0. -1.
         13    1    3    3    0    0  0.30842070586E+02 -0.16161302354E+02 -0.78838904066E+02  0.86185809772E+02  0.00000000000E+00 0. -1.
        -14    1    3    3    0    0 -0.48126897753E+02 -0.12099213023E+02 -0.87825988685E+02  0.10087612964E+03  0.00000000000E+00 0.  1.
          5    1    4    4  501    0  0.75275747471E+02  0.11992967336E+02  0.11518212621E+03  0.13818344337E+03  0.41800000000E+01 0.  1.
         -5    1    4    4    0  501 -0.50164625571E+02  0.26617316345E+02  0.82477705596E+02  0.10022482481E+03  0.41800000000E+01 0.  1.
</event>
<event>
11    1  0.9238666E-009  0.2451887E+03  0.7561462E-02  0.1026494E+00
         22   -1    0    0    0    0  0.00000000000E+00  0.00000000000E+00  0.96238357071E+03  0.96238357071E+03  0.00000000000E+00 0.  1.
         22   -1    0    0    0    0 -0.00000000000E+00 -0.00000000000E+00 -0.61886801230E+03  0.61886801230E+03  0.00000000000E+00 0. -1.
        -24    2    1    2    0    0  0.17934761240E+02 -0.63302685038E+01 -0.51754525409E+03  0.52418916714E+03  0.80990523849E+02 0.  0.
         25    2    1    2    0    0  0.32297958466E+02  0.21078965419E+03  0.10602521321E+03  0.26900651099E+03  0.12509084972E+03 0.  0.
         24    2    1    2    0    0 -0.50232719705E+02 -0.20445938569E+03  0.75503559929E+03  0.78805590489E+03  0.81402619764E+02 0.  0.
        -11    1    5    5    0    0  0.30013664083E+01 -0.14653390232E+03  0.46601491766E+03  0.48851928950E+03  0.00000000000E+00 0.  1.
         12    1    5    5    0    0 -0.53234086114E+02 -0.57925483362E+02  0.28902068163E+03  0.29953661539E+03  0.00000000000E+00 0. -1.
         13    1    3    3    0    0 -0.32089861449E+01  0.29959104306E+02 -0.35602424836E+03  0.35729695065E+03  0.00000000000E+00 0. -1.
        -14    1    3    3    0    0  0.21143747385E+02 -0.36289372809E+02 -0.16152100573E+03  0.16689221648E+03  0.00000000000E+00 0.  1.
          5    1    4    4  501    0  0.74747816639E+02  0.13801615807E+03  0.40387072810E+02  0.16212428575E+03  0.41800000000E+01 0.  1.
         -5    1    4    4    0  501 -0.42449858174E+02  0.72773496126E+02  0.65638140400E+02  0.10688222524E+03  0.41800000000E+01 0.  1.
</event>
<event>
11    1  0.9238666E-009  0.1435022E+03  0.7561462E-02  0.1103709E+00
         22   -1    0    0    0    0  0.00000000000E+00  0.00000000000E+00  0.16171248011E+04  0.16171248011E+04  0.00000000000E+00 0. -1.
         22   -1    0    0    0    0 -0.00000000000E+00 -0.00000000000E+00 -0.21547767078E+03  0.21547767078E+03  0.00000000000E+00 0. -1.
        -24    2    1    2    0    0 -0.66116457958E+01 -0.52409361944E+02 -0.17175542797E+03  0.19652454798E+03  0.79570822813E+02 0.  0.
         25    2    1    2    0    0 -0.58915773814E+02  0.75664164830E+02  0.18224735217E+03  0.24095177569E+03  0.12509007391E+03 0.  0.
         24    2    1    2    0    0  0.65527419610E+02 -0.23254802887E+02  0.13911552061E+04  0.13951261482E+04  0.78927392872E+02 0.  0.
        -13    1    5    5    0    0 -0.97704301003E+01 -0.28081951035E+02  0.39569722240E+03  0.39681273807E+03  0.00000000000E+00 0.  1.
         14    1    5    5    0    0  0.75297849710E+02  0.48271481489E+01  0.99545798371E+03  0.99831341014E+03  0.00000000000E+00 0. -1.
         13    1    3    3    0    0  0.19873266991E+02 -0.29303657282E+02 -0.15228033941E+03  0.15634242176E+03  0.00000000000E+00 0. -1.
        -14    1    3    3    0    0 -0.26484912787E+02 -0.23105704662E+02 -0.19475088559E+02  0.40182126221E+02  0.00000000000E+00 0.  1.
          5    1    4    4  501    0  0.50467243003E+01 -0.50794681188E+01 -0.15706993208E+02  0.17760981340E+02  0.41800000000E+01 0. -1.
         -5    1    4    4    0  501 -0.63962498115E+02  0.80743632949E+02  0.19795434538E+03  0.22319079435E+03  0.41800000000E+01 0. -1.
</event>
<event>
11    1  0.9238666E-009  0.1352609E+03  0.7561462E-02  0.1112969E+00
         22   -1    0    0    0    0  0.00000000000E+00  0.00000000000E+00  0.13234080025E+04  0.13234080025E+04  0.00000000000E+00 0. -1.
         22   -1    0    0    0    0 -0.00000000000E+00 -0.00000000000E+00 -0.47206503724E+03  0.47206503724E+03  0.00000000000E+00 0. -1.
         24    2    1    2    0    0  0.54609943095E+02  0.40854893157E+02 -0.44972272997E+03  0.46275884217E+03  0.85110774723E+02 0.  0.
         25    2    1    2    0    0  0.73710876629E+01 -0.36953268923E+02  0.32263026204E+03  0.34807888405E+03  0.12509495001E+03 0.  0.
        -24    2    1    2    0    0 -0.61981030758E+02 -0.39016242334E+01  0.97843543322E+03  0.98463531356E+03  0.91180770345E+02 0.  0.
        -11    1    3    3    0    0  0.43727791603E-01 -0.23031030796E+01  0.35205859280E+01  0.42072225032E+01  0.00000000000E+00 0.  1.
         12    1    3    3    0    0  0.54566215304E+02  0.43157996236E+02 -0.45324331590E+03  0.45855161966E+03  0.00000000000E+00 0. -1.
         13    1    5    5    0    0  0.44080253871E+01  0.11772068632E+02  0.59803691863E+03  0.59816901318E+03  0.00000000000E+00 0. -1.
        -14    1    5    5    0    0 -0.66389056145E+02 -0.15673692865E+02  0.38039851460E+03  0.38646630038E+03  0.00000000000E+00 0.  1.
          5    1    4    4  501    0 -0.43665902246E+02  0.16233789955E+02  0.19593622942E+03  0.20144161773E+03  0.41800000000E+01 0. -1.
         -5    1    4    4    0  501  0.51036989909E+02 -0.53187058878E+02  0.12669403262E+03  0.14663726631E+03  0.41800000000E+01 0. -1.
</event>
<event>
11    1  0.9238666E-009  0.1922285E+03  0.7561462E-02  0.1060159E+00
         22   -1    0    0    0    0  0.00000000000E+00  0.00000000000E+00  0.12676667433E+04  0.12676667433E+04  0.00000000000E+00 0. -1.
         22   -1    0    0    0    0 -0.00000000000E+00 -0.00000000000E+00 -0.26751600208E+03  0.26751600208E+03  0.00000000000E+00 0. -1.
         24    2    1    2    0    0 -0.12321531255E+03  0.61364213057E+02 -0.16551893094E+03  0.23024092371E+03  0.81650392294E+02 0.  0.
         25    2    1    2    0    0  0.17936372066E+03 -0.85196369429E+02  0.13764608011E+03  0.27207469368E+03  0.12509368457E+03 0.  0.
        -24    2    1    2    0    0 -0.56148408111E+02  0.23832156373E+02  0.10280235921E+04  0.10328671280E+04  0.79128900252E+02 0.  0.
        -13    1    3    3    0    0  0.85510360012E+01  0.13996480344E+02 -0.35747607091E+02  0.39330816053E+02  0.00000000000E+00 0.  1.
         14    1    3    3    0    0 -0.13176634855E+03  0.47367732713E+02 -0.12977132385E+03  0.19091010766E+03  0.00000000000E+00 0. -1.
         13    1    5    5    0    0  0.40960292223E+01  0.22752647520E+02  0.90392600046E+02  0.93302103769E+02  0.00000000000E+00 0. -1.
        -14    1    5    5    0    0 -0.60244437333E+02  0.10795088526E+01  0.93763099204E+03  0.93956502426E+03  0.00000000000E+00 0.  1.
          5    1    4    4  501    0  0.22191376933E+02  0.29630163779E+02  0.78233269058E+01  0.38066792085E+02  0.41800000000E+01 0.  1.
         -5    1    4    4    0  501  0.15717234373E+03 -0.11482653321E+03  0.12982275320E+03  0.23400790160E+03  0.41800000000E+01 0.  1.
</event>
<event>
11    1  0.9238666E-009  0.1845945E+03  0.7561462E-02  0.1065986E+00
         22   -1    0    0    0    0  0.00000000000E+00  0.00000000000E+00  0.16276172443E+03  0.16276172443E+03  0.00000000000E+00 0.  1.
         22   -1    0    0    0    0 -0.00000000000E+00 -0.00000000000E+00 -0.10363018852E+04  0.10363018852E+04  0.00000000000E+00 0. -1.
        -24    2    1    2    0    0 -0.11432428863E+03 -0.61418617115E+02 -0.59565291213E+03  0.61489788782E+03  0.80341341939E+02 0.  0.
         25    2    1    2    0    0  0.15273907280E+03  0.29304363107E+02 -0.38938398883E+03  0.43755586460E+03  0.12508906359E+03 0.  0.
         24    2    1    2    0    0 -0.38414784174E+02  0.32114254008E+02  0.11149674016E+03  0.14660985724E+03  0.80968550805E+02 0.  0.
        -13    1    5    5    0    0 -0.47501263847E+01  0.38896713171E+01  0.10133248451E+03  0.10151830209E+03  0.00000000000E+00 0.  1.
         14    1    5    5    0    0 -0.33664657789E+02  0.28224582691E+02  0.10164255649E+02  0.45091555141E+02  0.00000000000E+00 0. -1.
         11    1    3    3    0    0 -0.11746390445E+02 -0.11223954406E+02 -0.25690067340E+03  0.25741389013E+03  0.00000000000E+00 0. -1.
        -12    1    3    3    0    0 -0.10257789818E+03 -0.50194662710E+02 -0.33875223873E+03  0.35748399769E+03  0.00000000000E+00 0.  1.
          5    1    4    4  501    0  0.14059732644E+03  0.51283680060E+02 -0.21902512251E+03  0.26530567414E+03  0.41800000000E+01 0.  1.
         -5    1    4    4    0  501  0.12141746366E+02 -0.21979316953E+02 -0.17035886632E+03  0.17225019045E+03  0.41800000000E+01 0.  1.
</event>
<event>
11    1  0.9238666E-009  0.1384741E+03  0.7561462E-02  0.1109274E+00
         22   -1    0    0    0    0  0.00000000000E+00  0.00000000000E+00  0.19328652688E+03  0.19328652688E+03  0.00000000000E+00 0. -1.
         22   -1    0    0    0    0 -0.00000000000E+00 -0.00000000000E+00 -0.97594735826E+03  0.97594735826E+03  0.00000000000E+00 0.  1.
        -24    2    1    2    0    0 -0.25091259315E+02  0.22495902307E+02 -0.56435892491E+03  0.57022264998E+03  0.74278109233E+02 0.  0.
         25    2    1    2    0    0  0.79665933791E+02 -0.42166716880E+00 -0.38059040582E+03  0.40846491567E+03  0.12509073314E+03 0.  0.
         24    2    1    2    0    0 -0.54574674476E+02 -0.22074235138E+02  0.16228849936E+03  0.19054631948E+03  0.80651570935E+02 0.  0.
        -13    1    5    5    0    0 -0.60304771198E+02 -0.97562276643E+01  0.54381631998E+02  0.81787598732E+02  0.00000000000E+00 0.  1.
         14    1    5    5    0    0  0.57300967224E+01 -0.12318007474E+02  0.10790686736E+03  0.10875872075E+03  0.00000000000E+00 0. -1.
         11    1    3    3    0    0 -0.24789710434E+02 -0.12339095192E+02 -0.80853099518E+02  0.85463481764E+02  0.00000000000E+00 0. -1.
        -12    1    3    3    0    0 -0.30154888128E+00  0.34834997499E+02 -0.48350582539E+03  0.48475916822E+03  0.00000000000E+00 0.  1.
          5    1    4    4  501    0  0.28940419767E+02 -0.61334179591E+02 -0.15235970504E+03  0.16682440350E+03  0.41800000000E+01 0. -1.
         -5    1    4    4    0  501  0.50725514024E+02  0.60912512422E+02 -0.22823070078E+03  0.24164051217E+03  0.41800000000E+01 0. -1.
</event>
<event>
11    1  0.9238666E-009  0.1648919E+03  0.7561462E-02  0.1082564E+00
         22   -1    0    0    0    0  0.00000000000E+00  0.00000000000E+00  0.47056562962E+03  0.47056562962E+03  0.00000000000E+00 0.  1.
         22   -1    0    0    0    0 -0.00000000000E+00 -0.00000000000E+00 -0.16706519044E+04  0.16706519044E+04  0.00000000000E+00 0. -1.
        -24    2    1    2    0    0  0.58170025865E+02 -0.88243096593E+02 -0.14091104078E+04  0.14153088986E+04  0.79602393249E+02 0.  0.
         25    2    1    2    0    0 -0.84600520233E+02  0.93546271335E+02 -0.22328804891E+03  0.28533161230E+03  0.12509365807E+03 0.  0.
         24    2    1    2    0    0  0.26430494368E+02 -0.53031747413E+01  0.43231218196E+03  0.44057702311E+03  0.80545613987E+02 0.  0.
        -11    1    5    5    0    0  0.99551134578E+01 -0.42347268014E+02  0.19177254369E+03  0.19664461321E+03  0.00000000000E+00 0.  1.
         12    1    5    5    0    0  0.16475380910E+02  0.37044093273E+02  0.24053963827E+03  0.24393240990E+03  0.00000000000E+00 0. -1.
         11    1    3    3    0    0  0.77700332941E+02 -0.60952397747E+02 -0.10500574783E+04  0.10546910658E+04  0.00000000000E+00 0. -1.
        -12    1    3    3    0    0 -0.19530307076E+02 -0.27290698847E+02 -0.35905292947E+03  0.36061783275E+03  0.00000000000E+00 0.  1.
          5    1    4    4  501    0 -0.67546447827E+01 -0.11171849364E+02  0.10698975423E+02  0.17388959700E+02  0.41800000000E+01 0. -1.
         -5    1    4    4    0  501 -0.77845875451E+02  0.10471812070E+03 -0.23398702433E+03  0.26794265260E+03  0.41800000000E+01 0. -1.
</event>
<event>
11    1  0.9238666E-009  0.2327461E+03  0.7561462E-02  0.1033514E+00
         22   -1    0    0    0    0  0.00000000000E+00  0.00000000000E+00  0.13630541443E+04  0.13630541443E+04  0.00000000000E+00 0. -1.
         22   -1    0    0    0    0 -0.00000000000E+00 -0.00000000000E+00 -0.13482431746E+04  0.13482431746E+04  0.00000000000E+00 0.  1.
         24    2    1    2    0    0  0.47189773118E+02  0.71492623649E+02 -0.13030434330E+04  0.13084672403E+04  0.82621187729E+02 0.  0.
         25    2    1    2    0    0 -0.15729991207E+03 -0.20104431587E+03  0.65807498884E+03  0.71685033654E+03  0.12509850028E+03 0.  0.
        -24    2    1    2    0    0  0.11011013896E+03  0.12955169222E+03  0.65977941381E+03  0.68597974208E+03  0.79695972319E+02 0.  0.
        -13    1    3    3    0    0  0.39135983477E+02  0.80796160071E+02 -0.12706153206E+04  0.12737829240E+04  0.00000000000E+00 0.  1.
         14    1    3    3    0    0  0.80537896410E+01 -0.93035364211E+01 -0.32428112441E+02  0.34684316254E+02  0.00000000000E+00 0. -1.
         13    1    5    5    0    0  0.10507114157E+03  0.12336057643E+03  0.49174156528E+03  0.51775239607E+03  0.00000000000E+00 0. -1.
        -14    1    5    5    0    0  0.50389973828E+01  0.61911157897E+01  0.16803784853E+03  0.16822734601E+03  0.00000000000E+00 0.  1.
          5    1    4    4  501    0 -0.69236408612E+02 -0.13871958128E+03  0.24553887977E+03  0.29041972451E+03  0.41800000000E+01 0.  1.
         -5    1    4    4    0  501 -0.88063503462E+02 -0.62324734594E+02  0.41253610907E+03  0.42643061203E+03  0.41800000000E+01 0.  1.
</event>
<event>
11    1  0.9238666E-009  0.1758406E+03  0.7561462E-02  0.1073058E+00
         22   -1    0    0    0    0  0.00000000000E+00  0.00000000000E+00  0.49454300753E+03  0.49454300753E+03  0.00000000000E+00 0. -1.
         22   -1    0    0    0    0 -0.00000000000E+00 -0.00000000000E+00 -0.76113160813E+03  0.76113160813E+03  0.00000000000E+00 0. -1.
        -24    2    1    2    0    0  0.93486780793E+02 -0.29691643252E+02 -0.23994341932E+03  0.27181739431E+03  0.81795351409E+02 0.  0.
         25    2    1    2    0    0 -0.21311743367E+03  0.90519233295E+01 -0.46156825324E+03  0.52363470344E+03  0.12508825843E+03 0.  0.
         24    2    1    2    0    0  0.11963065288E+03  0.20639719922E+02  0.43492307195E+03  0.46022251791E+03  0.88933662509E+02 0.  0.
        -11    1    5    5    0    0  0.85070159119E+02 -0.15575540852E+02  0.17135774459E+03  0.19194532054E+03  0.00000000000E+00 0.  1.
         12    1    5    5    0    0  0.34560493761E+02  0.36215260775E+02  0.26356532736E+03  0.26827719737E+03  0.00000000000E+00 0. -1.
         11    1    3    3    0    0  0.69718813510E+02 -0.26300338483E+02 -0.23600356701E+03  0.24748758434E+03  0.00000000000E+00 0. -1.
        -12    1    3    3    0    0  0.23767967283E+02 -0.33913047689E+01 -0.39398523087E+01  0.24329809967E+02  0.00000000000E+00 0.  1.
          5    1    4    4  501    0 -0.10001958612E+03 -0.49986216663E+02 -0.15167910803E+03  0.18848491631E+03  0.41800000000E+01 0.  1.
         -5    1    4    4    0  501 -0.11309784755E+03  0.59038139993E+02 -0.30988914520E+03  0.33514978713E+03  0.41800000000E+01 0.  1.
</event>
<event>
11    1  0.9238666E-009  0.1514175E+03  0.7561462E-02  0.1095439E+00
         22   -1    0    0    0    0  0.00000000000E+00  0.00000000000E+00  0.56439396364E+03  0.56439396364E+03  0.00000000000E+00 0.  1.
         22   -1    0    0    0    0 -0.00000000000E+00 -0.00000000000E+00 -0.23426972495E+04  0.23426972495E+04  0.00000000000E+00 0.  1.
        -24    2    1    2    0    0 -0.28159442561E+01  0.16256037907E+02 -0.22196549371E+04  0.22211627655E+04  0.80148630766E+02 0.  0.
         25    2    1    2    0    0 -0.42524754471E+02  0.56992329365E+02 -0.71019575262E+02  0.16045825946E+03  0.12508634061E+03 0.  0.
         24    2    1    2    0    0  0.45340698727E+02 -0.73248367272E+02  0.51237122645E+03  0.52547018817E+03  0.78571895046E+02 0.  0.
        -13    1    5    5    0    0  0.24344792727E+02 -0.79331575822E+02  0.47484554446E+03  0.48204196804E+03  0.00000000000E+00 0.  1.
         14    1    5    5    0    0  0.20995906000E+02  0.60832085498E+01  0.37525681990E+02  0.43428220132E+02  0.00000000000E+00 0. -1.
         13    1    3    3    0    0 -0.46405390143E+01 -0.22756814199E+02 -0.23967103194E+03  0.24079370993E+03  0.00000000000E+00 0. -1.
        -14    1    3    3    0    0  0.18245947582E+01  0.39012852107E+02 -0.19799839051E+04  0.19803690556E+04  0.00000000000E+00 0.  1.
          5    1    4    4  501    0  0.32831378624E+00  0.36447771367E+02  0.30873484766E+02  0.47949893526E+02  0.41800000000E+01 0. -1.
         -5    1    4    4    0  501 -0.42853068257E+02  0.20544557998E+02 -0.10189306003E+03  0.11250836593E+03  0.41800000000E+01 0. -1.
</event>
<event>
11    1  0.9238666E-009  0.1592983E+03  0.7561462E-02  0.1087739E+00
         22   -1    0    0    0    0  0.00000000000E+00  0.00000000000E+00  0.22970672984E+03  0.22970672984E+03  0.00000000000E+00 0. -1.
         22   -1    0    0    0    0 -0.00000000000E+00 -0.00000000000E+00 -0.27613201179E+03  0.27613201179E+03  0.00000000000E+00 0. -1.
         24    2    1    2    0    0 -0.26564210609E+02  0.73481124189E+01 -0.16517197045E+03  0.18562870811E+03  0.80103591751E+02 0.  0.
         25    2    1    2    0    0 -0.39747225773E+02  0.74724107922E+02  0.13212722260E+02  0.15161425266E+03  0.12509504913E+03 0.  0.
        -24    2    1    2    0    0  0.66311436382E+02 -0.82072220341E+02  0.10553396625E+03  0.16859578086E+03  0.78447838367E+02 0.  0.
        -13    1    3    3    0    0 -0.50536864938E+02  0.43417913967E+01 -0.64270764972E+02  0.81875253284E+02  0.00000000000E+00 0.  1.
         14    1    3    3    0    0  0.23972654329E+02  0.30063210222E+01 -0.10090120548E+03  0.10375345483E+03  0.00000000000E+00 0. -1.
         11    1    5    5    0    0 -0.44663379470E+01 -0.53785682073E+02  0.55529221806E+02  0.77436052618E+02  0.00000000000E+00 0. -1.
        -12    1    5    5    0    0  0.70777774329E+02 -0.28286538267E+02  0.50004744445E+02  0.91159728242E+02  0.00000000000E+00 0.  1.
          5    1    4    4  501    0 -0.65781306094E+02  0.93354660581E+02 -0.52921380171E+01  0.11440171331E+03  0.41800000000E+01 0.  1.
         -5    1    4    4    0  501  0.26034080322E+02 -0.18630552659E+02  0.18504860277E+02  0.37212539344E+02  0.41800000000E+01 0.  1.
</event>
<event>
11    1  0.9238666E-009  0.1326711E+03  0.7561462E-02  0.1116030E+00
         22   -1    0    0    0    0  0.00000000000E+00  0.00000000000E+00  0.20657114966E+04  0.20657114966E+04  0.00000000000E+00 0.  1.
         22   -1    0    0    0    0 -0.00000000000E+00 -0.00000000000E+00 -0.13092362857E+04  0.13092362857E+04  0.00000000000E+00 0.  1.
        -24    2    1    2    0    0  0.22116589259E+02 -0.37574401905E+02 -0.12371802496E+04  0.12408252380E+04  0.84447155782E+02 0.  0.
         25    2    1    2    0    0 -0.20662482193E+02  0.67832404631E+02  0.52541814164E+01  0.14388605417E+03  0.12508963536E+03 0.  0.
         24    2    1    2    0    0 -0.14541070661E+01 -0.30258002727E+02  0.19884012791E+04  0.19902364901E+04  0.79899805418E+02 0.  0.
        -11    1    5    5    0    0 -0.19075009971E+01 -0.41346040391E+02  0.19449543238E+04  0.19453946785E+04  0.00000000000E+00 0.  1.
         12    1    5    5    0    0  0.45339393108E+00  0.11088037664E+02  0.43446955320E+02  0.44841811648E+02  0.00000000000E+00 0. -1.
         13    1    3    3    0    0  0.13069326050E+02 -0.64016464189E+02 -0.74837108425E+03  0.75121780777E+03  0.00000000000E+00 0. -1.
        -14    1    3    3    0    0  0.90472632090E+01  0.26442062285E+02 -0.48880916533E+03  0.48960743024E+03  0.00000000000E+00 0.  1.
          5    1    4    4  501    0  0.30666624915E+00  0.16345474924E+02 -0.57511548766E+02  0.59935959458E+02  0.41800000000E+01 0. -1.
         -5    1    4    4    0  501 -0.20969148442E+02  0.51486929707E+02  0.62765730182E+02  0.83950094713E+02  0.41800000000E+01 0. -1.
</event>
<event>
11    1  0.9238666E-009  0.1479439E+03  0.7561462E-02  0.1098998E+00
         22   -1    0    0    0    0  0.00000000000E+00  0.00000000000E+00  0.16496284567E+03  0.16496284567E+03  0.00000000000E+00 0. -1.
         22   -1    0    0    0    0 -0.00000000000E+00 -0.00000000000E+00 -0.12114152855E+04  0.12114152855E+04  0.00000000000E+00 0. -1.
         24    2    1    2    0    0  0.75740480127E+02 -0.77521267197E+01 -0.87560558254E+03  0.88330811997E+03  0.88041937880E+02 0.  0.
         25    2    1    2    0    0 -0.93253684517E+02  0.35146251696E+01 -0.29941190573E+03  0.33764448802E+03  0.12509080196E+03 0.  0.
        -24    2    1    2    0    0  0.17513204389E+02  0.42375015500E+01  0.12856504847E+03  0.15542552315E+03  0.85460241115E+02 0.  0.
        -13    1    3    3    0    0  0.15803565536E+01  0.24095427228E+01  0.13370638448E+01  0.31766590460E+01  0.00000000000E+00 0.  1.
         14    1    3    3    0    0  0.74160123574E+02 -0.10161669442E+02 -0.87694264639E+03  0.88013146093E+03  0.00000000000E+00 0. -1.
         13    1    5    5    0    0  0.46369802572E+02  0.87153826056E+01  0.11273238146E+03  0.12220763607E+03  0.00000000000E+00 0. -1.
        -14    1    5    5    0    0 -0.28856598183E+02 -0.44778810556E+01  0.15832667012E+02  0.33217887081E+02  0.00000000000E+00 0.  1.
          5    1    4    4  501    0 -0.63456437018E+02 -0.28614431304E+02 -0.28168843378E+03  0.29019192132E+03  0.41800000000E+01 0. -1.
         -5    1    4    4    0  501 -0.29797247498E+02  0.32129056474E+02 -0.17723471949E+02  0.47452566699E+02  0.41800000000E+01 0. -1.
</event>
<event>
11    1  0.9238666E-009  0.1361599E+03  0.7561462E-02  0.1111924E+00
         22   -1    0    0    0    0  0.00000000000E+00  0.00000000000E+00  0.14122364604E+04  0.14122364604E+04  0.00000000000E+00 0.  1.
         22   -1    0    0    0    0 -0.00000000000E+00 -0.00000000000E+00 -0.52806364559E+03  0.52806364559E+03  0.00000000000E+00 0. -1.
         24    2    1    2    0    0 -0.10255460800E+02  0.52967008735E+02 -0.49609493312E+03  0.50528564540E+03  0.79326680826E+02 0.  0.
         25    2    1    2    0    0  0.47939647693E+02 -0.37917901325E+02  0.16297823543E+03  0.21434856678E+03  0.12508967102E+03 0.  0.
        -24    2    1    2    0    0 -0.37684186892E+02 -0.15049107410E+02  0.12172895125E+04  0.12206658938E+04  0.81147356493E+02 0.  0.
        -13    1    3    3    0    0 -0.12900153011E+02  0.21082654912E+02 -0.33736375213E+02  0.41821469347E+02  0.00000000000E+00 0.  1.
         14    1    3    3    0    0  0.26446922106E+01  0.31884353823E+02 -0.46235855791E+03  0.46346417606E+03  0.00000000000E+00 0. -1.
         13    1    5    5    0    0 -0.55752003240E+02 -0.32767872953E+02  0.94120587145E+03  0.94342488403E+03  0.00000000000E+00 0. -1.
        -14    1    5    5    0    0  0.18067816347E+02  0.17718765543E+02  0.27608364105E+03  0.27724100977E+03  0.00000000000E+00 0.  1.
          5    1    4    4  501    0 -0.19953328657E+02 -0.18083243910E+02 -0.87143591527E+01  0.28610338870E+02  0.41800000000E+01 0. -1.
         -5    1    4    4    0  501  0.67892976350E+02 -0.19834657415E+02  0.17169259459E+03  0.18573822791E+03  0.41800000000E+01 0. -1.
</event>
<event>
11    1  0.9238666E-009  0.1381997E+03  0.7561462E-02  0.1109586E+00
         22   -1    0    0    0    0  0.00000000000E+00  0.00000000000E+00  0.30219982518E+03  0.30219982518E+03  0.00000000000E+00 0.  1.
         22   -1    0    0    0    0 -0.00000000000E+00 -0.00000000000E+00 -0.10288614728E+04  0.10288614728E+04  0.00000000000E+00 0. -1.
         24    2    1    2    0    0 -0.92818395006E+01  0.15226970419E+02 -0.95811937468E+03  0.96157167082E+03  0.79431283648E+02 0.  0.
         25    2    1    2    0    0 -0.16937435584E+02  0.40519706930E+02  0.17932528409E+02  0.13378034240E+03  0.12508749363E+03 0.  0.
        -24    2    1    2    0    0  0.26219275085E+02 -0.55746677349E+02  0.21352519867E+03  0.23570928475E+03  0.78553892520E+02 0.  0.
        -13    1    3    3    0    0 -0.27549813135E+02  0.13899771213E+02 -0.14504837148E+03  0.14829438935E+03  0.00000000000E+00 0.  1.
         14    1    3    3    0    0  0.18267973634E+02  0.13271992059E+01 -0.81307100320E+03  0.81327728147E+03  0.00000000000E+00 0. -1.
         11    1    5    5    0    0 -0.44001013594E+01 -0.55561588839E+02  0.72769788891E+02  0.91661841687E+02  0.00000000000E+00 0. -1.
        -12    1    5    5    0    0  0.30619376444E+02 -0.18508851005E+00  0.14075540978E+03  0.14404744306E+03  0.00000000000E+00 0.  1.
          5    1    4    4  501    0 -0.22784872288E+02 -0.25422637989E+02 -0.34884412194E+02  0.48988320461E+02  0.41800000000E+01 0. -1.
         -5    1    4    4    0  501  0.58474367034E+01  0.65942344919E+02  0.52816940603E+02  0.84792021937E+02  0.41800000000E+01 0. -1.
</event>
<event>
11    1  0.9238666E-009  0.1416394E+03  0.7561462E-02  0.1105741E+00
         22   -1    0    0    0    0  0.00000000000E+00  0.00000000000E+00  0.20137496203E+04  0.20137496203E+04  0.00000000000E+00 0.  1.
         22   -1    0    0    0    0 -0.00000000000E+00 -0.00000000000E+00 -0.11724003353E+04  0.11724003353E+04  0.00000000000E+00 0. -1.
        -24    2    1    2    0    0  0.62694482579E+02  0.19908326595E+02 -0.10962519275E+04  0.11011053624E+04  0.79610244675E+02 0.  0.
         25    2    1    2    0    0 -0.80341355200E+02 -0.40531801345E+02  0.86169213348E+01  0.15433152298E+03  0.12508560020E+03 0.  0.
         24    2    1    2    0    0  0.17646872621E+02  0.20623474750E+02  0.19289842911E+04  0.19307130702E+04  0.77044300748E+02 0.  0.
        -13    1    5    5    0    0  0.37092487868E+02  0.33170834901E+02  0.16566773397E+04  0.16574244975E+04  0.00000000000E+00 0.  1.
         14    1    5    5    0    0 -0.19445615247E+02 -0.12547360151E+02  0.27230695145E+03  0.27328857278E+03  0.00000000000E+00 0. -1.
         11    1    3    3    0    0  0.11757019465E+02  0.32661088237E+02 -0.75869640115E+03  0.75949009428E+03  0.00000000000E+00 0. -1.
        -12    1    3    3    0    0  0.50937463114E+02 -0.12752761643E+02 -0.33755552633E+03  0.34161526815E+03  0.00000000000E+00 0.  1.
          5    1    4    4  501    0  0.43662218936E+01 -0.62730018251E+02  0.19553664199E+02  0.65984371384E+02  0.41800000000E+01 0. -1.
         -5    1    4    4    0  501 -0.84707577093E+02  0.22198216905E+02 -0.10936742864E+02  0.88347151597E+02  0.41800000000E+01 0. -1.
</event>
<event>
11    1  0.9238666E-009  0.1347391E+03  0.7561462E-02  0.1113580E+00
         22   -1    0    0    0    0  0.00000000000E+00  0.00000000000E+00  0.31379455047E+03  0.31379455047E+03  0.00000000000E+00 0. -1.
         22   -1    0    0    0    0 -0.00000000000E+00 -0.00000000000E+00 -0.31707512754E+03  0.31707512754E+03  0.00000000000E+00 0. -1.
         24    2    1    2    0    0 -0.22867236303E+02 -0.18159512168E+02 -0.25408373915E+03  0.26776657751E+03  0.79295114299E+02 0.  0.
         25    2    1    2    0    0  0.64511957747E+02 -0.51748148482E+01  0.63126933919E+02  0.15434010053E+03  0.12508911001E+03 0.  0.
        -24    2    1    2    0    0 -0.41644721444E+02  0.23334327016E+02  0.18767622816E+03  0.20876299998E+03  0.77979804449E+02 0.  0.
        -13    1    3    3    0    0  0.23617749811E+02  0.13259052877E+02 -0.62039512849E+02  0.67694178065E+02  0.00000000000E+00 0.  1.
         14    1    3    3    0    0 -0.46484986114E+02 -0.31418565045E+02 -0.19204422630E+03  0.20007239944E+03  0.00000000000E+00 0. -1.
         13    1    5    5    0    0 -0.10523211458E+02  0.23566427109E+02  0.17198130588E+03  0.17390711325E+03  0.00000000000E+00 0. -1.
        -14    1    5    5    0    0 -0.31121509986E+02 -0.23210009291E+00  0.15694922277E+02  0.34855886727E+02  0.00000000000E+00 0.  1.
          5    1    4    4  501    0  0.12475246421E+02 -0.40521741292E+02  0.78617805291E+02  0.89419656672E+02  0.41800000000E+01 0. -1.
         -5    1    4    4    0  501  0.52036711327E+02  0.35346926444E+02 -0.15490871372E+02  0.64920443857E+02  0.41800000000E+01 0. -1.
</event>
<event>
11    1  0.9238666E-009  0.1311334E+03  0.7561462E-02  0.1117884E+00
         22   -1    0    0    0    0  0.00000000000E+00  0.00000000000E+00  0.68678733341E+03  0.68678733341E+03  0.00000000000E+00 0. -1.
         22   -1    0    0    0    0 -0.00000000000E+00 -0.00000000000E+00 -0.12112828498E+04  0.12112828498E+04  0.00000000000E+00 0. -1.
         24    2    1    2    0    0  0.21155705842E+02  0.82290437454E+01 -0.11301663199E+04  0.11332602103E+04  0.80545097314E+02 0.  0.
         25    2    1    2    0    0 -0.59563422238E+02 -0.10490711364E+02 -0.13158948763E+02  0.13956675327E+03  0.12509142413E+03 0.  0.
        -24    2    1    2    0    0  0.38407716396E+02  0.22616676186E+01  0.61882975218E+03  0.62524321967E+03  0.80613607680E+02 0.  0.
        -13    1    3    3    0    0 -0.79366274635E+01  0.13885491049E+02 -0.46222754816E+02  0.48911552623E+02  0.00000000000E+00 0.  1.
         14    1    3    3    0    0  0.29092333305E+02 -0.56564473036E+01 -0.10839435650E+04  0.10843486577E+04  0.00000000000E+00 0. -1.
         11    1    5    5    0    0  0.56547149991E+02  0.89872819385E+01  0.56762831380E+03  0.57050876772E+03  0.00000000000E+00 0. -1.
        -12    1    5    5    0    0 -0.18139433595E+02 -0.67256143199E+01  0.51201438377E+02  0.54734451957E+02  0.00000000000E+00 0.  1.
          5    1    4    4  501    0  0.35326261508E+02  0.96892896681E+01 -0.20505624668E+02  0.42187440423E+02  0.41800000000E+01 0. -1.
         -5    1    4    4    0  501 -0.94889683746E+02 -0.20180001032E+02  0.73466759054E+01  0.97379312844E+02  0.41800000000E+01 0. -1.
</event>
<event>
11    1  0.1383687E-008  0.2132887E+03  0.7561462E-02  0.1045505E+00
         22   -1    0    0    0    0  0.00000000000E+00  0.00000000000E+00  0.20290301777E+04  0.20290301777E+04  0.00000000000E+00 0.  1.
         22   -1    0    0    0    0 -0.00000000000E+00 -0.00000000000E+00 -0.71379160568E+03  0.71379160568E+03  0.00000000000E+00 0.  1.
         24    2    1    2    0    0  0.34054698390E+02  0.11557206513E+03 -0.57541093093E+03  0.59402171088E+03  0.85131832117E+02 0.  0.
         25    2    1    2    0    0  0.10334627393E+03 -0.50266320563E+01 -0.71294163398E+02  0.17733803972E+03  0.12514073371E+03 0.  0.
        -24    2    1    2    0    0 -0.13740097232E+03 -0.11054543308E+03  0.19619436663E+04  0.19714620327E+04  0.79625855144E+02 0.  0.
        -11    1    3    3    0    0  0.62379102808E+02  0.81192939987E+02 -0.42454193747E+03  0.43671421163E+03  0.00000000000E+00 0.  1.
         12    1    3    3    0    0 -0.28324404418E+02  0.34379125145E+02 -0.15086899346E+03  0.15730749925E+03  0.00000000000E+00 0. -1.
         11    1    5    5    0    0 -0.58390325253E+02 -0.43645950743E+02  0.43973128800E+03  0.44573310932E+03  0.00000000000E+00 0. -1.
        -12    1    5    5    0    0 -0.79010647071E+02 -0.66899482333E+02  0.15222123783E+04  0.15257289234E+04  0.00000000000E+00 0.  1.
          5    1    4    4  501    0  0.49844748791E+02 -0.56309092501E+02 -0.13220115715E+01  0.75328832428E+02  0.41800000000E+01 0. -1.
         -5    1    4    4    0  501  0.53501525142E+02  0.51282460444E+02 -0.69972151826E+02  0.10200920730E+03  0.41800000000E+01 0. -1.
</event>
<event>
11    1  0.9238666E-009  0.1650225E+03  0.7561462E-02  0.1082446E+00
         22   -1    0    0    0    0  0.00000000000E+00  0.00000000000E+00  0.22818242111E+03  0.22818242111E+03  0.00000000000E+00 0. -1.
         22   -1    0    0    0    0 -0.00000000000E+00 -0.00000000000E+00 -0.49275685376E+03  0.49275685376E+03  0.00000000000E+00 0.  1.
         24    2    1    2    0    0  0.53166875144E+02 -0.10868629786E+03 -0.39417379147E+03  0.42284428828E+03  0.93727724237E+02 0.  0.
         25    2    1    2    0    0 -0.46453323816E+02  0.95467833856E+01  0.29694680063E+02  0.13703289236E+03  0.12508871731E+03 0.  0.
        -24    2    1    2    0    0 -0.67135513282E+01  0.99139514477E+02  0.99904678749E+02  0.16106209424E+03  0.78014987417E+02 0.  0.
        -11    1    3    3    0    0  0.58740396296E+01 -0.64945506659E+01 -0.18567333641E+03  0.18587972290E+03  0.00000000000E+00 0.  1.
         12    1    3    3    0    0  0.47292835515E+02 -0.10219174720E+03 -0.20850045506E+03  0.23696456538E+03  0.00000000000E+00 0. -1.
         13    1    5    5    0    0  0.18489797465E+02  0.25124803244E+02  0.71265434413E+02  0.77793897514E+02  0.00000000000E+00 0. -1.
        -14    1    5    5    0    0 -0.25203348794E+02  0.74014711233E+02  0.28639244337E+02  0.83268196723E+02  0.00000000000E+00 0.  1.
          5    1    4    4  501    0 -0.48861988812E+02 -0.50060507121E+02 -0.41183087479E+00  0.70079885335E+02  0.41800000000E+01 0.  1.
         -5    1    4    4    0  501  0.24086649956E+01  0.59607290507E+02  0.30106510938E+02  0.66953007024E+02  0.41800000000E+01 0.  1.
</event>
<event>
11    1  0.9238666E-009  0.1670137E+03  0.7561462E-02  0.1080660E+00
         22   -1    0    0    0    0  0.00000000000E+00  0.00000000000E+00  0.17757070983E+03  0.17757070983E+03  0.00000000000E+00 0. -1.
         22   -1    0    0    0    0 -0.00000000000E+00 -0.00000000000E+00 -0.13441650909E+04  0.13441650909E+04  0.00000000000E+00 0.  1.
        -24    2    1    2    0    0  0.21202595057E+02 -0.12555030962E+02 -0.65882793400E+03  0.66313195260E+03  0.71292083074E+02 0.  0.
         25    2    1    2    0    0 -0.12546786349E+03 -0.22461708805E+02 -0.64267622858E+03  0.66702897589E+03  0.12509279260E+03 0.  0.
         24    2    1    2    0    0  0.10426526843E+03  0.35016739767E+02  0.13490978146E+03  0.19157487229E+03  0.80017899838E+02 0.  0.
        -11    1    5    5    0    0  0.55310761464E+02 -0.23170749268E+02  0.60384730960E+02  0.85102759582E+02  0.00000000000E+00 0.  1.
         12    1    5    5    0    0  0.48954506968E+02  0.58187489035E+02  0.74525050498E+02  0.10647211271E+03  0.00000000000E+00 0. -1.
         11    1    3    3    0    0 -0.18226702567E+01  0.10401726469E+02 -0.14259894654E+02  0.17744369134E+02  0.00000000000E+00 0. -1.
        -12    1    3    3    0    0  0.23025265314E+02 -0.22956757431E+02 -0.64456803934E+03  0.64538758347E+03  0.00000000000E+00 0.  1.
          5    1    4    4  501    0 -0.13498027348E+03 -0.45810060848E+02 -0.60447142709E+03  0.62106474258E+03  0.41800000000E+01 0. -1.
         -5    1    4    4    0  501  0.95124099915E+01  0.23348352042E+02 -0.38204801490E+02  0.45964233310E+02  0.41800000000E+01 0. -1.
</event>
<event>
11    1  0.9238666E-009  0.1357172E+03  0.7561462E-02  0.1112437E+00
         22   -1    0    0    0    0  0.00000000000E+00  0.00000000000E+00  0.87387000800E+02  0.87387000800E+02  0.00000000000E+00 0.  1.
         22   -1    0    0    0    0 -0.00000000000E+00 -0.00000000000E+00 -0.54332694886E+03  0.54332694886E+03  0.00000000000E+00 0. -1.
         24    2    1    2    0    0  0.52805450851E+02 -0.21456183986E+02 -0.38312237182E+03  0.39534690334E+03  0.79168419954E+02 0.  0.
         25    2    1    2    0    0 -0.24712831358E+02  0.11008232769E+02 -0.77780940604E+02  0.14976317951E+03  0.12508888837E+03 0.  0.
        -24    2    1    2    0    0 -0.28092619493E+02  0.10447951217E+02  0.49633643673E+01  0.85603866808E+02  0.80031444270E+02 0.  0.
        -13    1    3    3    0    0 -0.17049957289E+02 -0.11770758678E+02 -0.39948281071E+02  0.45001299580E+02  0.00000000000E+00 0.  1.
         14    1    3    3    0    0  0.69855408140E+02 -0.96854253077E+01 -0.34317409075E+03  0.35034560376E+03  0.00000000000E+00 0. -1.
         11    1    5    5    0    0  0.57321220728E+01 -0.23699995065E+02  0.23712269508E+02  0.34012037792E+02  0.00000000000E+00 0. -1.
        -12    1    5    5    0    0 -0.33824741565E+02  0.34147946281E+02 -0.18748905141E+02  0.51591829016E+02  0.00000000000E+00 0.  1.
          5    1    4    4  501    0 -0.27573486012E+02  0.56628492313E+02 -0.44868273323E+01  0.63282598651E+02  0.41800000000E+01 0. -1.
         -5    1    4    4    0  501  0.28606546534E+01 -0.45620259544E+02 -0.73294113271E+02  0.86480580862E+02  0.41800000000E+01 0. -1.
</event>
<event>
11    1  0.9238666E-009  0.1774938E+03  0.7561462E-02  0.1071688E+00
         22   -1    0    0    0    0  0.00000000000E+00  0.00000000000E+00  0.11416313567E+04  0.11416313567E+04  0.00000000000E+00 0. -1.
         22   -1    0    0    0    0 -0.00000000000E+00 -0.00000000000E+00 -0.52623916198E+03  0.52623916198E+03  0.00000000000E+00 0.  1.
         24    2    1    2    0    0  0.10009840866E+03  0.76928374065E+02 -0.48760879777E+03  0.50990720579E+03  0.79406251017E+02 0.  0.
         25    2    1    2    0    0 -0.11697175637E+03 -0.39569468606E+02  0.28454871632E+03  0.33445906545E+03  0.12508700919E+03 0.  0.
        -24    2    1    2    0    0  0.16873347716E+02 -0.37358905459E+02  0.81845227622E+03  0.82350424748E+03  0.81330925770E+02 0.  0.
        -11    1    3    3    0    0  0.98255845959E+02  0.41604917994E+02 -0.28677143913E+03  0.30597882078E+03  0.00000000000E+00 0.  1.
         12    1    3    3    0    0  0.18425626999E+01  0.35323456071E+02 -0.20083735864E+03  0.20392838501E+03  0.00000000000E+00 0. -1.
         13    1    5    5    0    0  0.95723418933E+01 -0.46544658487E+01  0.70801666938E+03  0.70809667271E+03  0.00000000000E+00 0. -1.
        -14    1    5    5    0    0  0.73010058228E+01 -0.32704439610E+02  0.11043560684E+03  0.11540757477E+03  0.00000000000E+00 0.  1.
          5    1    4    4  501    0 -0.12630771155E+03 -0.69006994491E+02  0.24400174760E+03  0.28331948136E+03  0.41800000000E+01 0.  1.
         -5    1    4    4    0  501  0.93359551705E+01  0.29437525885E+02  0.40546968721E+02  0.51139584097E+02  0.41800000000E+01 0.  1.
</event>
<event>
11    1  0.9238666E-009  0.1306467E+03  0.7561462E-02  0.1118477E+00
         22   -1    0    0    0    0  0.00000000000E+00  0.00000000000E+00  0.45827131097E+03  0.45827131097E+03  0.00000000000E+00 0.  1.
         22   -1    0    0    0    0 -0.00000000000E+00 -0.00000000000E+00 -0.26207862254E+03  0.26207862254E+03  0.00000000000E+00 0.  1.
        -24    2    1    2    0    0  0.37143000974E+02  0.11765060334E+02 -0.17960721913E+03  0.20395415310E+03  0.88433727931E+02 0.  0.
         25    2    1    2    0    0 -0.23428721284E+02 -0.26394867936E+02 -0.18467744481E+01  0.12998846922E+03  0.12509195625E+03 0.  0.
         24    2    1    2    0    0 -0.13714279691E+02  0.14629807602E+02  0.37764668201E+03  0.38640731120E+03  0.79318856378E+02 0.  0.
        -13    1    5    5    0    0  0.13147568576E+01  0.44232543646E+02  0.27465155942E+03  0.27819368360E+03  0.00000000000E+00 0.  1.
         14    1    5    5    0    0 -0.15029036548E+02 -0.29602736044E+02  0.10299512259E+03  0.10821362760E+03  0.00000000000E+00 0. -1.
         13    1    3    3    0    0 -0.17085741746E+01  0.10414753069E+01  0.99552399566E+01  0.10154343855E+02  0.00000000000E+00 0. -1.
        -14    1    3    3    0    0  0.38851575149E+02  0.10723585027E+02 -0.18956245908E+03  0.19379980924E+03  0.00000000000E+00 0.  1.
          5    1    4    4  501    0 -0.22965372851E+02 -0.14825500877E+02  0.60456580831E+02  0.66480631708E+02  0.41800000000E+01 0. -1.
         -5    1    4    4    0  501 -0.46334843219E+00 -0.11569367059E+02 -0.62303355279E+02  0.63507837508E+02  0.41800000000E+01 0. -1.
</event>
<event>
11    1  0.9238666E-009  0.1650351E+03  0.7561462E-02  0.1082435E+00
         22   -1    0    0    0    0  0.00000000000E+00  0.00000000000E+00  0.12874264936E+04  0.12874264936E+04  0.00000000000E+00 0. -1.
         22   -1    0    0    0    0 -0.00000000000E+00 -0.00000000000E+00 -0.28845575310E+03  0.28845575310E+03  0.00000000000E+00 0.  1.
         24    2    1    2    0    0 -0.10107536056E+03 -0.39267624342E+02 -0.25362342806E+03  0.28695438291E+03  0.79118896448E+02 0.  0.
         25    2    1    2    0    0  0.52393482736E+02  0.97348404200E+02  0.47085035930E+03  0.49956904379E+03  0.12508948730E+03 0.  0.
        -24    2    1    2    0    0  0.48681877825E+02 -0.58080779857E+02  0.78174380930E+03  0.78935882004E+03  0.78871168226E+02 0.  0.
        -11    1    3    3    0    0 -0.72030054450E+02 -0.62301900834E+02 -0.20279438550E+03  0.22404334041E+03  0.00000000000E+00 0.  1.
         12    1    3    3    0    0 -0.29045306111E+02  0.23034276492E+02 -0.50829042555E+02  0.62911042493E+02  0.00000000000E+00 0. -1.
         13    1    5    5    0    0  0.30108751293E+02 -0.22097361307E+02  0.66002603338E+03  0.66108183686E+03  0.00000000000E+00 0. -1.
        -14    1    5    5    0    0  0.18573126532E+02 -0.35983418550E+02  0.12171777592E+03  0.12827698318E+03  0.00000000000E+00 0.  1.
          5    1    4    4  501    0 -0.15504783792E+02 -0.22996541230E+02  0.97193026902E+02  0.10115926111E+03  0.41800000000E+01 0.  1.
         -5    1    4    4    0  501  0.67898266529E+02  0.12034494543E+03  0.37365733240E+03  0.39840978269E+03  0.41800000000E+01 0.  1.
</event>
<event>
11    1  0.9238666E-009  0.1256479E+03  0.7561462E-02  0.1124735E+00
         22   -1    0    0    0    0  0.00000000000E+00  0.00000000000E+00  0.56312322928E+03  0.56312322928E+03  0.00000000000E+00 0. -1.
         22   -1    0    0    0    0 -0.00000000000E+00 -0.00000000000E+00 -0.45284987028E+03  0.45284987028E+03  0.00000000000E+00 0. -1.
        -24    2    1    2    0    0 -0.88440436352E+01  0.36712135600E+01 -0.38865121304E+03  0.39689636130E+03  0.79907830020E+02 0.  0.
         25    2    1    2    0    0  0.61157311156E+02 -0.34306424244E+01  0.27995685096E+02  0.14206650809E+03  0.12508856192E+03 0.  0.
         24    2    1    2    0    0 -0.52313267520E+02 -0.24057113566E+00  0.47092888694E+03  0.47701023017E+03  0.55027332276E+02 0.  0.
        -11    1    5    5    0    0 -0.50244158808E+00  0.92725415786E+01  0.23875439385E+03  0.23893491386E+03  0.00000000000E+00 0.  1.
         12    1    5    5    0    0 -0.51810825932E+02 -0.95131127143E+01  0.23217449309E+03  0.23807531632E+03  0.00000000000E+00 0. -1.
         11    1    3    3    0    0 -0.29348139616E+02  0.32534683223E+02 -0.24908593431E+03  0.25291030343E+03  0.00000000000E+00 0. -1.
        -12    1    3    3    0    0  0.20504095981E+02 -0.28863469663E+02 -0.13956527874E+03  0.14398605787E+03  0.00000000000E+00 0.  1.
          5    1    4    4  501    0  0.90751267099E+02 -0.32217636247E+02  0.10249217732E+02  0.96934449137E+02  0.41800000000E+01 0. -1.
         -5    1    4    4    0  501 -0.29593955944E+02  0.28786993822E+02  0.17746467364E+02  0.45132058956E+02  0.41800000000E+01 0. -1.
</event>
<event>
11    1  0.9238666E-009  0.1419462E+03  0.7561462E-02  0.1105404E+00
         22   -1    0    0    0    0  0.00000000000E+00  0.00000000000E+00  0.13733812145E+04  0.13733812145E+04  0.00000000000E+00 0. -1.
         22   -1    0    0    0    0 -0.00000000000E+00 -0.00000000000E+00 -0.81327734157E+02  0.81327734157E+02  0.00000000000E+00 0.  1.
         24    2    1    2    0    0 -0.31008836266E+02  0.62655804770E+02 -0.22865449196E+02  0.10860449432E+03  0.79905003731E+02 0.  0.
         25    2    1    2    0    0  0.68315469440E+02 -0.90920471178E+01  0.38957028143E+03  0.41492191692E+03  0.12508207020E+03 0.  0.
        -24    2    1    2    0    0 -0.37306633174E+02 -0.53563757652E+02  0.92534864806E+03  0.93118253737E+03  0.81055144302E+02 0.  0.
        -13    1    3    3    0    0 -0.50554572596E+02  0.69061992450E+02 -0.17754141847E+02  0.87410143371E+02  0.00000000000E+00 0.  1.
         14    1    3    3    0    0  0.19545736329E+02 -0.64061876796E+01 -0.51113073487E+01  0.21194350947E+02  0.00000000000E+00 0. -1.
         11    1    5    5    0    0 -0.29802850244E+01 -0.42866597423E+02  0.78911993341E+03  0.79028899561E+03  0.00000000000E+00 0. -1.
        -12    1    5    5    0    0 -0.34326348149E+02 -0.10697160230E+02  0.13622871465E+03  0.14089354176E+03  0.00000000000E+00 0.  1.
          5    1    4    4  501    0  0.30550639095E+02  0.49477754915E+02  0.27206564167E+03  0.27824193709E+03  0.41800000000E+01 0. -1.
         -5    1    4    4    0  501  0.37764830345E+02 -0.58569802033E+02  0.11750463976E+03  0.13667997983E+03  0.41800000000E+01 0. -1.
</event>
<event>
11    1  0.1317429E-008  0.1521640E+03  0.7561462E-02  0.1094688E+00
         22   -1    0    0    0    0  0.00000000000E+00  0.00000000000E+00  0.89595980496E+03  0.89595980496E+03  0.00000000000E+00 0. -1.
         22   -1    0    0    0    0 -0.00000000000E+00 -0.00000000000E+00 -0.21005591976E+03  0.21005591976E+03  0.00000000000E+00 0. -1.
         24    2    1    2    0    0 -0.31974621987E+02  0.42080796982E+02 -0.82296603334E+02  0.12679716854E+03  0.80694616326E+02 0.  0.
         25    2    1    2    0    0  0.10415586919E+03 -0.86232236381E+02 -0.17330668934E+02  0.18501961045E+03  0.12508980969E+03 0.  0.
        -24    2    1    2    0    0 -0.72181247203E+02  0.44151439398E+02  0.78553115747E+03  0.79419894573E+03  0.80828732497E+02 0.  0.
        -13    1    3    3    0    0  0.19703040356E+02  0.31854573299E+01  0.25368048584E+01  0.20119451199E+02  0.00000000000E+00 0.  1.
         14    1    3    3    0    0 -0.51677662343E+02  0.38895339653E+02 -0.84833408192E+02  0.10667771734E+03  0.00000000000E+00 0. -1.
         11    1    5    5    0    0 -0.30009076830E+02  0.58355664105E+02  0.32737058698E+03  0.33388235869E+03  0.00000000000E+00 0. -1.
        -12    1    5    5    0    0 -0.42172170373E+02 -0.14204224707E+02  0.45816057049E+03  0.46031658704E+03  0.00000000000E+00 0.  1.
          5    1    4    4  501    0  0.91785116452E+02  0.24514823235E+01 -0.24414513395E+02  0.95100253585E+02  0.41800000000E+01 0.  1.
         -5    1    4    4    0  501  0.12370752737E+02 -0.88683718704E+02  0.70838444607E+01  0.89919356864E+02  0.41800000000E+01 0.  1.
</event>
<event>
11    1  0.9238666E-009  0.1562464E+03  0.7561462E-02  0.1090662E+00
         22   -1    0    0    0    0  0.00000000000E+00  0.00000000000E+00  0.60648150285E+03  0.60648150285E+03  0.00000000000E+00 0. -1.
         22   -1    0    0    0    0 -0.00000000000E+00 -0.00000000000E+00 -0.25387772002E+03  0.25387772002E+03  0.00000000000E+00 0. -1.
         24    2    1    2    0    0  0.28995825677E+02  0.68533319837E+02 -0.11819009356E+03  0.16122527405E+03  0.80542640525E+02 0.  0.
         25    2    1    2    0    0  0.17167000082E+02 -0.14661072416E+03 -0.19236648953E+02  0.19444065469E+03  0.12509080383E+03 0.  0.
        -24    2    1    2    0    0 -0.46162825759E+02  0.78077404322E+02  0.49003052535E+03  0.50469329413E+03  0.79739060827E+02 0.  0.
        -13    1    3    3    0    0  0.41722008149E+02  0.43290274010E+01 -0.30791998953E+02  0.52034734954E+02  0.00000000000E+00 0.  1.
         14    1    3    3    0    0 -0.12726182471E+02  0.64204292436E+02 -0.87398094605E+02  0.10919053910E+03  0.00000000000E+00 0. -1.
         13    1    5    5    0    0 -0.62367360205E+01  0.64132891766E+02  0.40081813118E+03  0.40596440603E+03  0.00000000000E+00 0. -1.
        -14    1    5    5    0    0 -0.39926089739E+02  0.13944512556E+02  0.89212394164E+02  0.98728888097E+02  0.00000000000E+00 0.  1.
          5    1    4    4  501    0  0.19302767304E+02 -0.14039328152E+03 -0.59262854685E+02  0.15366336150E+03  0.41800000000E+01 0.  1.
         -5    1    4    4    0  501 -0.21357672226E+01 -0.62174426375E+01  0.40026205732E+02  0.40777293190E+02  0.41800000000E+01 0.  1.
</event>
<event>
11    1  0.9238666E-009  0.1472291E+03  0.7561462E-02  0.1099744E+00
         22   -1    0    0    0    0  0.00000000000E+00  0.00000000000E+00  0.24326700951E+04  0.24326700951E+04  0.00000000000E+00 0. -1.
         22   -1    0    0    0    0 -0.00000000000E+00 -0.00000000000E+00 -0.21446737370E+03  0.21446737370E+03  0.00000000000E+00 0.  1.
        -24    2    1    2    0    0 -0.18856961229E+02  0.72571649943E+02 -0.13649521173E+03  0.17480712130E+03  0.79399984055E+02 0.  0.
         25    2    1    2    0    0  0.87102600466E+01 -0.92841807712E+02  0.46735597243E+02  0.16286823731E+03  0.12508547791E+03 0.  0.
         24    2    1    2    0    0  0.10146701182E+02  0.20270157768E+02  0.23079623359E+04  0.23094621102E+04  0.80070342360E+02 0.  0.
        -11    1    5    5    0    0 -0.28811965102E+02 -0.10356160995E+02  0.59957723384E+03  0.60035842523E+03  0.00000000000E+00 0.  1.
         12    1    5    5    0    0  0.38958666284E+02  0.30626318764E+02  0.17083851021E+04  0.17091036850E+04  0.00000000000E+00 0. -1.
         11    1    3    3    0    0  0.20697115663E+02  0.12182258366E+02 -0.46063707396E+01  0.24453970374E+02  0.00000000000E+00 0. -1.
        -12    1    3    3    0    0 -0.39554076892E+02  0.60389391577E+02 -0.13188884099E+03  0.15035315092E+03  0.00000000000E+00 0.  1.
          5    1    4    4  501    0  0.50658186143E+02 -0.98396790123E+02  0.47092063692E+02  0.12034664512E+03  0.41800000000E+01 0. -1.
         -5    1    4    4    0  501 -0.41947926096E+02  0.55549824117E+01 -0.35646644880E+00  0.42521592182E+02  0.41800000000E+01 0. -1.
</event>
<event>
11    1  0.9238666E-009  0.2151260E+03  0.7561462E-02  0.1044314E+00
         22   -1    0    0    0    0  0.00000000000E+00  0.00000000000E+00  0.12853060565E+03  0.12853060565E+03  0.00000000000E+00 0. -1.
         22   -1    0    0    0    0 -0.00000000000E+00 -0.00000000000E+00 -0.35534571354E+04  0.35534571354E+04  0.00000000000E+00 0.  1.
         24    2    1    2    0    0 -0.34383222536E+01  0.19348249761E+03 -0.28410336793E+04  0.28487809327E+04  0.81444070939E+02 0.  0.
         25    2    1    2    0    0  0.81406353592E+02 -0.10828470495E+03 -0.65140124387E+03  0.67699617367E+03  0.12509063482E+03 0.  0.
        -24    2    1    2    0    0 -0.77968031338E+02 -0.85197792659E+02  0.67508393412E+02  0.15621063468E+03  0.80664127232E+02 0.  0.
        -13    1    3    3    0    0  0.29460403315E+02  0.15540748887E+03 -0.22890001037E+04  0.22944587331E+04  0.00000000000E+00 0.  1.
         14    1    3    3    0    0 -0.32898725569E+02  0.38075008736E+02 -0.55203357562E+03  0.55432219967E+03  0.00000000000E+00 0. -1.
         13    1    5    5    0    0 -0.37038479928E+02 -0.82190003800E+02  0.71381248624E+02  0.11498838365E+03  0.00000000000E+00 0. -1.
        -14    1    5    5    0    0 -0.40929551410E+02 -0.30077888595E+01 -0.38728552125E+01  0.41222251029E+02  0.00000000000E+00 0.  1.
          5    1    4    4  501    0 -0.10318523985E+02 -0.59410001575E+02 -0.40578734287E+03  0.41026437849E+03  0.41800000000E+01 0. -1.
         -5    1    4    4    0  501  0.91724877577E+02 -0.48874703374E+02 -0.24561390100E+03  0.26673179518E+03  0.41800000000E+01 0. -1.
</event>
<event>
11    1  0.9238666E-009  0.1347279E+03  0.7561462E-02  0.1113593E+00
         22   -1    0    0    0    0  0.00000000000E+00  0.00000000000E+00  0.99994417950E+03  0.99994417950E+03  0.00000000000E+00 0. -1.
         22   -1    0    0    0    0 -0.00000000000E+00 -0.00000000000E+00 -0.50096462068E+03  0.50096462068E+03  0.00000000000E+00 0.  1.
        -24    2    1    2    0    0 -0.42206892680E+02  0.26282642832E+02 -0.47331180353E+03  0.48361289971E+03  0.85937036857E+02 0.  0.
         25    2    1    2    0    0  0.55146258389E+02 -0.34389118550E+02  0.22440889870E+03  0.26501146530E+03  0.12509197269E+03 0.  0.
         24    2    1    2    0    0 -0.12939365709E+02  0.81064757176E+01  0.74788246366E+03  0.75228443517E+03  0.79815724120E+02 0.  0.
        -11    1    5    5    0    0  0.20416851585E+02 -0.76451895715E+01  0.57944287977E+03  0.57985286726E+03  0.00000000000E+00 0.  1.
         12    1    5    5    0    0 -0.33356217294E+02  0.15751665289E+02  0.16843958389E+03  0.17243156791E+03  0.00000000000E+00 0. -1.
         13    1    3    3    0    0 -0.22240199298E+02  0.52082993211E+02 -0.18534838619E+03  0.19380734998E+03  0.00000000000E+00 0. -1.
        -14    1    3    3    0    0 -0.19966693382E+02 -0.25800350379E+02 -0.28796341735E+03  0.28980554973E+03  0.00000000000E+00 0.  1.
          5    1    4    4  501    0  0.60426714463E+02 -0.76868743075E+02  0.15144424135E+03  0.18031367702E+03  0.41800000000E+01 0.  1.
         -5    1    4    4    0  501 -0.52804560749E+01  0.42479624525E+02  0.72964657357E+02  0.84697788279E+02  0.41800000000E+01 0.  1.
</event>
<event>
11    1  0.9238666E-009  0.1517599E+03  0.7561462E-02  0.1095094E+00
         22   -1    0    0    0    0  0.00000000000E+00  0.00000000000E+00  0.24476382389E+04  0.24476382389E+04  0.00000000000E+00 0. -1.
         22   -1    0    0    0    0 -0.00000000000E+00 -0.00000000000E+00 -0.52009888677E+02  0.52009888677E+02  0.00000000000E+00 0.  1.
         24    2    1    2    0    0  0.20628007285E+02  0.82713144933E+02  0.27177723488E+02  0.12034707843E+03  0.80484853260E+02 0.  0.
         25    2    1    2    0    0 -0.18944623783E+02 -0.98649277751E+02  0.15386399163E+04  0.15469808714E+04  0.12508575236E+03 0.  0.
        -24    2    1    2    0    0 -0.16833835019E+01  0.15936132818E+02  0.82981071036E+03  0.83232017774E+03  0.62564120243E+02 0.  0.
        -13    1    3    3    0    0 -0.14320319366E+02  0.78080521296E+02  0.30268628362E+02  0.84957808444E+02  0.00000000000E+00 0.  1.
         14    1    3    3    0    0  0.34948326651E+02  0.46326236365E+01 -0.30909048733E+01  0.35389269990E+02  0.00000000000E+00 0. -1.
         13    1    5    5    0    0  0.24907253721E+02  0.40712819357E+01  0.61827288781E+03  0.61878777494E+03  0.00000000000E+00 0. -1.
        -14    1    5    5    0    0 -0.26590637222E+02  0.11864850882E+02  0.21153782255E+03  0.21353240279E+03  0.00000000000E+00 0.  1.
          5    1    4    4  501    0  0.40008516164E+02 -0.10383693816E+02  0.75920311954E+03  0.76033897150E+03  0.41800000000E+01 0. -1.
         -5    1    4    4    0  501 -0.58953139947E+02 -0.88265583935E+02  0.77943679679E+03  0.78664189986E+03  0.41800000000E+01 0. -1.
</event>
<event>
11    1  0.9238666E-009  0.1334827E+03  0.7561462E-02  0.1115062E+00
         22   -1    0    0    0    0  0.00000000000E+00  0.00000000000E+00  0.16323735915E+04  0.16323735915E+04  0.00000000000E+00 0.  1.
         22   -1    0    0    0    0 -0.00000000000E+00 -0.00000000000E+00 -0.21524896594E+04  0.21524896594E+04  0.00000000000E+00 0. -1.
         24    2    1    2    0    0 -0.27160869771E+01 -0.62054063906E+01 -0.19060150295E+04  0.19077242356E+04  0.80452360416E+02 0.  0.
         25    2    1    2    0    0  0.38013731316E+02 -0.24221830655E+02 -0.22620687133E+03  0.26238937853E+03  0.12508755525E+03 0.  0.
        -24    2    1    2    0    0 -0.35297644339E+02  0.30427237045E+02  0.16121058329E+04  0.16147496368E+04  0.79746050383E+02 0.  0.
        -13    1    3    3    0    0 -0.18748881325E+01 -0.34559509829E+02 -0.16055855095E+04  0.16059584999E+04  0.00000000000E+00 0.  1.
         14    1    3    3    0    0 -0.84119884466E+00  0.28354103438E+02 -0.30042951994E+03  0.30176573571E+03  0.00000000000E+00 0. -1.
         13    1    5    5    0    0  0.20723304377E+02  0.29814209953E+02  0.61360342705E+03  0.61467675094E+03  0.00000000000E+00 0. -1.
        -14    1    5    5    0    0 -0.56020948715E+02  0.61302709211E+00  0.99850240584E+03  0.10000728858E+04  0.00000000000E+00 0.  1.
          5    1    4    4  501    0 -0.26404535574E+01 -0.59077329167E+02 -0.18621185303E+03  0.19542115910E+03  0.41800000000E+01 0.  1.
         -5    1    4    4    0  501  0.40654184873E+02  0.34855498513E+02 -0.39995018305E+02  0.66968219429E+02  0.41800000000E+01 0.  1.
</event>
<event>
11    1  0.9238666E-009  0.1622509E+03  0.7561462E-02  0.1084979E+00
         22   -1    0    0    0    0  0.00000000000E+00  0.00000000000E+00  0.22679155989E+04  0.22679155989E+04  0.00000000000E+00 0.  1.
         22   -1    0    0    0    0 -0.00000000000E+00 -0.00000000000E+00 -0.29004865484E+02  0.29004865484E+02  0.00000000000E+00 0.  1.
         24    2    1    2    0    0  0.85745203316E+02  0.12060201957E+02  0.71782207159E+03  0.72752076997E+03  0.80748101617E+02 0.  0.
         25    2    1    2    0    0 -0.96085387102E+02 -0.59963287867E+02  0.29807310682E+03  0.34252139400E+03  0.12508129688E+03 0.  0.
        -24    2    1    2    0    0  0.10340183786E+02  0.47903085910E+02  0.12230155550E+04  0.12268783004E+04  0.84033869417E+02 0.  0.
        -11    1    3    3    0    0  0.98867292889E+02  0.18716214022E+02  0.66915077003E+03  0.67667406578E+03  0.00000000000E+00 0.  1.
         12    1    3    3    0    0 -0.13122089573E+02 -0.66560120650E+01  0.48671301565E+02  0.50846704194E+02  0.00000000000E+00 0. -1.
         13    1    5    5    0    0 -0.12434140037E+02  0.65247437927E+02  0.96400420720E+03  0.96628978443E+03  0.00000000000E+00 0. -1.
        -14    1    5    5    0    0  0.22774323822E+02 -0.17344352017E+02  0.25901134780E+03  0.26058851598E+03  0.00000000000E+00 0.  1.
          5    1    4    4  501    0 -0.11454635153E+03 -0.51899726926E+02  0.29625385515E+03  0.32186684730E+03  0.41800000000E+01 0. -1.
         -5    1    4    4    0  501  0.18460964424E+02 -0.80635609410E+01  0.18192516756E+01  0.20654546695E+02  0.41800000000E+01 0. -1.
</event>
<event>
11    1  0.9238666E-009  0.2962318E+03  0.7561462E-02  0.1001799E+00
         22   -1    0    0    0    0  0.00000000000E+00  0.00000000000E+00  0.29736092908E+03  0.29736092908E+03  0.00000000000E+00 0.  1.
         22   -1    0    0    0    0 -0.00000000000E+00 -0.00000000000E+00 -0.14422996122E+04  0.14422996122E+04  0.00000000000E+00 0.  1.
         24    2    1    2    0    0  0.47398931590E+02 -0.10397387749E+03 -0.10438849589E+04  0.10533599688E+04  0.82548110324E+02 0.  0.
         25    2    1    2    0    0  0.74226204585E+02 -0.16493694261E+03 -0.26195994534E+03  0.34202956742E+03  0.12508991784E+03 0.  0.
        -24    2    1    2    0    0 -0.12162513618E+03  0.26891082009E+03  0.16090622117E+03  0.34427100502E+03  0.74337137249E+02 0.  0.
        -13    1    3    3    0    0  0.15029181980E+02 -0.53951904563E+02 -0.20970872202E+03  0.21705859211E+03  0.00000000000E+00 0.  1.
         14    1    3    3    0    0  0.32369749610E+02 -0.50021972925E+02 -0.83417623690E+03  0.83630137670E+03  0.00000000000E+00 0. -1.
         13    1    5    5    0    0  0.40365755674E+01  0.91523784899E+01 -0.52476261094E+01  0.11295908734E+02  0.00000000000E+00 0. -1.
        -14    1    5    5    0    0 -0.12566171174E+03  0.25975844160E+03  0.16615384727E+03  0.33297509629E+03  0.00000000000E+00 0.  1.
          5    1    4    4  501    0  0.32469856817E+02 -0.80277183010E+02 -0.30296708329E+02  0.91837250880E+02  0.41800000000E+01 0.  1.
         -5    1    4    4    0  501  0.41756347768E+02 -0.84659759595E+02 -0.23166323701E+03  0.25019231654E+03  0.41800000000E+01 0.  1.
</event>
<event>
11    1  0.9238666E-009  0.1504995E+03  0.7561462E-02  0.1096369E+00
         22   -1    0    0    0    0  0.00000000000E+00  0.00000000000E+00  0.57746801713E+03  0.57746801713E+03  0.00000000000E+00 0. -1.
         22   -1    0    0    0    0 -0.00000000000E+00 -0.00000000000E+00 -0.79714875403E+03  0.79714875403E+03  0.00000000000E+00 0.  1.
        -24    2    1    2    0    0  0.19242074733E+02 -0.18560194300E+02 -0.62061610947E+03  0.62624920052E+03  0.79429009625E+02 0.  0.
         25    2    1    2    0    0 -0.79742298968E+02 -0.39166248801E+02 -0.13235557255E+03  0.20263455011E+03  0.12509969633E+03 0.  0.
         24    2    1    2    0    0  0.60500224235E+02  0.57726443101E+02  0.53329094512E+03  0.54573302053E+03  0.80203978607E+02 0.  0.
        -13    1    5    5    0    0  0.20442456768E+02 -0.19503787709E+02  0.15632326803E+03  0.15885608550E+03  0.00000000000E+00 0.  1.
         14    1    5    5    0    0  0.40057767467E+02  0.77230230810E+02  0.37696767709E+03  0.38687693503E+03  0.00000000000E+00 0. -1.
         11    1    3    3    0    0  0.28408184557E+02  0.25871998979E+02 -0.27850605240E+03  0.28114410274E+03  0.00000000000E+00 0. -1.
        -12    1    3    3    0    0 -0.91661098243E+01 -0.44432193279E+02 -0.34211005707E+03  0.34510509778E+03  0.00000000000E+00 0.  1.
          5    1    4    4  501    0 -0.11035257109E+03 -0.18222739887E+02 -0.76933022749E+02  0.13581575970E+03  0.41800000000E+01 0.  1.
         -5    1    4    4    0  501  0.30610272117E+02 -0.20943508914E+02 -0.55422549802E+02  0.66818790406E+02  0.41800000000E+01 0.  1.
</event>
<event>
11    1  0.9238666E-009  0.1635415E+03  0.7561462E-02  0.1083793E+00
         22   -1    0    0    0    0  0.00000000000E+00  0.00000000000E+00  0.17175555020E+04  0.17175555020E+04  0.00000000000E+00 0.  1.
         22   -1    0    0    0    0 -0.00000000000E+00 -0.00000000000E+00 -0.10910976386E+04  0.10910976386E+04  0.00000000000E+00 0. -1.
         24    2    1    2    0    0  0.18367195170E+02 -0.12853818380E+02 -0.95757244566E+03  0.96125366824E+03  0.81000318046E+02 0.  0.
         25    2    1    2    0    0  0.47085608342E+02  0.95445843558E+02 -0.77173041315E+02  0.18146032013E+03  0.12508079753E+03 0.  0.
        -24    2    1    2    0    0 -0.65452803512E+02 -0.82592025178E+02  0.16612033503E+04  0.16659391522E+04  0.68199527506E+02 0.  0.
        -11    1    3    3    0    0 -0.90826096378E+01 -0.85925490322E+01 -0.22277413911E+02  0.25546210429E+02  0.00000000000E+00 0.  1.
         12    1    3    3    0    0  0.27449804807E+02 -0.42612693476E+01 -0.93529503174E+03  0.93570745781E+03  0.00000000000E+00 0. -1.
         13    1    5    5    0    0  0.82318543099E+01  0.29689193317E+01  0.27688292808E+03  0.27702117928E+03  0.00000000000E+00 0. -1.
        -14    1    5    5    0    0 -0.73684657821E+02 -0.85560944510E+02  0.13843204222E+04  0.13889179729E+04  0.00000000000E+00 0.  1.
          5    1    4    4  501    0  0.56564083746E+02  0.10379390117E+03 -0.10010045664E+03  0.15495239046E+03  0.41800000000E+01 0.  1.
         -5    1    4    4    0  501 -0.94784754037E+01 -0.83480576131E+01  0.22927415326E+02  0.26507929671E+02  0.41800000000E+01 0.  1.
</event>
<event>
11    1  0.9238666E-009  0.1353565E+03  0.7561462E-02  0.1112857E+00
         22   -1    0    0    0    0  0.00000000000E+00  0.00000000000E+00  0.33230018080E+03  0.33230018080E+03  0.00000000000E+00 0.  1.
         22   -1    0    0    0    0 -0.00000000000E+00 -0.00000000000E+00 -0.42208042678E+03  0.42208042678E+03  0.00000000000E+00 0. -1.
        -24    2    1    2    0    0  0.32703717938E+02  0.12834498273E+02 -0.25455343600E+03  0.26933352244E+03  0.80677363723E+02 0.  0.
         25    2    1    2    0    0 -0.59919906603E+02 -0.55123002978E+02 -0.11541879249E+03  0.18866579510E+03  0.12507735173E+03 0.  0.
         24    2    1    2    0    0  0.27216188664E+02  0.42288504705E+02  0.28019198251E+03  0.29638129003E+03  0.82494141994E+02 0.  0.
        -13    1    5    5    0    0  0.55833917100E+02  0.21280056244E+02  0.19876188106E+03  0.20754891581E+03  0.00000000000E+00 0.  1.
         14    1    5    5    0    0 -0.28617728436E+02  0.21008448461E+02  0.81430101455E+02  0.88832374225E+02  0.00000000000E+00 0. -1.
         13    1    3    3    0    0  0.27218993856E+02  0.45390421072E+02 -0.18358162376E+03  0.19105856833E+03  0.00000000000E+00 0. -1.
        -14    1    3    3    0    0  0.54847240820E+01 -0.32555922799E+02 -0.70971812244E+02  0.78274954109E+02  0.00000000000E+00 0.  1.
          5    1    4    4  501    0 -0.60248289803E+02 -0.91692241123E+02 -0.10083843085E+03  0.14907442786E+03  0.41800000000E+01 0.  1.
         -5    1    4    4    0  501  0.32838320016E+00  0.36569238145E+02 -0.14580361641E+02  0.39591367236E+02  0.41800000000E+01 0.  1.
</event>
<event>
11    1  0.9238666E-009  0.2945987E+03  0.7561462E-02  0.1002503E+00
         22   -1    0    0    0    0  0.00000000000E+00  0.00000000000E+00  0.93596127016E+03  0.93596127016E+03  0.00000000000E+00 0.  1.
         22   -1    0    0    0    0 -0.00000000000E+00 -0.00000000000E+00 -0.30352619822E+03  0.30352619822E+03  0.00000000000E+00 0. -1.
         24    2    1    2    0    0  0.25738107170E+02 -0.69483542338E+02 -0.16469472545E+03  0.19850117866E+03  0.82389031567E+02 0.  0.
         25    2    1    2    0    0  0.11853207400E+03  0.28115406939E+03  0.19921909547E+03  0.38527292746E+03  0.12509803087E+03 0.  0.
        -24    2    1    2    0    0 -0.14427018117E+03 -0.21167052705E+03  0.59791070191E+03  0.65571336226E+03  0.82731546488E+02 0.  0.
        -11    1    3    3    0    0 -0.27062555492E+02 -0.44893666457E+02 -0.83044851188E+02  0.98205246838E+02  0.00000000000E+00 0.  1.
         12    1    3    3    0    0  0.52800662662E+02 -0.24589875881E+02 -0.81649874258E+02  0.10029593182E+03  0.00000000000E+00 0. -1.
         13    1    5    5    0    0 -0.28732539618E+02 -0.79041176110E+02  0.12064055610E+03  0.14706192618E+03  0.00000000000E+00 0. -1.
        -14    1    5    5    0    0 -0.11553764155E+03 -0.13262935094E+03  0.47727014581E+03  0.50865143608E+03  0.00000000000E+00 0.  1.
          5    1    4    4  501    0  0.93031930718E+02  0.78789845601E+02  0.46962599029E+02  0.13071242485E+03  0.41800000000E+01 0. -1.
         -5    1    4    4    0  501  0.25500143284E+02  0.20236422379E+03  0.15225649644E+03  0.25456050261E+03  0.41800000000E+01 0. -1.
</event>
<event>
11    1  0.9238666E-009  0.1471606E+03  0.7561462E-02  0.1099816E+00
         22   -1    0    0    0    0  0.00000000000E+00  0.00000000000E+00  0.23989968432E+04  0.23989968432E+04  0.00000000000E+00 0. -1.
         22   -1    0    0    0    0 -0.00000000000E+00 -0.00000000000E+00 -0.10127212793E+04  0.10127212793E+04  0.00000000000E+00 0.  1.
        -24    2    1    2    0    0  0.75816785206E+02 -0.16844724580E+02 -0.98947982650E+03  0.99529303713E+03  0.74202244232E+02 0.  0.
         25    2    1    2    0    0 -0.57123735227E+02  0.41317550371E+02  0.24618018661E+03  0.28499283663E+03  0.12508385810E+03 0.  0.
         24    2    1    2    0    0 -0.18693049979E+02 -0.24472825791E+02  0.21295752038E+04  0.21314322487E+04  0.83453776513E+02 0.  0.
        -11    1    5    5    0    0  0.25416636300E+02 -0.27711434471E+02  0.57510402337E+03  0.57633199347E+03  0.00000000000E+00 0.  1.
         12    1    5    5    0    0 -0.44109686279E+02  0.32386086796E+01  0.15544711804E+04  0.15551002552E+04  0.00000000000E+00 0. -1.
         11    1    3    3    0    0 -0.67922707633E+01 -0.68150316940E+01 -0.19444654786E+02  0.21695027053E+02  0.00000000000E+00 0. -1.
        -12    1    3    3    0    0  0.82609055969E+02 -0.10029692886E+02 -0.97003517171E+03  0.97359801007E+03  0.00000000000E+00 0.  1.
          5    1    4    4  501    0 -0.22619677874E+02  0.28725100760E+02  0.24526904681E+03  0.24801443298E+03  0.41800000000E+01 0. -1.
         -5    1    4    4    0  501 -0.34504057353E+02  0.12592449611E+02  0.91113979473E+00  0.36978403653E+02  0.41800000000E+01 0. -1.
</event>
<event>
11    1  0.9238666E-009  0.1816165E+03  0.7561462E-02  0.1068343E+00
         22   -1    0    0    0    0  0.00000000000E+00  0.00000000000E+00  0.49833231817E+02  0.49833231817E+02  0.00000000000E+00 0.  1.
         22   -1    0    0    0    0 -0.00000000000E+00 -0.00000000000E+00 -0.23945235642E+04  0.23945235642E+04  0.00000000000E+00 0. -1.
         24    2    1    2    0    0  0.24673812199E+02  0.72674035604E+02 -0.16913159826E+04  0.16949678058E+04  0.80472338567E+02 0.  0.
         25    2    1    2    0    0 -0.14731315878E+03 -0.29112575703E+02 -0.48228614426E+03  0.52038039936E+03  0.12508847380E+03 0.  0.
        -24    2    1    2    0    0  0.12263934658E+03 -0.43561459901E+02 -0.17108820555E+03  0.22900859087E+03  0.78966768305E+02 0.  0.
        -11    1    3    3    0    0 -0.36014990541E+01  0.65538149614E+02 -0.66360663214E+03  0.66684479609E+03  0.00000000000E+00 0.  1.
         12    1    3    3    0    0  0.28275311253E+02  0.71358859897E+01 -0.10277093505E+04  0.10281230097E+04  0.00000000000E+00 0. -1.
         13    1    5    5    0    0  0.25040037248E+02  0.13670751273E+02 -0.64621827587E+01  0.29251542041E+02  0.00000000000E+00 0. -1.
        -14    1    5    5    0    0  0.97599309334E+02 -0.57232211173E+02 -0.16462602279E+03  0.19975704883E+03  0.00000000000E+00 0.  1.
          5    1    4    4  501    0 -0.17939834938E+02 -0.52718767371E+02 -0.21953153230E+03  0.22652300586E+03  0.41800000000E+01 0. -1.
         -5    1    4    4    0  501 -0.12937332384E+03  0.23606191668E+02 -0.26275461196E+03  0.29385739350E+03  0.41800000000E+01 0. -1.
</event>
<event>
11    1  0.9238666E-009  0.1627331E+03  0.7561462E-02  0.1084535E+00
         22   -1    0    0    0    0  0.00000000000E+00  0.00000000000E+00  0.31007322140E+03  0.31007322140E+03  0.00000000000E+00 0. -1.
         22   -1    0    0    0    0 -0.00000000000E+00 -0.00000000000E+00 -0.14392449437E+04  0.14392449437E+04  0.00000000000E+00 0. -1.
        -24    2    1    2    0    0 -0.76830937074E+02 -0.87483315397E+01 -0.63390288335E+03  0.64361982524E+03  0.80212765365E+02 0.  0.
         25    2    1    2    0    0  0.17920130871E+03  0.16177485782E+02 -0.77031261202E+03  0.80087855711E+03  0.12510045131E+03 0.  0.
         24    2    1    2    0    0 -0.10237037164E+03 -0.74291542423E+01  0.27504377304E+03  0.30481978277E+03  0.82043510129E+02 0.  0.
        -11    1    5    5    0    0 -0.48789562864E+02  0.52258262064E+01  0.39686541754E+02  0.63109050860E+02  0.00000000000E+00 0.  1.
         12    1    5    5    0    0 -0.53580808772E+02 -0.12654980449E+02  0.23535723129E+03  0.24171073191E+03  0.00000000000E+00 0. -1.
         13    1    3    3    0    0 -0.34688974801E+02  0.15493706604E+02 -0.49497524881E+03  0.49643114009E+03  0.00000000000E+00 0. -1.
        -14    1    3    3    0    0 -0.42141962273E+02 -0.24242038143E+02 -0.13892763454E+03  0.14718868516E+03  0.00000000000E+00 0.  1.
          5    1    4    4  501    0  0.15784322396E+03  0.21531366866E+02 -0.41017762336E+03  0.44004685911E+03  0.41800000000E+01 0.  1.
         -5    1    4    4    0  501  0.21358084754E+02 -0.53538810842E+01 -0.36013498866E+03  0.36083169800E+03  0.41800000000E+01 0.  1.
</event>
<event>
11    1  0.1043648E-008  0.1425241E+03  0.7561462E-02  0.1104772E+00
         22   -1    0    0    0    0  0.00000000000E+00  0.00000000000E+00  0.30367674911E+03  0.30367674911E+03  0.00000000000E+00 0. -1.
         22   -1    0    0    0    0 -0.00000000000E+00 -0.00000000000E+00 -0.85309561850E+03  0.85309561850E+03  0.00000000000E+00 0.  1.
        -24    2    1    2    0    0  0.57270725345E+02 -0.28365647507E+02 -0.57686114430E+03  0.58589580261E+03  0.80128432966E+02 0.  0.
         25    2    1    2    0    0 -0.37260779916E+02  0.93232089672E+02 -0.23693807215E+03  0.28612503538E+03  0.12508915849E+03 0.  0.
         24    2    1    2    0    0 -0.20009945429E+02 -0.64866442165E+02  0.26438034706E+03  0.28475152961E+03  0.81107413144E+02 0.  0.
        -13    1    5    5    0    0 -0.34140167603E+02  0.38756632119E+01  0.67592097354E+02  0.75823897513E+02  0.00000000000E+00 0.  1.
         14    1    5    5    0    0  0.14130222174E+02 -0.68742105377E+02  0.19678824971E+03  0.20892763210E+03  0.00000000000E+00 0. -1.
         11    1    3    3    0    0 -0.73052544226E+01  0.15908708784E+02 -0.44699327220E+02  0.48005037353E+02  0.00000000000E+00 0. -1.
        -12    1    3    3    0    0  0.64575979768E+02 -0.44274356291E+02 -0.53216181708E+03  0.53789076526E+03  0.00000000000E+00 0.  1.
          5    1    4    4  501    0 -0.79028812080E+02  0.60274141507E+02 -0.10937366551E+03  0.14784652982E+03  0.41800000000E+01 0.  1.
         -5    1    4    4    0  501  0.41768032164E+02  0.32957948165E+02 -0.12756440664E+03  0.13827850556E+03  0.41800000000E+01 0.  1.
</event>
<event>
11    1  0.9238666E-009  0.1432874E+03  0.7561462E-02  0.1103942E+00
         22   -1    0    0    0    0  0.00000000000E+00  0.00000000000E+00  0.10315664258E+04  0.10315664258E+04  0.00000000000E+00 0. -1.
         22   -1    0    0    0    0 -0.00000000000E+00 -0.00000000000E+00 -0.18537759540E+03  0.18537759540E+03  0.00000000000E+00 0. -1.
         24    2    1    2    0    0  0.10001841619E+01  0.24820757067E+02 -0.13249216823E+03  0.15668425598E+03  0.79866833431E+02 0.  0.
         25    2    1    2    0    0 -0.19644209778E+02 -0.90222945840E+02  0.12309067449E+03  0.19830163878E+03  0.12508457484E+03 0.  0.
        -24    2    1    2    0    0  0.18644025616E+02  0.65402188773E+02  0.85559032416E+03  0.86195812646E+03  0.79447863331E+02 0.  0.
        -13    1    3    3    0    0  0.79041479734E+01 -0.25059976012E+02 -0.78833563144E+02  0.83097584988E+02  0.00000000000E+00 0.  1.
         14    1    3    3    0    0 -0.69039638115E+01  0.49880733080E+02 -0.53658605083E+02  0.73586670996E+02  0.00000000000E+00 0. -1.
         13    1    5    5    0    0  0.48292998441E+02  0.48255894532E+02  0.48373080901E+03  0.48852465715E+03  0.00000000000E+00 0. -1.
        -14    1    5    5    0    0 -0.29648972825E+02  0.17146294241E+02  0.37185951515E+03  0.37343346931E+03  0.00000000000E+00 0.  1.
          5    1    4    4  501    0 -0.46473568889E+02 -0.86261944854E+02  0.31991290558E+02  0.10315924974E+03  0.41800000000E+01 0.  1.
         -5    1    4    4    0  501  0.26829359111E+02 -0.39610009863E+01  0.91099383935E+02  0.95142389041E+02  0.41800000000E+01 0.  1.
</event>
<event>
11    1  0.9238666E-009  0.1511169E+03  0.7561462E-02  0.1095743E+00
         22   -1    0    0    0    0  0.00000000000E+00  0.00000000000E+00  0.16436884172E+03  0.16436884172E+03  0.00000000000E+00 0.  1.
         22   -1    0    0    0    0 -0.00000000000E+00 -0.00000000000E+00 -0.22172804388E+04  0.22172804388E+04  0.00000000000E+00 0.  1.
         24    2    1    2    0    0 -0.34095766003E+02 -0.71584776384E+02 -0.11370977757E+04  0.11426755829E+04  0.80182509343E+02 0.  0.
         25    2    1    2    0    0  0.50763207550E+02  0.82303596395E+02 -0.10606353352E+04  0.10723550341E+04  0.12508884664E+03 0.  0.
        -24    2    1    2    0    0 -0.16667441547E+02 -0.10718820012E+02  0.14482151387E+03  0.16661866352E+03  0.79973817233E+02 0.  0.
        -11    1    3    3    0    0 -0.34293499981E+02 -0.83586322269E+02 -0.10995567119E+04  0.11032622898E+04  0.00000000000E+00 0.  1.
         12    1    3    3    0    0  0.19773397825E+00  0.12001545885E+02 -0.37541063790E+02  0.39413293098E+02  0.00000000000E+00 0. -1.
         13    1    5    5    0    0  0.23305319484E+02 -0.40877048225E+01  0.97337993479E+01  0.25585036578E+02  0.00000000000E+00 0. -1.
        -14    1    5    5    0    0 -0.39972761031E+02 -0.66311151893E+01  0.13508771452E+03  0.14103362694E+03  0.00000000000E+00 0.  1.
          5    1    4    4  501    0  0.87187872301E+02  0.29240243909E+02 -0.69569689145E+03  0.70176089525E+03  0.41800000000E+01 0. -1.
         -5    1    4    4    0  501 -0.36424664751E+02  0.53063352487E+02 -0.36493844379E+03  0.37059413883E+03  0.41800000000E+01 0. -1.
</event>
<event>
11    1  0.9238666E-009  0.1660013E+03  0.7561462E-02  0.1081565E+00
         22   -1    0    0    0    0  0.00000000000E+00  0.00000000000E+00  0.12571984473E+04  0.12571984473E+04  0.00000000000E+00 0.  1.
         22   -1    0    0    0    0 -0.00000000000E+00 -0.00000000000E+00 -0.97983637920E+02  0.97983637920E+02  0.00000000000E+00 0.  1.
         24    2    1    2    0    0  0.10160056000E+03  0.20270942812E+01 -0.99125310337E+00  0.12902865066E+03  0.79502372334E+02 0.  0.
         25    2    1    2    0    0 -0.14396350952E+03 -0.28792988445E+02  0.27573277589E+03  0.33649661564E+03  0.12508749090E+03 0.  0.
        -24    2    1    2    0    0  0.42362949521E+02  0.26765894164E+02  0.88447328664E+03  0.88965681897E+03  0.81763244609E+02 0.  0.
        -13    1    3    3    0    0  0.27656548985E+02  0.37062024906E+02 -0.78995951618E+01  0.46913558761E+02  0.00000000000E+00 0.  1.
         14    1    3    3    0    0  0.73944011010E+02 -0.35034930625E+02  0.69083420584E+01  0.82115091903E+02  0.00000000000E+00 0. -1.
         13    1    5    5    0    0 -0.23782372625E+02  0.87668736759E+00  0.16924734471E+03  0.17091235626E+03  0.00000000000E+00 0. -1.
        -14    1    5    5    0    0  0.66145322147E+02  0.25889206796E+02  0.71522594193E+03  0.71874446271E+03  0.00000000000E+00 0.  1.
          5    1    4    4  501    0 -0.15316656870E+02  0.40810934063E+02  0.89629335185E+02  0.99754811626E+02  0.41800000000E+01 0.  1.
         -5    1    4    4    0  501 -0.12864685265E+03 -0.69603922508E+02  0.18610344071E+03  0.23674180401E+03  0.41800000000E+01 0.  1.
</event>
<event>
11    1  0.9238666E-009  0.1597628E+03  0.7561462E-02  0.1087301E+00
         22   -1    0    0    0    0  0.00000000000E+00  0.00000000000E+00  0.31045664767E+03  0.31045664767E+03  0.00000000000E+00 0.  1.
         22   -1    0    0    0    0 -0.00000000000E+00 -0.00000000000E+00 -0.12559594095E+04  0.12559594095E+04  0.00000000000E+00 0.  1.
        -24    2    1    2    0    0 -0.83862787437E+01 -0.27291703216E+02 -0.71411035450E+03  0.71949671929E+03  0.83106942739E+02 0.  0.
         25    2    1    2    0    0 -0.54019170726E+02  0.10411202899E+03 -0.51130977122E+03  0.53929774128E+03  0.12508791395E+03 0.  0.
         24    2    1    2    0    0  0.62405449470E+02 -0.76820325770E+02  0.27991736390E+03  0.30762159659E+03  0.80507847442E+02 0.  0.
        -13    1    5    5    0    0  0.79536613267E+02 -0.76565271919E+02  0.23933124130E+03  0.26356736668E+03  0.00000000000E+00 0.  1.
         14    1    5    5    0    0 -0.17131163797E+02 -0.25505385173E+00  0.40586122597E+02  0.44054229910E+02  0.00000000000E+00 0. -1.
         13    1    3    3    0    0  0.27119193549E+02  0.15343688616E+02 -0.20191881759E+03  0.20430880631E+03  0.00000000000E+00 0. -1.
        -14    1    3    3    0    0 -0.35505472293E+02 -0.42635391832E+02 -0.51219153691E+03  0.51518791298E+03  0.00000000000E+00 0.  1.
          5    1    4    4  501    0 -0.87874901729E+02  0.51129357928E+02 -0.38390886796E+03  0.39716457659E+03  0.41800000000E+01 0.  1.
         -5    1    4    4    0  501  0.33855731003E+02  0.52982671058E+02 -0.12740090326E+03  0.14213316469E+03  0.41800000000E+01 0.  1.
</event>
<event>
11    1  0.9238666E-009  0.1289147E+03  0.7561462E-02  0.1120610E+00
         22   -1    0    0    0    0  0.00000000000E+00  0.00000000000E+00  0.11900975463E+04  0.11900975463E+04  0.00000000000E+00 0. -1.
         22   -1    0    0    0    0 -0.00000000000E+00 -0.00000000000E+00 -0.41711694115E+03  0.41711694115E+03  0.00000000000E+00 0.  1.
         24    2    1    2    0    0  0.17772115774E+00 -0.23183576466E+02 -0.36402115187E+03  0.37350772270E+03  0.80368589029E+02 0.  0.
         25    2    1    2    0    0 -0.19498802970E+02 -0.22004231213E+01  0.39913163829E+02  0.13276027172E+03  0.12508870421E+03 0.  0.
        -24    2    1    2    0    0  0.19321081812E+02  0.25383999587E+02  0.10970885932E+04  0.11009464930E+04  0.86383722773E+02 0.  0.
        -13    1    3    3    0    0 -0.38665355489E+00 -0.48000786691E+02 -0.31419090363E+03  0.31783667024E+03  0.00000000000E+00 0.  1.
         14    1    3    3    0    0  0.56437471263E+00  0.24817210225E+02 -0.49830248239E+02  0.55671052457E+02  0.00000000000E+00 0. -1.
         13    1    5    5    0    0  0.32165719332E+02  0.19950366235E+01  0.99199019974E+03  0.99251356165E+03  0.00000000000E+00 0. -1.
        -14    1    5    5    0    0 -0.12844637521E+02  0.23388962963E+02  0.10509839342E+03  0.10843293135E+03  0.00000000000E+00 0.  1.
          5    1    4    4  501    0  0.47785619079E+02  0.13826669513E+02 -0.50214971804E+01  0.50173000852E+02  0.41800000000E+01 0. -1.
         -5    1    4    4    0  501 -0.67284422049E+02 -0.16027092634E+02  0.44934661009E+02  0.82587270864E+02  0.41800000000E+01 0. -1.
</event>
<event>
11    1  0.9238666E-009  0.1579019E+03  0.7561462E-02  0.1089067E+00
         22   -1    0    0    0    0  0.00000000000E+00  0.00000000000E+00  0.53234598925E+03  0.53234598925E+03  0.00000000000E+00 0. -1.
         22   -1    0    0    0    0 -0.00000000000E+00 -0.00000000000E+00 -0.95365500402E+03  0.95365500402E+03  0.00000000000E+00 0.  1.
         24    2    1    2    0    0 -0.45016328326E+02  0.78372983880E+01 -0.76046760689E+03  0.76591179562E+03  0.78879683566E+02 0.  0.
         25    2    1    2    0    0  0.11516746011E+03 -0.71536737236E+02 -0.13597934287E+03  0.22917035703E+03  0.12509045612E+03 0.  0.
        -24    2    1    2    0    0 -0.70151131781E+02  0.63699438848E+02  0.47513793500E+03  0.49091884062E+03  0.79160918410E+02 0.  0.
        -13    1    3    3    0    0 -0.62789734986E+02 -0.11125390187E+02 -0.47452076170E+03  0.47878625545E+03  0.00000000000E+00 0.  1.
         14    1    3    3    0    0  0.17773406660E+02  0.18962688575E+02 -0.28594684519E+03  0.28712554017E+03  0.00000000000E+00 0. -1.
         11    1    5    5    0    0 -0.81302843341E+02  0.69371620428E+02  0.45350488182E+03  0.46592837635E+03  0.00000000000E+00 0. -1.
        -12    1    5    5    0    0  0.11151711559E+02 -0.56721815792E+01  0.21633053175E+02  0.24990464266E+02  0.00000000000E+00 0.  1.
          5    1    4    4  501    0  0.16275906060E+02 -0.82765263023E+02 -0.69930017313E+02  0.10964795303E+03  0.41800000000E+01 0.  1.
         -5    1    4    4    0  501  0.98891554047E+02  0.11228525786E+02 -0.66049325559E+02  0.11952240401E+03  0.41800000000E+01 0.  1.
</event>
<event>
11    1  0.9238666E-009  0.1765449E+03  0.7561462E-02  0.1072472E+00
         22   -1    0    0    0    0  0.00000000000E+00  0.00000000000E+00  0.48533211225E+03  0.48533211225E+03  0.00000000000E+00 0.  1.
         22   -1    0    0    0    0 -0.00000000000E+00 -0.00000000000E+00 -0.50277830855E+03  0.50277830855E+03  0.00000000000E+00 0.  1.
         24    2    1    2    0    0 -0.38992222488E+02  0.12019626630E+03 -0.41128663548E+03  0.43770463761E+03  0.80381076269E+02 0.  0.
         25    2    1    2    0    0  0.67450442686E+02 -0.94493076219E+02  0.25730238265E+02  0.17258696096E+03  0.12508281361E+03 0.  0.
        -24    2    1    2    0    0 -0.28458220198E+02 -0.25703190079E+02  0.36811020091E+03  0.37781882221E+03  0.75969850121E+02 0.  0.
        -13    1    3    3    0    0 -0.13386091998E+02  0.11904236689E+03 -0.29053333502E+03  0.31426086510E+03  0.00000000000E+00 0.  1.
         14    1    3    3    0    0 -0.25606130490E+02  0.11538994078E+01 -0.12075330045E+03  0.12344377252E+03  0.00000000000E+00 0. -1.
         11    1    5    5    0    0 -0.30249378905E+02  0.36283847600E+01  0.51418472031E+02  0.59766624182E+02  0.00000000000E+00 0. -1.
        -12    1    5    5    0    0  0.17911587070E+01 -0.29331574839E+02  0.31669172888E+03  0.31805219803E+03  0.00000000000E+00 0.  1.
          5    1    4    4  501    0  0.46278427560E+00  0.28664228989E+02 -0.39003255069E+01  0.29232467085E+02  0.41800000000E+01 0. -1.
         -5    1    4    4    0  501  0.66987658411E+02 -0.12315730521E+03  0.29630563772E+02  0.14335449388E+03  0.41800000000E+01 0. -1.
</event>
<event>
11    1  0.9238666E-009  0.1338086E+03  0.7561462E-02  0.1114676E+00
         22   -1    0    0    0    0  0.00000000000E+00  0.00000000000E+00  0.66594043476E+03  0.66594043476E+03  0.00000000000E+00 0. -1.
         22   -1    0    0    0    0 -0.00000000000E+00 -0.00000000000E+00 -0.83925701285E+03  0.83925701285E+03  0.00000000000E+00 0. -1.
         24    2    1    2    0    0  0.42005824331E+02  0.73675317752E+01 -0.68592798266E+03  0.69208798997E+03  0.81668957700E+02 0.  0.
         25    2    1    2    0    0 -0.62137905731E+01 -0.39599986356E+02 -0.11707051409E+03  0.17595133270E+03  0.12508635455E+03 0.  0.
        -24    2    1    2    0    0 -0.35792033758E+02  0.32232454581E+02  0.62968191866E+03  0.63715812495E+03  0.84564511971E+02 0.  0.
        -13    1    3    3    0    0  0.70683974764E+01 -0.13548804038E+02 -0.21306209630E+02  0.26219971444E+02  0.00000000000E+00 0.  1.
         14    1    3    3    0    0  0.34937426855E+02  0.20916335814E+02 -0.66462177303E+03  0.66586801852E+03  0.00000000000E+00 0. -1.
         11    1    5    5    0    0 -0.34844169540E+02  0.38260075437E+02  0.62887816575E+03  0.63100372177E+03  0.00000000000E+00 0. -1.
        -12    1    5    5    0    0 -0.94786421837E+00 -0.60276208564E+01  0.80375291177E+00  0.61544031805E+01  0.00000000000E+00 0.  1.
          5    1    4    4  501    0  0.49691920971E+02  0.15990994281E+02 -0.48603977012E+02  0.71448008295E+02  0.41800000000E+01 0.  1.
         -5    1    4    4    0  501 -0.55905711544E+02 -0.55590980637E+02 -0.68466537078E+02  0.10450332440E+03  0.41800000000E+01 0.  1.
</event>
<event>
11    1  0.9238666E-009  0.2795422E+03  0.7561462E-02  0.1009241E+00
         22   -1    0    0    0    0  0.00000000000E+00  0.00000000000E+00  0.37196309798E+03  0.37196309798E+03  0.00000000000E+00 0. -1.
         22   -1    0    0    0    0 -0.00000000000E+00 -0.00000000000E+00 -0.18954781898E+04  0.18954781898E+04  0.00000000000E+00 0. -1.
        -24    2    1    2    0    0  0.31462214800E+02 -0.33827202596E+02 -0.16430983999E+04  0.16456767587E+04  0.79658596793E+02 0.  0.
         25    2    1    2    0    0 -0.26959231202E+03 -0.17709760329E+02 -0.66563719667E+02  0.30507919639E+03  0.12509571129E+03 0.  0.
         24    2    1    2    0    0  0.23813009722E+03  0.51536962925E+02  0.18614702769E+03  0.31668533267E+03  0.79226777404E+02 0.  0.
        -13    1    5    5    0    0  0.56639933403E+02 -0.21468177538E+02  0.43114942246E+02  0.74349599512E+02  0.00000000000E+00 0.  1.
         14    1    5    5    0    0  0.18149016382E+03  0.73005140463E+02  0.14303208544E+03  0.24233573315E+03  0.00000000000E+00 0. -1.
         11    1    3    3    0    0 -0.35303104278E+01 -0.50561143609E+02 -0.73168331751E+03  0.73343668401E+03  0.00000000000E+00 0. -1.
        -12    1    3    3    0    0  0.34992525228E+02  0.16733941013E+02 -0.91141508234E+03  0.91224007472E+03  0.00000000000E+00 0.  1.
          5    1    4    4  501    0 -0.96521357690E+02 -0.11966288997E+02 -0.87128382298E+02  0.13064605606E+03  0.41800000000E+01 0.  1.
         -5    1    4    4    0  501 -0.17307095433E+03 -0.57434713319E+01  0.20564662631E+02  0.17443314033E+03  0.41800000000E+01 0.  1.
</event>
<event>
11    1  0.9538669E-009  0.1522084E+03  0.7561462E-02  0.1094643E+00
         22   -1    0    0    0    0  0.00000000000E+00  0.00000000000E+00  0.25226636604E+04  0.25226636604E+04  0.00000000000E+00 0. -1.
         22   -1    0    0    0    0 -0.00000000000E+00 -0.00000000000E+00 -0.41592333485E+03  0.41592333485E+03  0.00000000000E+00 0. -1.
         24    2    1    2    0    0 -0.26819351379E+01  0.28535520145E+00 -0.28729418051E+03  0.29679141437E+03  0.74430660955E+02 0.  0.
         25    2    1    2    0    0  0.83417544717E+02  0.31294011707E+02 -0.74355934206E+02  0.17062782801E+03  0.12508896356E+03 0.  0.
        -24    2    1    2    0    0 -0.80735609579E+02 -0.31579366909E+02  0.24683904403E+04  0.24711677529E+04  0.78760409859E+02 0.  0.
        -11    1    3    3    0    0 -0.19021475477E+02  0.21345955824E+02 -0.46928669336E+02  0.54952400903E+02  0.00000000000E+00 0.  1.
         12    1    3    3    0    0  0.16339540339E+02 -0.21060600622E+02 -0.24036551117E+03  0.24183901347E+03  0.00000000000E+00 0. -1.
         13    1    5    5    0    0 -0.53143981738E+02 -0.51703624192E+01  0.21231147883E+04  0.21237861050E+04  0.00000000000E+00 0. -1.
        -14    1    5    5    0    0 -0.27591627841E+02 -0.26409004489E+02  0.34527565203E+03  0.34738164795E+03  0.00000000000E+00 0.  1.
          5    1    4    4  501    0 -0.13291804494E+02 -0.17634768758E+02 -0.56368027085E+02  0.60683473972E+02  0.41800000000E+01 0. -1.
         -5    1    4    4    0  501  0.96709349211E+02  0.48928780465E+02 -0.17987907121E+02  0.10994435404E+03  0.41800000000E+01 0. -1.
</event>
<event>
11    1  0.1535081E-008  0.2464904E+03  0.7561462E-02  0.1025786E+00
         22   -1    0    0    0    0  0.00000000000E+00  0.00000000000E+00  0.99372721144E+03  0.99372721144E+03  0.00000000000E+00 0.  1.
         22   -1    0    0    0    0 -0.00000000000E+00 -0.00000000000E+00 -0.88391575724E+03  0.88391575724E+03  0.00000000000E+00 0. -1.
        -24    2    1    2    0    0 -0.96465319764E+02  0.86205667085E+00 -0.57079125640E+03  0.58155313165E+03  0.55633492546E+02 0.  0.
         25    2    1    2    0    0 -0.84027373688E+02  0.11810261222E+03 -0.26208624223E+03  0.32457003503E+03  0.12509069801E+03 0.  0.
         24    2    1    2    0    0  0.18049269345E+03 -0.11896466889E+03  0.94268895283E+03  0.97151980200E+03  0.91967706556E+02 0.  0.
        -11    1    5    5    0    0  0.17269167788E+03 -0.12650444966E+03  0.93207646798E+03  0.95634320908E+03  0.00000000000E+00 0.  1.
         12    1    5    5    0    0  0.78010155707E+01  0.75397807643E+01  0.10612484858E+02  0.15176592923E+02  0.00000000000E+00 0. -1.
         13    1    3    3    0    0 -0.39067823062E+01  0.16468200735E+01 -0.17619337660E+03  0.17624437841E+03  0.00000000000E+00 0. -1.
        -14    1    3    3    0    0 -0.92558537458E+02 -0.78476340267E+00 -0.39459787980E+03  0.40530875324E+03  0.00000000000E+00 0.  1.
          5    1    4    4  501    0 -0.93263434844E+02  0.95676755731E+02 -0.11772411106E+03  0.17812509254E+03  0.41800000000E+01 0. -1.
         -5    1    4    4    0  501  0.92360611556E+01  0.22425856492E+02 -0.14436213117E+03  0.14644494249E+03  0.41800000000E+01 0. -1.
</event>
<event>
11    1  0.9238666E-009  0.1311197E+03  0.7561462E-02  0.1117901E+00
         22   -1    0    0    0    0  0.00000000000E+00  0.00000000000E+00  0.14946848281E+04  0.14946848281E+04  0.00000000000E+00 0. -1.
         22   -1    0    0    0    0 -0.00000000000E+00 -0.00000000000E+00 -0.92231299339E+02  0.92231299339E+02  0.00000000000E+00 0. -1.
         24    2    1    2    0    0  0.14768338453E+02 -0.32181405968E+02 -0.58086230793E+02  0.10537255689E+03  0.80471229815E+02 0.  0.
         25    2    1    2    0    0 -0.44584862373E+02  0.36708353169E+01  0.54578057402E+03  0.56171654903E+03  0.12509101286E+03 0.  0.
        -24    2    1    2    0    0  0.29816523919E+02  0.28510570651E+02  0.91475918558E+03  0.91982702155E+03  0.87152190118E+02 0.  0.
        -11    1    3    3    0    0  0.18642786671E+01  0.25515300982E+02 -0.53256376711E+01  0.26131753400E+02  0.00000000000E+00 0.  1.
         12    1    3    3    0    0  0.12904059786E+02 -0.57696706950E+02 -0.52760593121E+02  0.79240803494E+02  0.00000000000E+00 0. -1.
         13    1    5    5    0    0  0.18559918415E+02  0.20457729586E+02  0.89644875400E+03  0.89687421516E+03  0.00000000000E+00 0. -1.
        -14    1    5    5    0    0  0.11256605504E+02  0.80528410650E+01  0.18310431575E+02  0.22952806390E+02  0.00000000000E+00 0.  1.
          5    1    4    4  501    0 -0.42251708070E+02 -0.70080741265E+01  0.50710808994E+02  0.66508484320E+02  0.41800000000E+01 0.  1.
         -5    1    4    4    0  501 -0.23331543030E+01  0.10678909443E+02  0.49506976503E+03  0.49520806471E+03  0.41800000000E+01 0.  1.
</event>
<event>
11    1  0.9238666E-009  0.1426382E+03  0.7561462E-02  0.1104648E+00
         22   -1    0    0    0    0  0.00000000000E+00  0.00000000000E+00  0.67482667261E+02  0.67482667261E+02  0.00000000000E+00 0.  1.
         22   -1    0    0    0    0 -0.00000000000E+00 -0.00000000000E+00 -0.16766513354E+04  0.16766513354E+04  0.00000000000E+00 0.  1.
         24    2    1    2    0    0  0.32027489859E+02 -0.62473174432E+02 -0.11410389432E+04  0.11460232644E+04  0.80441252374E+02 0.  0.
         25    2    1    2    0    0 -0.17078446592E+02  0.60663392862E+02 -0.49068545140E+03  0.51028580019E+03  0.12509062751E+03 0.  0.
        -24    2    1    2    0    0 -0.14949043267E+02  0.18097815698E+01  0.22555726453E+02  0.87824938047E+02  0.83532686675E+02 0.  0.
        -11    1    3    3    0    0  0.44944103133E+01 -0.55556854979E+02 -0.10267339914E+04  0.10282458135E+04  0.00000000000E+00 0.  1.
         12    1    3    3    0    0  0.27533079546E+02 -0.69163194524E+01 -0.11430495177E+03  0.11777745091E+03  0.00000000000E+00 0. -1.
         11    1    5    5    0    0  0.18637204258E+02  0.80989166455E+01 -0.23120821412E+02  0.30781653889E+02  0.00000000000E+00 0. -1.
        -12    1    5    5    0    0 -0.33586247524E+02 -0.62891350757E+01  0.45676547864E+02  0.57043284158E+02  0.00000000000E+00 0.  1.
          5    1    4    4  501    0 -0.39845209354E+02  0.86111468663E+02 -0.25518398190E+03  0.27228507627E+03  0.41800000000E+01 0.  1.
         -5    1    4    4    0  501  0.22766762762E+02 -0.25448075801E+02 -0.23550146950E+03  0.23800072392E+03  0.41800000000E+01 0.  1.
</event>
<event>
11    1  0.9238666E-009  0.1329040E+03  0.7561462E-02  0.1115751E+00
         22   -1    0    0    0    0  0.00000000000E+00  0.00000000000E+00  0.10705419073E+04  0.10705419073E+04  0.00000000000E+00 0. -1.
         22   -1    0    0    0    0 -0.00000000000E+00 -0.00000000000E+00 -0.13647992854E+03  0.13647992854E+03  0.00000000000E+00 0.  1.
         24    2    1    2    0    0  0.47093752957E+02  0.73229191319E+01 -0.94332897263E+02  0.13236199133E+03  0.79684092077E+02 0.  0.
         25    2    1    2    0    0 -0.14399810791E+02 -0.16824929882E+02  0.17185198541E+03  0.21370586773E+03  0.12508661078E+03 0.  0.
        -24    2    1    2    0    0 -0.32693942166E+02  0.95020107503E+01  0.85654289059E+03  0.86095397676E+03  0.80105209758E+02 0.  0.
        -11    1    3    3    0    0  0.21880950306E+01 -0.32032892816E+02 -0.42689671109E+02  0.53416308384E+02  0.00000000000E+00 0.  1.
         12    1    3    3    0    0  0.44905657927E+02  0.39355811948E+02 -0.51643226154E+02  0.78945682944E+02  0.00000000000E+00 0. -1.
         13    1    5    5    0    0 -0.43148723749E+02  0.84010263076E+01  0.84124178538E+03  0.84238953642E+03  0.00000000000E+00 0. -1.
        -14    1    5    5    0    0  0.10454781583E+02  0.11009844427E+01  0.15301105205E+02  0.18564440341E+02  0.00000000000E+00 0.  1.
          5    1    4    4  501    0 -0.32419506243E+02 -0.45041642659E+01  0.18497504877E+03  0.18789505834E+03  0.41800000000E+01 0. -1.
         -5    1    4    4    0  501  0.18019695453E+02 -0.12320765616E+02 -0.13123063358E+02  0.25810809392E+02  0.41800000000E+01 0. -1.
</event>
<event>
11    1  0.9238666E-009  0.2152280E+03  0.7561462E-02  0.1044249E+00
         22   -1    0    0    0    0  0.00000000000E+00  0.00000000000E+00  0.18812482019E+04  0.18812482019E+04  0.00000000000E+00 0.  1.
         22   -1    0    0    0    0 -0.00000000000E+00 -0.00000000000E+00 -0.40099567154E+03  0.40099567154E+03  0.00000000000E+00 0. -1.
        -24    2    1    2    0    0  0.11409893236E+01  0.41065631617E+02 -0.37097292425E+03  0.38167063810E+03  0.79773914933E+02 0.  0.
         25    2    1    2    0    0 -0.15356053768E+03 -0.11338902626E+03  0.76379779694E+03  0.79716529511E+03  0.12509005998E+03 0.  0.
         24    2    1    2    0    0  0.15241954835E+03  0.72323394639E+02  0.10874276577E+04  0.11034079403E+04  0.80918352580E+02 0.  0.
        -13    1    5    5    0    0  0.14869686263E+03  0.39279730314E+02  0.88321006995E+03  0.89650079857E+03  0.00000000000E+00 0.  1.
         14    1    5    5    0    0  0.37226857269E+01  0.33043664326E+02  0.20421758773E+03  0.20690714168E+03  0.00000000000E+00 0. -1.
         11    1    3    3    0    0  0.37323671799E+02  0.24312055301E+02 -0.25917757860E+03  0.26297747006E+03  0.00000000000E+00 0. -1.
        -12    1    3    3    0    0 -0.36182682475E+02  0.16753576316E+02 -0.11179534565E+03  0.11869316804E+03  0.00000000000E+00 0.  1.
          5    1    4    4  501    0 -0.72140272948E+01 -0.75743145453E+02  0.28943633714E+03  0.29929906771E+03  0.41800000000E+01 0.  1.
         -5    1    4    4    0  501 -0.14634651038E+03 -0.37645880803E+02  0.47436145980E+03  0.49786622740E+03  0.41800000000E+01 0.  1.
</event>
<event>
11    1  0.9238666E-009  0.1386972E+03  0.7561462E-02  0.1109022E+00
         22   -1    0    0    0    0  0.00000000000E+00  0.00000000000E+00  0.41436823631E+03  0.41436823631E+03  0.00000000000E+00 0.  1.
         22   -1    0    0    0    0 -0.00000000000E+00 -0.00000000000E+00 -0.44461916472E+03  0.44461916472E+03  0.00000000000E+00 0. -1.
         24    2    1    2    0    0  0.33883987733E+02  0.50454695027E+02 -0.35353496174E+03  0.36770072388E+03  0.80765415195E+02 0.  0.
         25    2    1    2    0    0 -0.45610918786E+02 -0.32185316364E+02 -0.19508913916E+02  0.13837020569E+03  0.12509782411E+03 0.  0.
        -24    2    1    2    0    0  0.11726931053E+02 -0.18269378663E+02  0.34279294725E+03  0.35291647146E+03  0.81066269410E+02 0.  0.
        -11    1    3    3    0    0  0.12568455158E+02  0.16826044236E+02 -0.12689797097E+02  0.24537986471E+02  0.00000000000E+00 0.  1.
         12    1    3    3    0    0  0.21315532575E+02  0.33628650791E+02 -0.34084516464E+03  0.34316273741E+03  0.00000000000E+00 0. -1.
         11    1    5    5    0    0  0.56776977247E+00 -0.18001337320E+02  0.11355828022E+02  0.21291438136E+02  0.00000000000E+00 0. -1.
        -12    1    5    5    0    0  0.11159161280E+02 -0.26804134357E+00  0.33143711923E+03  0.33162503333E+03  0.00000000000E+00 0.  1.
          5    1    4    4  501    0 -0.74483746751E+01 -0.29806330167E+02  0.50055074682E+02  0.58880204694E+02  0.41800000000E+01 0.  1.
         -5    1    4    4    0  501 -0.38162544110E+02 -0.23789861968E+01 -0.69563988598E+02  0.79490000994E+02  0.41800000000E+01 0.  1.
</event>
<event>
11    1  0.9238666E-009  0.1600379E+03  0.7561462E-02  0.1087042E+00
         22   -1    0    0    0    0  0.00000000000E+00  0.00000000000E+00  0.93455859563E+03  0.93455859563E+03  0.00000000000E+00 0.  1.
         22   -1    0    0    0    0 -0.00000000000E+00 -0.00000000000E+00 -0.19232303134E+04  0.19232303134E+04  0.00000000000E+00 0. -1.
        -24    2    1    2    0    0  0.93831629692E+02  0.33780844299E+02 -0.15819194527E+04  0.15870430837E+04  0.79316293560E+02 0.  0.
         25    2    1    2    0    0 -0.78329945313E+02 -0.76165742902E+02 -0.31583603675E+03  0.35684132551E+03  0.12508608539E+03 0.  0.
         24    2    1    2    0    0 -0.15501684379E+02  0.42384898603E+02  0.90908377173E+03  0.91390449980E+03  0.82166592281E+02 0.  0.
        -11    1    5    5    0    0  0.18755765097E+02  0.38898199892E+02  0.23454153746E+03  0.23848392289E+03  0.00000000000E+00 0.  1.
         12    1    5    5    0    0 -0.34257449477E+02  0.34866987110E+01  0.67454223426E+03  0.67542057691E+03  0.00000000000E+00 0. -1.
         13    1    3    3    0    0  0.82685810163E+02  0.32273875769E+02 -0.77831606445E+03  0.78336099114E+03  0.00000000000E+00 0. -1.
        -14    1    3    3    0    0  0.11145819530E+02  0.15069685301E+01 -0.80360338825E+03  0.80368209253E+03  0.00000000000E+00 0.  1.
          5    1    4    4  501    0 -0.36379338760E+02 -0.10748170055E+03 -0.21832226481E+03  0.24608505837E+03  0.41800000000E+01 0.  1.
         -5    1    4    4    0  501 -0.41950606553E+02  0.31315957643E+02 -0.97513771942E+02  0.11075626714E+03  0.41800000000E+01 0.  1.
</event>
<event>
11    1  0.9238666E-009  0.1418731E+03  0.7561462E-02  0.1105485E+00
         22   -1    0    0    0    0  0.00000000000E+00  0.00000000000E+00  0.93311321707E+03  0.93311321707E+03  0.00000000000E+00 0. -1.
         22   -1    0    0    0    0 -0.00000000000E+00 -0.00000000000E+00 -0.25318099653E+03  0.25318099653E+03  0.00000000000E+00 0.  1.
         24    2    1    2    0    0  0.61698614122E+02  0.29499854614E+02 -0.21478050501E+03  0.23926715272E+03  0.80256741964E+02 0.  0.
         25    2    1    2    0    0 -0.51020319449E+02  0.52620480989E+01  0.16948452896E+03  0.21680148251E+03  0.12508842919E+03 0.  0.
        -24    2    1    2    0    0 -0.10678294674E+02 -0.34761902713E+02  0.72522819660E+03  0.73022557837E+03  0.77142999017E+02 0.  0.
        -11    1    3    3    0    0  0.54649083264E+02  0.21322856058E+02 -0.21970445812E+03  0.22740104532E+03  0.00000000000E+00 0.  1.
         12    1    3    3    0    0  0.70495308585E+01  0.81769985564E+01  0.49239531095E+01  0.11866107405E+02  0.00000000000E+00 0. -1.
         11    1    5    5    0    0 -0.10812556426E+02  0.84530293875E+00  0.59827695588E+03  0.59837525170E+03  0.00000000000E+00 0. -1.
        -12    1    5    5    0    0  0.13426175234E+00 -0.35607205652E+02  0.12695124072E+03  0.13185032666E+03  0.00000000000E+00 0.  1.
          5    1    4    4  501    0 -0.10330354463E+02  0.24179050433E+01  0.17505141566E+03  0.17542244159E+03  0.41800000000E+01 0.  1.
         -5    1    4    4    0  501 -0.40689964985E+02  0.28441430556E+01 -0.55668867023E+01  0.41379040924E+02  0.41800000000E+01 0.  1.
</event>
<event>
11    1  0.9279158E-009  0.1603324E+03  0.7561462E-02  0.1086765E+00
         22   -1    0    0    0    0  0.00000000000E+00  0.00000000000E+00  0.25168156911E+03  0.25168156911E+03  0.00000000000E+00 0.  1.
         22   -1    0    0    0    0 -0.00000000000E+00 -0.00000000000E+00 -0.16503853442E+04  0.16503853442E+04  0.00000000000E+00 0.  1.
         24    2    1    2    0    0 -0.95667684495E+02  0.25197825856E+02 -0.14885289834E+04  0.14940684233E+04  0.82065113300E+02 0.  0.
         25    2    1    2    0    0 -0.18162987625E+02 -0.27702492915E+02 -0.10553371571E+03  0.16698253051E+03  0.12509387719E+03 0.  0.
        -24    2    1    2    0    0  0.11383067212E+03  0.25046670594E+01  0.19535892404E+03  0.24101595948E+03  0.83425944707E+02 0.  0.
        -13    1    3    3    0    0 -0.96714509777E+02  0.24456696811E+02 -0.14892564151E+04  0.14925938819E+04  0.00000000000E+00 0.  1.
         14    1    3    3    0    0  0.10468252828E+01  0.74112904441E+00  0.72743170064E+00  0.14745413905E+01  0.00000000000E+00 0. -1.
         11    1    5    5    0    0  0.51791881805E+02  0.13670320592E+02  0.24505319028E+02  0.58904900871E+02  0.00000000000E+00 0. -1.
        -12    1    5    5    0    0  0.62038790315E+02 -0.11165653533E+02  0.17085360501E+03  0.18211105861E+03  0.00000000000E+00 0.  1.
          5    1    4    4  501    0  0.29678397132E+02 -0.54732414023E+01  0.16010638250E+02  0.34417678087E+02  0.41800000000E+01 0. -1.
         -5    1    4    4    0  501 -0.47841384757E+02 -0.22229251513E+02 -0.12154435396E+03  0.13256485243E+03  0.41800000000E+01 0. -1.
</event>
<event>
11    1  0.9238666E-009  0.2126271E+03  0.7561462E-02  0.1045937E+00
         22   -1    0    0    0    0  0.00000000000E+00  0.00000000000E+00  0.95826707317E+03  0.95826707317E+03  0.00000000000E+00 0. -1.
         22   -1    0    0    0    0 -0.00000000000E+00 -0.00000000000E+00 -0.13320623475E+04  0.13320623475E+04  0.00000000000E+00 0. -1.
         24    2    1    2    0    0 -0.61012103385E+02 -0.14259313064E+03 -0.64274076886E+03  0.66598043636E+03  0.79743137622E+02 0.  0.
         25    2    1    2    0    0  0.63927178017E+02  0.19235865519E+03 -0.65435044644E+03  0.69636303489E+03  0.12513366170E+03 0.  0.
        -24    2    1    2    0    0 -0.29150746325E+01 -0.49765524557E+02  0.92329594101E+03  0.92798594937E+03  0.78723709588E+02 0.  0.
        -13    1    3    3    0    0 -0.85583743349E+01 -0.10029967276E+03 -0.29305411474E+03  0.30986123393E+03  0.00000000000E+00 0.  1.
         14    1    3    3    0    0 -0.52453729050E+02 -0.42293457874E+02 -0.34968665412E+03  0.35611920243E+03  0.00000000000E+00 0. -1.
         11    1    5    5    0    0  0.34039208425E+01 -0.19845128628E+02  0.82027592205E+03  0.82052300644E+03  0.00000000000E+00 0. -1.
        -12    1    5    5    0    0 -0.63189954750E+01 -0.29920395929E+02  0.10302001896E+03  0.10746294293E+03  0.00000000000E+00 0.  1.
          5    1    4    4  501    0  0.75832253991E+02  0.54527231601E+02 -0.18892048703E+03  0.21078940332E+03  0.41800000000E+01 0.  1.
         -5    1    4    4    0  501 -0.11905075974E+02  0.13783142359E+03 -0.46542995941E+03  0.48557363157E+03  0.41800000000E+01 0.  1.
</event>
<event>
11    1  0.9238666E-009  0.1505300E+03  0.7561462E-02  0.1096338E+00
         22   -1    0    0    0    0  0.00000000000E+00  0.00000000000E+00  0.12028582724E+04  0.12028582724E+04  0.00000000000E+00 0. -1.
         22   -1    0    0    0    0 -0.00000000000E+00 -0.00000000000E+00 -0.54930977553E+03  0.54930977553E+03  0.00000000000E+00 0. -1.
        -24    2    1    2    0    0  0.43051028993E+02  0.60713906131E+02 -0.48973802042E+03  0.50184209041E+03  0.80390208150E+02 0.  0.
         25    2    1    2    0    0 -0.10626091586E+03 -0.52816685718E+01  0.82998216500E+02  0.18399490292E+03  0.12508453980E+03 0.  0.
         24    2    1    2    0    0  0.63209886863E+02 -0.55432237559E+02  0.10602883008E+04  0.10663310546E+04  0.76042188688E+02 0.  0.
        -13    1    5    5    0    0  0.41696583060E+02  0.41116739567E+01  0.24226551919E+03  0.24586193827E+03  0.00000000000E+00 0.  1.
         14    1    5    5    0    0  0.21513303803E+02 -0.59543911516E+02  0.81802278164E+03  0.82046911637E+03  0.00000000000E+00 0. -1.
         11    1    3    3    0    0  0.52740365622E+02  0.25810832947E+02 -0.41098027108E+03  0.41515362034E+03  0.00000000000E+00 0. -1.
        -12    1    3    3    0    0 -0.96893366284E+01  0.34903073184E+02 -0.78757749334E+02  0.86688470065E+02  0.00000000000E+00 0.  1.
          5    1    4    4  501    0 -0.34727146762E+02 -0.34774529620E+02 -0.21580388759E+02  0.53837052403E+02  0.41800000000E+01 0.  1.
         -5    1    4    4    0  501 -0.71533769095E+02  0.29492861048E+02  0.10457860526E+03  0.13015785052E+03  0.41800000000E+01 0.  1.
</event>
<event>
11    1  0.9238666E-009  0.2576223E+03  0.7561462E-02  0.1019915E+00
         22   -1    0    0    0    0  0.00000000000E+00  0.00000000000E+00  0.28496427897E+03  0.28496427897E+03  0.00000000000E+00 0. -1.
         22   -1    0    0    0    0 -0.00000000000E+00 -0.00000000000E+00 -0.61189993288E+03  0.61189993288E+03  0.00000000000E+00 0.  1.
        -24    2    1    2    0    0  0.76714946823E+02  0.21561298569E+03 -0.17346900666E+03  0.29823395268E+03  0.80485101694E+02 0.  0.
         25    2    1    2    0    0 -0.13876490079E+03 -0.18003133947E+03 -0.31318200688E+03  0.40669660592E+03  0.12510866857E+03 0.  0.
         24    2    1    2    0    0  0.62049953967E+02 -0.35581646219E+02  0.15971535963E+03  0.19193365324E+03  0.78824366855E+02 0.  0.
        -11    1    5    5    0    0  0.37405052783E+01 -0.23840453716E+02  0.11504187381E+03  0.11754569895E+03  0.00000000000E+00 0.  1.
         12    1    5    5    0    0  0.58309448688E+02 -0.11741192503E+02  0.44673485821E+02  0.74387954288E+02  0.00000000000E+00 0. -1.
         13    1    3    3    0    0  0.83967507540E+02  0.16674099104E+03 -0.10623949975E+03  0.21480207570E+03  0.00000000000E+00 0. -1.
        -14    1    3    3    0    0 -0.72525607174E+01  0.48871994653E+02 -0.67229506906E+02  0.83431876985E+02  0.00000000000E+00 0.  1.
          5    1    4    4  501    0 -0.62898116235E+02 -0.15960631365E+03 -0.16064334769E+03  0.23506191938E+03  0.41800000000E+01 0. -1.
         -5    1    4    4    0  501 -0.75866784555E+02 -0.20425025824E+02 -0.15253865919E+03  0.17163468655E+03  0.41800000000E+01 0. -1.
</event>
<event>
11    1  0.9238666E-009  0.1837196E+03  0.7561462E-02  0.1066673E+00
         22   -1    0    0    0    0  0.00000000000E+00  0.00000000000E+00  0.27646010657E+03  0.27646010657E+03  0.00000000000E+00 0.  1.
         22   -1    0    0    0    0 -0.00000000000E+00 -0.00000000000E+00 -0.22438377172E+04  0.22438377172E+04  0.00000000000E+00 0. -1.
         24    2    1    2    0    0  0.10393634600E+03  0.71539261730E+02 -0.18166868913E+04  0.18228504369E+04  0.80695876104E+02 0.  0.
         25    2    1    2    0    0 -0.18641209788E+03  0.33945092678E+02 -0.36653190344E+03  0.43115270080E+03  0.12508107616E+03 0.  0.
        -24    2    1    2    0    0  0.82475751872E+02 -0.10548435441E+03  0.21584118413E+03  0.26629468603E+03  0.79976523866E+02 0.  0.
        -13    1    3    3    0    0 -0.13260420601E+02  0.39177555661E+01 -0.12547134092E+03  0.12623091917E+03  0.00000000000E+00 0.  1.
         14    1    3    3    0    0  0.11719676660E+03  0.67621506164E+02 -0.16912155504E+04  0.16966195178E+04  0.00000000000E+00 0. -1.
         11    1    5    5    0    0  0.73632389824E+02 -0.37424614723E+02  0.84855962757E+02  0.11841817865E+03  0.00000000000E+00 0. -1.
        -12    1    5    5    0    0  0.88433620481E+01 -0.68059739684E+02  0.13098522137E+03  0.14787650738E+03  0.00000000000E+00 0.  1.
          5    1    4    4  501    0 -0.17518610542E+03  0.61308319307E+02 -0.35194901590E+03  0.39791263330E+03  0.41800000000E+01 0.  1.
         -5    1    4    4    0  501 -0.11225992460E+02 -0.27363226629E+02 -0.14582887544E+02  0.33240067500E+02  0.41800000000E+01 0.  1.
</event>
<event>
11    1  0.9238666E-009  0.1670007E+03  0.7561462E-02  0.1080672E+00
         22   -1    0    0    0    0  0.00000000000E+00  0.00000000000E+00  0.15167495209E+03  0.15167495209E+03  0.00000000000E+00 0.  1.
         22   -1    0    0    0    0 -0.00000000000E+00 -0.00000000000E+00 -0.10752352381E+04  0.10752352381E+04  0.00000000000E+00 0. -1.
         24    2    1    2    0    0  0.80524659268E+01 -0.35567068454E+02 -0.63973418623E+03  0.64568693384E+03  0.79510558627E+02 0.  0.
         25    2    1    2    0    0 -0.11678233064E+03  0.49188547421E+02 -0.37663019102E+03  0.41659866656E+03  0.12508605934E+03 0.  0.
        -24    2    1    2    0    0  0.10872986472E+03 -0.13621478967E+02  0.92804091191E+02  0.16462458984E+03  0.80504211486E+02 0.  0.
        -13    1    3    3    0    0 -0.17985269966E+02 -0.51984506146E+02 -0.34614918871E+03  0.35049268132E+03  0.00000000000E+00 0.  1.
         14    1    3    3    0    0  0.26037735893E+02  0.16417437692E+02 -0.29358499752E+03  0.29519425251E+03  0.00000000000E+00 0. -1.
         13    1    5    5    0    0  0.39615851150E+02 -0.53083697885E+01 -0.93101607332E+01  0.41039901864E+02  0.00000000000E+00 0. -1.
        -14    1    5    5    0    0  0.69114013566E+02 -0.83131091785E+01  0.10211425192E+03  0.12358468797E+03  0.00000000000E+00 0.  1.
          5    1    4    4  501    0 -0.64520662934E+01 -0.32171140093E+02 -0.13266280135E+03  0.13672418468E+03  0.41800000000E+01 0. -1.
         -5    1    4    4    0  501 -0.11033026435E+03  0.81359687513E+02 -0.24396738967E+03  0.27987448188E+03  0.41800000000E+01 0. -1.
</event>
<event>
11    1  0.9238666E-009  0.1408713E+03  0.7561462E-02  0.1106589E+00
         22   -1    0    0    0    0  0.00000000000E+00  0.00000000000E+00  0.62661565499E+02  0.62661565499E+02  0.00000000000E+00 0.  1.
         22   -1    0    0    0    0 -0.00000000000E+00 -0.00000000000E+00 -0.14305728792E+04  0.14305728792E+04  0.00000000000E+00 0. -1.
        -24    2    1    2    0    0  0.59800773900E+02 -0.26538179456E+02 -0.11898510551E+04  0.11943772907E+04  0.80691831592E+02 0.  0.
         25    2    1    2    0    0 -0.32036246241E+02  0.55703252440E+02 -0.62876127489E+02  0.15403610800E+03  0.12507814259E+03 0.  0.
         24    2    1    2    0    0 -0.27764527659E+02 -0.29165072985E+02 -0.11518413108E+03  0.14482104597E+03  0.78001800138E+02 0.  0.
        -11    1    5    5    0    0 -0.32991133476E+02 -0.50485974411E+02 -0.10390808240E+03  0.12014215783E+03  0.00000000000E+00 0.  1.
         12    1    5    5    0    0  0.52266058177E+01  0.21320901426E+02 -0.11276048684E+02  0.24678888142E+02  0.00000000000E+00 0. -1.
         13    1    3    3    0    0  0.76762569370E+02 -0.66590404385E+01 -0.94487978393E+03  0.94801616070E+03  0.00000000000E+00 0. -1.
        -14    1    3    3    0    0 -0.16961795470E+02 -0.19879139017E+02 -0.24497127121E+03  0.24636113003E+03  0.00000000000E+00 0.  1.
          5    1    4    4  501    0  0.39578252579E+02  0.40529803381E+02  0.97004334503E+00  0.56811235010E+02  0.41800000000E+01 0.  1.
         -5    1    4    4    0  501 -0.71614498821E+02  0.15173449060E+02 -0.63846170834E+02  0.97224872990E+02  0.41800000000E+01 0.  1.
</event>
<event>
11    1  0.9238666E-009  0.1339214E+03  0.7561462E-02  0.1114543E+00
         22   -1    0    0    0    0  0.00000000000E+00  0.00000000000E+00  0.39784203744E+03  0.39784203744E+03  0.00000000000E+00 0. -1.
         22   -1    0    0    0    0 -0.00000000000E+00 -0.00000000000E+00 -0.26038744763E+03  0.26038744763E+03  0.00000000000E+00 0. -1.
         24    2    1    2    0    0 -0.42150469466E+02  0.10379013314E+02 -0.15658230631E+03  0.18134389011E+03  0.80518332316E+02 0.  0.
         25    2    1    2    0    0  0.65715225775E+02 -0.49209382029E+02 -0.18119092479E+02  0.15071533225E+03  0.12508699247E+03 0.  0.
        -24    2    1    2    0    0 -0.23564756309E+02  0.38830368714E+02  0.31215598860E+03  0.32617026271E+03  0.82961339084E+02 0.  0.
        -11    1    3    3    0    0 -0.43150633152E+02  0.41776874690E+02 -0.10290826095E+03  0.11915282024E+03  0.00000000000E+00 0.  1.
         12    1    3    3    0    0  0.10001636862E+01 -0.31397861376E+02 -0.53674045359E+02  0.62191069870E+02  0.00000000000E+00 0. -1.
         13    1    5    5    0    0 -0.22118555957E+02  0.35775746440E+02  0.31726697433E+03  0.32004291517E+03  0.00000000000E+00 0. -1.
        -14    1    5    5    0    0 -0.14462003518E+01  0.30546222743E+01 -0.51109857309E+01  0.61273475368E+01  0.00000000000E+00 0.  1.
          5    1    4    4  501    0  0.96972081650E+00  0.39248847935E+02  0.27051367562E+00  0.39483642187E+02  0.41800000000E+01 0.  1.
         -5    1    4    4    0  501  0.64745504959E+02 -0.88458229963E+02 -0.18389606155E+02  0.11123169007E+03  0.41800000000E+01 0.  1.
</event>
<event>
11    1  0.9238666E-009  0.1875427E+03  0.7561462E-02  0.1063700E+00
         22   -1    0    0    0    0  0.00000000000E+00  0.00000000000E+00  0.17537769426E+04  0.17537769426E+04  0.00000000000E+00 0. -1.
         22   -1    0    0    0    0 -0.00000000000E+00 -0.00000000000E+00 -0.45714613726E+03  0.45714613726E+03  0.00000000000E+00 0.  1.
         24    2    1    2    0    0 -0.83310626747E+02 -0.31873729571E+02 -0.30952591194E+03  0.33153972761E+03  0.78458305205E+02 0.  0.
         25    2    1    2    0    0  0.21965090963E+03  0.14300453512E+02 -0.11916352411E+02  0.25345702625E+03  0.12508972631E+03 0.  0.
        -24    2    1    2    0    0 -0.13634028288E+03  0.17573276059E+02  0.16180730697E+04  0.16259263260E+04  0.81107742585E+02 0.  0.
        -13    1    3    3    0    0 -0.28120485954E+01  0.41864648559E+01 -0.14305675273E+03  0.14314562028E+03  0.00000000000E+00 0.  1.
         14    1    3    3    0    0 -0.80498578151E+02 -0.36060194427E+02 -0.16646915921E+03  0.18839410733E+03  0.00000000000E+00 0. -1.
         11    1    5    5    0    0 -0.10473953103E+03 -0.23098926473E+02  0.11686231691E+04  0.11735348487E+04  0.00000000000E+00 0. -1.
        -12    1    5    5    0    0 -0.31600751850E+02  0.40672202532E+02  0.44944990061E+03  0.45239147730E+03  0.00000000000E+00 0.  1.
          5    1    4    4  501    0  0.10090672753E+03  0.32808468078E+02 -0.62258336528E+02  0.12309401328E+03  0.41800000000E+01 0. -1.
         -5    1    4    4    0  501  0.11874418210E+03 -0.18508014566E+02  0.50341984118E+02  0.13036301297E+03  0.41800000000E+01 0. -1.
</event>
<event>
11    1  0.9238666E-009  0.1298176E+03  0.7561462E-02  0.1119493E+00
         22   -1    0    0    0    0  0.00000000000E+00  0.00000000000E+00  0.10366934269E+04  0.10366934269E+04  0.00000000000E+00 0. -1.
         22   -1    0    0    0    0 -0.00000000000E+00 -0.00000000000E+00 -0.30318715986E+03  0.30318715986E+03  0.00000000000E+00 0. -1.
         24    2    1    2    0    0  0.77605545323E+01  0.37196634953E+02 -0.20901503765E+03  0.22605469230E+03  0.77263329512E+02 0.  0.
         25    2    1    2    0    0 -0.38132865612E+01 -0.16017802665E+02 -0.36468467931E+02  0.13133294915E+03  0.12508910114E+03 0.  0.
        -24    2    1    2    0    0 -0.39472679711E+01 -0.21178832288E+02  0.97898977266E+03  0.98249294534E+03  0.80045542101E+02 0.  0.
        -11    1    3    3    0    0  0.25469607362E+02  0.54712195868E+02 -0.13272280657E+03  0.14579941241E+03  0.00000000000E+00 0.  1.
         12    1    3    3    0    0 -0.17709052829E+02 -0.17515560915E+02 -0.76292231084E+02  0.80255279889E+02  0.00000000000E+00 0. -1.
         11    1    5    5    0    0 -0.38207106153E+02 -0.22528318198E+02  0.70008125247E+03  0.70148490229E+03  0.00000000000E+00 0. -1.
        -12    1    5    5    0    0  0.34259838182E+02  0.13494859100E+01  0.27890852020E+03  0.28100804306E+03  0.00000000000E+00 0.  1.
          5    1    4    4  501    0 -0.14730746019E+02  0.51583084133E+02 -0.36570856765E+00  0.53809066055E+02  0.41800000000E+01 0.  1.
         -5    1    4    4    0  501  0.10917459457E+02 -0.67600886798E+02 -0.36102759364E+02  0.77523883098E+02  0.41800000000E+01 0.  1.
</event>
<event>
11    1  0.9238666E-009  0.2110987E+03  0.7561462E-02  0.1046941E+00
         22   -1    0    0    0    0  0.00000000000E+00  0.00000000000E+00  0.51861401864E+03  0.51861401864E+03  0.00000000000E+00 0. -1.
         22   -1    0    0    0    0 -0.00000000000E+00 -0.00000000000E+00 -0.14980027466E+04  0.14980027466E+04  0.00000000000E+00 0. -1.
        -24    2    1    2    0    0 -0.36558633761E+02 -0.12793242897E+03 -0.74532369580E+03  0.76122750107E+03  0.79099031519E+02 0.  0.
         25    2    1    2    0    0  0.13035867234E+03 -0.16452992503E+02 -0.71528628184E+03  0.73792759495E+03  0.12505433215E+03 0.  0.
         24    2    1    2    0    0 -0.93800038579E+02  0.14438542148E+03  0.48122124964E+03  0.51746166925E+03  0.80914095639E+02 0.  0.
        -13    1    5    5    0    0 -0.44695966912E+01  0.12471420079E+02  0.14283032046E+03  0.14344341762E+03  0.00000000000E+00 0.  1.
         14    1    5    5    0    0 -0.89330441887E+02  0.13191400140E+03  0.33839092917E+03  0.37401825164E+03  0.00000000000E+00 0. -1.
         13    1    3    3    0    0 -0.48595993640E+02 -0.13143722765E+03 -0.64011206096E+03  0.65527152082E+03  0.00000000000E+00 0. -1.
        -14    1    3    3    0    0  0.12037359878E+02  0.35047986728E+01 -0.10521163484E+03  0.10595598025E+03  0.00000000000E+00 0.  1.
          5    1    4    4  501    0  0.68703243443E+02  0.39073955930E+01 -0.61189970392E+03  0.61577116160E+03  0.41800000000E+01 0.  1.
         -5    1    4    4    0  501  0.61655428897E+02 -0.20360388096E+02 -0.10338657791E+03  0.12215643335E+03  0.41800000000E+01 0.  1.
</event>
<event>
11    1  0.9238666E-009  0.1668087E+03  0.7561462E-02  0.1080843E+00
         22   -1    0    0    0    0  0.00000000000E+00  0.00000000000E+00  0.67618053872E+03  0.67618053872E+03  0.00000000000E+00 0.  1.
         22   -1    0    0    0    0 -0.00000000000E+00 -0.00000000000E+00 -0.14552253128E+03  0.14552253128E+03  0.00000000000E+00 0.  1.
         24    2    1    2    0    0  0.42489414069E+02  0.10359381051E+03 -0.76276417871E+02  0.15643622959E+03  0.78212365530E+02 0.  0.
         25    2    1    2    0    0 -0.23504915737E+02 -0.97948288700E+02  0.23968332570E+03  0.28851766014E+03  0.12509194727E+03 0.  0.
        -24    2    1    2    0    0 -0.18984498332E+02 -0.56455218093E+01  0.36725109961E+03  0.37674918027E+03  0.81696337611E+02 0.  0.
        -11    1    3    3    0    0 -0.31520521180E+00  0.47248675988E+02 -0.71255813463E+02  0.85498115121E+02  0.00000000000E+00 0.  1.
         12    1    3    3    0    0  0.42804619281E+02  0.56345134521E+02 -0.50206044077E+01  0.70938114470E+02  0.00000000000E+00 0. -1.
         13    1    5    5    0    0  0.22391588025E+02  0.24102342964E+02  0.13144166953E+03  0.13549619419E+03  0.00000000000E+00 0. -1.
        -14    1    5    5    0    0 -0.41376086357E+02 -0.29747864773E+02  0.23580943008E+03  0.24125298609E+03  0.00000000000E+00 0.  1.
          5    1    4    4  501    0  0.29716380096E+02 -0.38779671657E+02  0.16827909694E+02  0.51841847233E+02  0.41800000000E+01 0.  1.
         -5    1    4    4    0  501 -0.53221295833E+02 -0.59168617043E+02  0.22285541600E+03  0.23667581291E+03  0.41800000000E+01 0.  1.
</event>
<event>
11    1  0.9238666E-009  0.1279640E+03  0.7561462E-02  0.1121796E+00
         22   -1    0    0    0    0  0.00000000000E+00  0.00000000000E+00  0.66249013042E+03  0.66249013042E+03  0.00000000000E+00 0. -1.
         22   -1    0    0    0    0 -0.00000000000E+00 -0.00000000000E+00 -0.18686406778E+03  0.18686406778E+03  0.00000000000E+00 0.  1.
         24    2    1    2    0    0 -0.52948653912E+01 -0.29686361149E+02 -0.11731654250E+03  0.15352490539E+03  0.94326082247E+02 0.  0.
         25    2    1    2    0    0  0.67859247404E+01  0.11549066824E+02  0.33602097194E+02  0.13021217969E+03  0.12508669428E+03 0.  0.
        -24    2    1    2    0    0 -0.14910593492E+01  0.18137294325E+02  0.55934050795E+03  0.56561711312E+03  0.82034932297E+02 0.  0.
        -11    1    3    3    0    0  0.37980544296E+02  0.84319986690E+01 -0.64494779221E+02  0.75320627277E+02  0.00000000000E+00 0.  1.
         12    1    3    3    0    0 -0.43275409687E+02 -0.38118359818E+02 -0.52821763282E+02  0.78204278112E+02  0.00000000000E+00 0. -1.
         11    1    5    5    0    0  0.24325068194E+02  0.30329819041E+02  0.47473133678E+03  0.47632074171E+03  0.00000000000E+00 0. -1.
        -12    1    5    5    0    0 -0.25816127543E+02 -0.12192524716E+02  0.84609171172E+02  0.89296371408E+02  0.00000000000E+00 0.  1.
          5    1    4    4  501    0 -0.58060118569E+02 -0.55360964976E+01  0.18697735921E+02  0.61389766747E+02  0.41800000000E+01 0. -1.
         -5    1    4    4    0  501  0.64846043309E+02  0.17085163322E+02  0.14904361273E+02  0.68822412945E+02  0.41800000000E+01 0. -1.
</event>
<event>
11    1  0.9238666E-009  0.1526043E+03  0.7561462E-02  0.1094247E+00
         22   -1    0    0    0    0  0.00000000000E+00  0.00000000000E+00  0.11295566076E+04  0.11295566076E+04  0.00000000000E+00 0. -1.
         22   -1    0    0    0    0 -0.00000000000E+00 -0.00000000000E+00 -0.29631498421E+03  0.29631498421E+03  0.00000000000E+00 0. -1.
        -24    2    1    2    0    0 -0.42077534171E+02 -0.76879317602E+02 -0.24285331415E+03  0.27051416819E+03  0.80741777551E+02 0.  0.
         25    2    1    2    0    0  0.75839336139E+02  0.54326790553E+02  0.12480025803E+03  0.19981057896E+03  0.12508460329E+03 0.  0.
         24    2    1    2    0    0 -0.33761801968E+02  0.22552527049E+02  0.95129467949E+03  0.95554684465E+03  0.80372441391E+02 0.  0.
        -13    1    5    5    0    0  0.66924317960E+01  0.52140587054E+00  0.56306120959E+01  0.87615238401E+01  0.00000000000E+00 0.  1.
         14    1    5    5    0    0 -0.40454233764E+02  0.22031121179E+02  0.94566406740E+03  0.94678532081E+03  0.00000000000E+00 0. -1.
         13    1    3    3    0    0 -0.18856735521E+02 -0.77816783696E+02 -0.11237567418E+03  0.13798304405E+03  0.00000000000E+00 0. -1.
        -14    1    3    3    0    0 -0.23220798650E+02  0.93746609418E+00 -0.13047763998E+03  0.13253112414E+03  0.00000000000E+00 0.  1.
          5    1    4    4  501    0  0.10707518915E+03  0.19440029226E+02  0.83487710823E+02  0.13722492896E+03  0.41800000000E+01 0.  1.
         -5    1    4    4    0  501 -0.31235853014E+02  0.34886761327E+02  0.41312547210E+02  0.62585650004E+02  0.41800000000E+01 0.  1.
</event>
<event>
11    1  0.1145001E-008  0.1820804E+03  0.7561462E-02  0.1067972E+00
         22   -1    0    0    0    0  0.00000000000E+00  0.00000000000E+00  0.15896851080E+04  0.15896851080E+04  0.00000000000E+00 0.  1.
         22   -1    0    0    0    0 -0.00000000000E+00 -0.00000000000E+00 -0.63408112887E+03  0.63408112887E+03  0.00000000000E+00 0. -1.
         24    2    1    2    0    0 -0.67691999016E+00  0.44848931875E+02 -0.47960107793E+03  0.48828966536E+03  0.79985738956E+02 0.  0.
         25    2    1    2    0    0 -0.10339177075E+03  0.38037809125E+02 -0.98773703184E+02  0.19375201322E+03  0.12508742943E+03 0.  0.
        -24    2    1    2    0    0  0.10406869074E+03 -0.82886741001E+02  0.15339787603E+04  0.15417245583E+04  0.78251342099E+02 0.  0.
        -13    1    3    3    0    0 -0.38950460133E+02  0.13495853484E+02 -0.25436383545E+03  0.25768243478E+03  0.00000000000E+00 0.  1.
         14    1    3    3    0    0  0.38273540143E+02  0.31353078391E+02 -0.22523724248E+03  0.23060723059E+03  0.00000000000E+00 0. -1.
         11    1    5    5    0    0 -0.27835623143E+00  0.52345045735E+01  0.32715241456E+03  0.32719440685E+03  0.00000000000E+00 0. -1.
        -12    1    5    5    0    0  0.10434704698E+03 -0.88121245574E+02  0.12068263457E+04  0.12145301515E+04  0.00000000000E+00 0.  1.
          5    1    4    4  501    0 -0.10401239212E+03  0.61322719441E+02 -0.35082932613E+02  0.12580674940E+03  0.41800000000E+01 0. -1.
         -5    1    4    4    0  501  0.62062136198E+00 -0.23284910316E+02 -0.63690770571E+02  0.67945263818E+02  0.41800000000E+01 0. -1.
</event>
<event>
11    1  0.9238666E-009  0.1380247E+03  0.7561462E-02  0.1109784E+00
         22   -1    0    0    0    0  0.00000000000E+00  0.00000000000E+00  0.10122156602E+04  0.10122156602E+04  0.00000000000E+00 0.  1.
         22   -1    0    0    0    0 -0.00000000000E+00 -0.00000000000E+00 -0.27439744958E+03  0.27439744958E+03  0.00000000000E+00 0. -1.
        -24    2    1    2    0    0  0.37685193741E+02 -0.43417905375E+02 -0.22538501537E+03  0.24640440222E+03  0.81310736969E+02 0.  0.
         25    2    1    2    0    0 -0.55187365476E+02  0.44476336099E+02  0.10617732433E+03  0.17873037941E+03  0.12508850684E+03 0.  0.
         24    2    1    2    0    0  0.17502171735E+02 -0.10584307244E+01  0.85702590167E+03  0.86147832815E+03  0.85697534623E+02 0.  0.
        -11    1    5    5    0    0  0.15078714211E+02 -0.55133251651E+01  0.85618757550E+03  0.85633809258E+03  0.00000000000E+00 0.  1.
         12    1    5    5    0    0  0.24234575239E+01  0.44548944407E+01  0.83832617307E+00  0.51402355608E+01  0.00000000000E+00 0. -1.
         13    1    3    3    0    0  0.32552660643E+02 -0.59826608667E+02 -0.21668231600E+03  0.22713459641E+03  0.00000000000E+00 0. -1.
        -14    1    3    3    0    0  0.51325330974E+01  0.16408703292E+02 -0.87026993742E+01  0.19269805815E+02  0.00000000000E+00 0.  1.
          5    1    4    4  501    0 -0.34373457040E+02 -0.42014002070E+02  0.35000214422E+02  0.64724016627E+02  0.41800000000E+01 0.  1.
         -5    1    4    4    0  501 -0.20813908435E+02  0.86490338169E+02  0.71177109907E+02  0.11400636279E+03  0.41800000000E+01 0.  1.
</event>
<event>
11    1  0.9238666E-009  0.1372019E+03  0.7561462E-02  0.1110724E+00
         22   -1    0    0    0    0  0.00000000000E+00  0.00000000000E+00  0.55469096544E+04  0.55469096544E+04  0.00000000000E+00 0.  1.
         22   -1    0    0    0    0 -0.00000000000E+00 -0.00000000000E+00 -0.31383717534E+02  0.31383717534E+02  0.00000000000E+00 0. -1.
         24    2    1    2    0    0  0.31021564058E+02 -0.44871849936E+02  0.11301965170E+03  0.14985634687E+03  0.81900321568E+02 0.  0.
         25    2    1    2    0    0 -0.11489500830E+02  0.65182405890E+02  0.38477380122E+03  0.40997471434E+03  0.12509050174E+03 0.  0.
        -24    2    1    2    0    0 -0.19532063228E+02 -0.20310555954E+02  0.50177324839E+04  0.50184623107E+04  0.80812521166E+02 0.  0.
        -11    1    3    3    0    0  0.34069363590E+02 -0.67093352521E+02  0.94289175612E+02  0.12063452294E+03  0.00000000000E+00 0.  1.
         12    1    3    3    0    0 -0.30477995320E+01  0.22221502584E+02  0.18730476091E+02  0.29221823928E+02  0.00000000000E+00 0. -1.
         11    1    5    5    0    0  0.22029874441E+02 -0.63801131680E+01  0.50869758997E+03  0.50921435491E+03  0.00000000000E+00 0. -1.
        -12    1    5    5    0    0 -0.41561937669E+02 -0.13930442786E+02  0.45090348940E+04  0.45092479558E+04  0.00000000000E+00 0.  1.
          5    1    4    4  501    0  0.27185932662E+02  0.27270005903E+02  0.33196186989E+03  0.33421382919E+03  0.41800000000E+01 0. -1.
         -5    1    4    4    0  501 -0.38675433492E+02  0.37912399988E+02  0.52811931327E+02  0.75760885152E+02  0.41800000000E+01 0. -1.
</event>
<event>
11    1  0.9238666E-009  0.1990072E+03  0.7561462E-02  0.1055228E+00
         22   -1    0    0    0    0  0.00000000000E+00  0.00000000000E+00  0.17284115850E+04  0.17284115850E+04  0.00000000000E+00 0. -1.
         22   -1    0    0    0    0 -0.00000000000E+00 -0.00000000000E+00 -0.47968858778E+03  0.47968858778E+03  0.00000000000E+00 0. -1.
         24    2    1    2    0    0  0.99110717996E+02 -0.96567894122E+02 -0.41747654371E+03  0.44712118797E+03  0.80513350371E+02 0.  0.
         25    2    1    2    0    0 -0.12437841177E+03  0.23568340902E+03  0.47545586895E+03  0.55921570644E+03  0.12508902591E+03 0.  0.
        -24    2    1    2    0    0  0.25267693773E+02 -0.13911551490E+03  0.11907436720E+04  0.12017632784E+04  0.79830458143E+02 0.  0.
        -13    1    3    3    0    0 -0.84899096531E+01  0.24612025736E+00 -0.47107070792E+01  0.97123582247E+01  0.00000000000E+00 0.  1.
         14    1    3    3    0    0  0.10760062765E+03 -0.96814014379E+02 -0.41276583663E+03  0.43740882975E+03  0.00000000000E+00 0. -1.
         11    1    5    5    0    0  0.17766314599E+02 -0.13518451347E+03  0.11810371389E+04  0.11888814988E+04  0.00000000000E+00 0. -1.
        -12    1    5    5    0    0  0.75013791734E+01 -0.39310014300E+01  0.97065330877E+01  0.12881779626E+02  0.00000000000E+00 0.  1.
          5    1    4    4  501    0 -0.16624899963E+02  0.15090671647E+02  0.14893150978E+03  0.15067243502E+03  0.41800000000E+01 0.  1.
         -5    1    4    4    0  501 -0.10775351181E+03  0.22059273737E+03  0.32652435917E+03  0.40854327142E+03  0.41800000000E+01 0.  1.
</event>
<event>
11    1  0.9238666E-009  0.2333866E+03  0.7561462E-02  0.1033141E+00
         22   -1    0    0    0    0  0.00000000000E+00  0.00000000000E+00  0.40047738286E+03  0.40047738286E+03  0.00000000000E+00 0. -1.
         22   -1    0    0    0    0 -0.00000000000E+00 -0.00000000000E+00 -0.11002020021E+04  0.11002020021E+04  0.00000000000E+00 0.  1.
        -24    2    1    2    0    0 -0.10228525645E+03  0.25732476288E+02 -0.46575145765E+03  0.48408798873E+03  0.79324186094E+02 0.  0.
         25    2    1    2    0    0  0.13334773305E+03  0.16923478340E+03 -0.56804648583E+03  0.62027946863E+03  0.12509108409E+03 0.  0.
         24    2    1    2    0    0 -0.31062476592E+02 -0.19496725969E+03  0.33407332421E+03  0.39631192763E+03  0.80504957816E+02 0.  0.
        -11    1    5    5    0    0  0.16166113491E+02 -0.11815769337E+03  0.15260916336E+03  0.19368051133E+03  0.00000000000E+00 0.  1.
         12    1    5    5    0    0 -0.47228590082E+02 -0.76809566317E+02  0.18146416085E+03  0.20263141630E+03  0.00000000000E+00 0. -1.
         11    1    3    3    0    0 -0.94759503639E+02  0.41525118042E+02 -0.29843361557E+03  0.31585807233E+03  0.00000000000E+00 0. -1.
        -12    1    3    3    0    0 -0.75257528157E+01 -0.15792641754E+02 -0.16731784209E+03  0.16822991639E+03  0.00000000000E+00 0.  1.
          5    1    4    4  501    0  0.45362726213E+02  0.13295969999E+02 -0.25710175242E+03  0.26144472311E+03  0.41800000000E+01 0. -1.
         -5    1    4    4    0  501  0.87985006833E+02  0.15593881340E+03 -0.31094473341E+03  0.35883474552E+03  0.41800000000E+01 0. -1.
</event>
<event>
11    1  0.9238666E-009  0.2531101E+03  0.7561462E-02  0.1022255E+00
         22   -1    0    0    0    0  0.00000000000E+00  0.00000000000E+00  0.45351953233E+03  0.45351953233E+03  0.00000000000E+00 0. -1.
         22   -1    0    0    0    0 -0.00000000000E+00 -0.00000000000E+00 -0.11567228980E+04  0.11567228980E+04  0.00000000000E+00 0. -1.
         24    2    1    2    0    0  0.20327628777E+03  0.66408393488E+02 -0.82804207899E+03  0.85936752804E+03  0.84424758045E+02 0.  0.
         25    2    1    2    0    0 -0.21979794274E+03 -0.11301816282E+03 -0.24465217879E+03  0.36957583511E+03  0.12508944221E+03 0.  0.
        -24    2    1    2    0    0  0.16521654967E+02  0.46609769333E+02  0.36949089210E+03  0.38129906718E+03  0.80125049834E+02 0.  0.
        -11    1    3    3    0    0  0.54738289746E+01 -0.13943911284E+02 -0.34611387877E+02  0.37713971367E+02  0.00000000000E+00 0.  1.
         12    1    3    3    0    0  0.19780245879E+03  0.80352304772E+02 -0.79343069111E+03  0.82165355667E+03  0.00000000000E+00 0. -1.
         11    1    5    5    0    0  0.25689547578E+02  0.42807074658E+02  0.36787021036E+03  0.37124236042E+03  0.00000000000E+00 0. -1.
        -12    1    5    5    0    0 -0.91678926103E+01  0.38026946749E+01  0.16206817363E+01  0.10056706767E+02  0.00000000000E+00 0.  1.
          5    1    4    4  501    0  0.54017550373E+01  0.15845403092E+02 -0.11613403610E+02  0.20799021613E+02  0.41800000000E+01 0.  1.
         -5    1    4    4    0  501 -0.22519969777E+03 -0.12886356591E+03 -0.23303877518E+03  0.34877681350E+03  0.41800000000E+01 0.  1.
</event>
<event>
11    1  0.9238666E-009  0.3195595E+03  0.7561462E-02  0.9922369E-01
         22   -1    0    0    0    0  0.00000000000E+00  0.00000000000E+00  0.69845302233E+03  0.69845302233E+03  0.00000000000E+00 0. -1.
         22   -1    0    0    0    0 -0.00000000000E+00 -0.00000000000E+00 -0.45094456498E+03  0.45094456498E+03  0.00000000000E+00 0. -1.
        -24    2    1    2    0    0 -0.30685210456E+03  0.63156520418E+01 -0.13547936062E+03  0.34488458548E+03  0.79953853029E+02 0.  0.
         25    2    1    2    0    0  0.28001852393E+03  0.17996712189E+02 -0.92776848762E+02  0.32092051816E+03  0.12509268530E+03 0.  0.
         24    2    1    2    0    0  0.26833580624E+02 -0.24312364231E+02  0.47576466673E+03  0.48359248366E+03  0.78730807445E+02 0.  0.
        -13    1    5    5    0    0  0.29859564129E+02  0.23279006579E+02  0.24956983182E+03  0.25242544775E+03  0.00000000000E+00 0.  1.
         14    1    5    5    0    0 -0.30259835055E+01 -0.47591370810E+02  0.22619483491E+03  0.23116703591E+03  0.00000000000E+00 0. -1.
         13    1    3    3    0    0 -0.20679944161E+03 -0.12223768560E+02 -0.52825425493E+02  0.21378951131E+03  0.00000000000E+00 0. -1.
        -14    1    3    3    0    0 -0.10005266295E+03  0.18539420602E+02 -0.82653935127E+02  0.13109507417E+03  0.00000000000E+00 0.  1.
          5    1    4    4  501    0  0.12270101768E+03 -0.53384608887E+02 -0.31125091581E+02  0.13744708048E+03  0.41800000000E+01 0.  1.
         -5    1    4    4    0  501  0.15731750625E+03  0.71381321076E+02 -0.61651757182E+02  0.18347343768E+03  0.41800000000E+01 0.  1.
</event>
<event>
11    1  0.9238666E-009  0.1479717E+03  0.7561462E-02  0.1098969E+00
         22   -1    0    0    0    0  0.00000000000E+00  0.00000000000E+00  0.30987513361E+03  0.30987513361E+03  0.00000000000E+00 0.  1.
         22   -1    0    0    0    0 -0.00000000000E+00 -0.00000000000E+00 -0.17871460170E+04  0.17871460170E+04  0.00000000000E+00 0. -1.
         24    2    1    2    0    0  0.63114842543E+02 -0.16496240514E+02 -0.16894562783E+04  0.16926464733E+04  0.80832901593E+02 0.  0.
         25    2    1    2    0    0 -0.13283955147E+03  0.23050422343E+02  0.19638618868E+02  0.18496147838E+03  0.12508958681E+03 0.  0.
        -24    2    1    2    0    0  0.69724708930E+02 -0.65541818286E+01  0.19254677607E+03  0.21941319890E+03  0.78507315227E+02 0.  0.
        -13    1    3    3    0    0  0.32099291901E+02  0.25481450973E+02 -0.39108647082E+03  0.39322804649E+03  0.00000000000E+00 0.  1.
         14    1    3    3    0    0  0.31015550642E+02 -0.41977691487E+02 -0.12983698075E+04  0.12994184268E+04  0.00000000000E+00 0. -1.
         13    1    5    5    0    0 -0.12600613031E+02 -0.17678514954E+02  0.32379547859E+02  0.38983848698E+02  0.00000000000E+00 0. -1.
        -14    1    5    5    0    0  0.82325321961E+02  0.11124333125E+02  0.16016722821E+03  0.18042935021E+03  0.00000000000E+00 0.  1.
          5    1    4    4  501    0 -0.62635663487E+02 -0.51517396774E+02  0.13041947395E+02  0.82248606692E+02  0.41800000000E+01 0. -1.
         -5    1    4    4    0  501 -0.70203887986E+02  0.74567819117E+02  0.65966714732E+01  0.10271287169E+03  0.41800000000E+01 0. -1.
</event>
<event>
11    1  0.9238666E-009  0.1693467E+03  0.7561462E-02  0.1078602E+00
         22   -1    0    0    0    0  0.00000000000E+00  0.00000000000E+00  0.29033906729E+03  0.29033906729E+03  0.00000000000E+00 0. -1.
         22   -1    0    0    0    0 -0.00000000000E+00 -0.00000000000E+00 -0.69839767795E+03  0.69839767795E+03  0.00000000000E+00 0. -1.
         24    2    1    2    0    0 -0.23238197301E+02 -0.17131998125E+00 -0.52807947991E+03  0.53486733379E+03  0.81701190237E+02 0.  0.
         25    2    1    2    0    0  0.66975262292E+02  0.10432896911E+03 -0.92758259330E+02  0.19905236721E+03  0.12509009019E+03 0.  0.
        -24    2    1    2    0    0 -0.43737064991E+02 -0.10415764913E+03  0.21277912858E+03  0.25481704423E+03  0.83036267642E+02 0.  0.
        -11    1    3    3    0    0 -0.44417977805E+02  0.24311309390E+02 -0.37492655079E+03  0.37833043098E+03  0.00000000000E+00 0.  1.
         12    1    3    3    0    0  0.21179780504E+02 -0.24482629371E+02 -0.15315292912E+03  0.15653690281E+03  0.00000000000E+00 0. -1.
         11    1    5    5    0    0 -0.60880083791E+02 -0.60684448608E+02  0.95059764264E+02  0.12816140483E+03  0.00000000000E+00 0. -1.
        -12    1    5    5    0    0  0.17143018800E+02 -0.43473200519E+02  0.11771936432E+03  0.12665563940E+03  0.00000000000E+00 0.  1.
          5    1    4    4  501    0  0.90945839804E+02  0.93695742377E+02 -0.34643025368E+02  0.13515786889E+03  0.41800000000E+01 0.  1.
         -5    1    4    4    0  501 -0.23970577511E+02  0.10633226732E+02 -0.58115233963E+02  0.63894498320E+02  0.41800000000E+01 0.  1.
</event>
<event>
11    1  0.9238666E-009  0.1677342E+03  0.7561462E-02  0.1080020E+00
         22   -1    0    0    0    0  0.00000000000E+00  0.00000000000E+00  0.35535350079E+03  0.35535350079E+03  0.00000000000E+00 0. -1.
         22   -1    0    0    0    0 -0.00000000000E+00 -0.00000000000E+00 -0.12516123802E+04  0.12516123802E+04  0.00000000000E+00 0. -1.
        -24    2    1    2    0    0  0.71864752526E+01  0.11279277114E+03 -0.11328769076E+04  0.11413297745E+04  0.80310096944E+02 0.  0.
         25    2    1    2    0    0 -0.10726595295E+03 -0.77392621860E+02 -0.13851091570E+02  0.18257892675E+03  0.12509040400E+03 0.  0.
         24    2    1    2    0    0  0.10007947770E+03 -0.35400149283E+02  0.25046911976E+03  0.28305717978E+03  0.78214542398E+02 0.  0.
        -11    1    5    5    0    0  0.22307772482E+02 -0.32765908170E+02  0.31371910882E+02  0.50551342650E+02  0.00000000000E+00 0.  1.
         12    1    5    5    0    0  0.77771705219E+02 -0.26342411131E+01  0.21909720888E+03  0.23250583713E+03  0.00000000000E+00 0. -1.
         13    1    3    3    0    0 -0.25008435778E+02  0.52669514622E+02 -0.76250808064E+03  0.76473398818E+03  0.00000000000E+00 0. -1.
        -14    1    3    3    0    0  0.32194911030E+02  0.60123256521E+02 -0.37036882695E+03  0.37659578628E+03  0.00000000000E+00 0.  1.
          5    1    4    4  501    0  0.26330800637E+02 -0.24026104562E+02 -0.14361362204E+02  0.38655994192E+02  0.41800000000E+01 0.  1.
         -5    1    4    4    0  501 -0.13359675359E+03 -0.53366517298E+02  0.51027063410E+00  0.14392293255E+03  0.41800000000E+01 0.  1.
</event>
<event>
11    1  0.9238666E-009  0.2039544E+03  0.7561462E-02  0.1051762E+00
         22   -1    0    0    0    0  0.00000000000E+00  0.00000000000E+00  0.41283769676E+03  0.41283769676E+03  0.00000000000E+00 0.  1.
         22   -1    0    0    0    0 -0.00000000000E+00 -0.00000000000E+00 -0.68453751161E+03  0.68453751161E+03  0.00000000000E+00 0. -1.
         24    2    1    2    0    0 -0.21508430252E+02  0.21463167667E+02 -0.40241042752E+03  0.41142883532E+03  0.80101524430E+02 0.  0.
         25    2    1    2    0    0  0.95478142242E+02  0.12245372846E+03 -0.21652775630E+03  0.29435096826E+03  0.12508889641E+03 0.  0.
        -24    2    1    2    0    0 -0.73969711991E+02 -0.14391689613E+03  0.34723836898E+03  0.39159540480E+03  0.81171946434E+02 0.  0.
        -11    1    3    3    0    0  0.25099135620E+02  0.18055736678E+02 -0.82131512421E+02  0.87758541285E+02  0.00000000000E+00 0.  1.
         12    1    3    3    0    0 -0.46607565872E+02  0.34074309889E+01 -0.32027891510E+03  0.32367029403E+03  0.00000000000E+00 0. -1.
         13    1    5    5    0    0 -0.22774616129E+02 -0.60570503701E+01  0.10983322432E+03  0.11233302348E+03  0.00000000000E+00 0. -1.
        -14    1    5    5    0    0 -0.51195095862E+02 -0.13785984576E+03  0.23740514466E+03  0.27926238132E+03  0.00000000000E+00 0.  1.
          5    1    4    4  501    0  0.10403934645E+03  0.34336106167E+02 -0.13512993774E+03  0.17401358070E+03  0.41800000000E+01 0.  1.
         -5    1    4    4    0  501 -0.85612042046E+01  0.88117622295E+02 -0.81397818562E+02  0.12033738755E+03  0.41800000000E+01 0.  1.
</event>
<event>
11    1  0.9238666E-009  0.1848048E+03  0.7561462E-02  0.1065821E+00
         22   -1    0    0    0    0  0.00000000000E+00  0.00000000000E+00  0.29754264474E+03  0.29754264474E+03  0.00000000000E+00 0. -1.
         22   -1    0    0    0    0 -0.00000000000E+00 -0.00000000000E+00 -0.10485999812E+04  0.10485999812E+04  0.00000000000E+00 0. -1.
         24    2    1    2    0    0  0.81537832098E+02 -0.11280738567E+03 -0.89597781822E+03  0.91087259100E+03  0.86825698792E+02 0.  0.
         25    2    1    2    0    0 -0.60742139259E+02  0.96565326395E+02 -0.85262562689E+02  0.18956236946E+03  0.12509883123E+03 0.  0.
        -24    2    1    2    0    0 -0.20795692839E+02  0.16242059276E+02  0.23018304449E+03  0.24570766544E+03  0.81803163459E+02 0.  0.
        -13    1    3    3    0    0 -0.46168366309E+01  0.46273037173E+01 -0.54437546552E+01  0.85065612861E+01  0.00000000000E+00 0.  1.
         14    1    3    3    0    0  0.86154668729E+02 -0.11743468939E+03 -0.89053406356E+03  0.90236602971E+03  0.00000000000E+00 0. -1.
         11    1    5    5    0    0 -0.27741157335E+01 -0.31651443140E+02  0.12141533780E+03  0.12550376020E+03  0.00000000000E+00 0. -1.
        -12    1    5    5    0    0 -0.18021577106E+02  0.47893502416E+02  0.10876770669E+03  0.12020390523E+03  0.00000000000E+00 0.  1.
          5    1    4    4  501    0 -0.89009022285E+02  0.27173231838E+02 -0.36429201107E+02  0.10002774450E+03  0.41800000000E+01 0. -1.
         -5    1    4    4    0  501  0.28266883025E+02  0.69392094557E+02 -0.48833361582E+02  0.89534624958E+02  0.41800000000E+01 0. -1.
</event>
<event>
11    1  0.9238666E-009  0.1402595E+03  0.7561462E-02  0.1107269E+00
         22   -1    0    0    0    0  0.00000000000E+00  0.00000000000E+00  0.95624828325E+03  0.95624828325E+03  0.00000000000E+00 0. -1.
         22   -1    0    0    0    0 -0.00000000000E+00 -0.00000000000E+00 -0.43128387267E+03  0.43128387267E+03  0.00000000000E+00 0.  1.
         24    2    1    2    0    0  0.59493781130E+02 -0.23664262322E+02 -0.38546052476E+03  0.39911730990E+03  0.81334516708E+02 0.  0.
         25    2    1    2    0    0 -0.54570835469E+02  0.49109014029E+01  0.89426810071E+02  0.16323915003E+03  0.12509105765E+03 0.  0.
        -24    2    1    2    0    0 -0.49229456610E+01  0.18753360920E+02  0.82099812527E+03  0.82517569600E+03  0.80629297592E+02 0.  0.
        -13    1    3    3    0    0  0.54394653014E+02 -0.44055315021E+02 -0.35665187300E+03  0.36345592246E+03  0.00000000000E+00 0.  1.
         14    1    3    3    0    0  0.50991281161E+01  0.20391052699E+02 -0.28808651762E+02  0.35661387438E+02  0.00000000000E+00 0. -1.
         11    1    5    5    0    0  0.58995038216E+01 -0.10243559644E+02  0.70560049697E+03  0.70569950828E+03  0.00000000000E+00 0. -1.
        -12    1    5    5    0    0 -0.10822449483E+02  0.28996920563E+02  0.11539762830E+03  0.11947618772E+03  0.00000000000E+00 0.  1.
          5    1    4    4  501    0 -0.86808078687E+02 -0.81304276251E+01  0.26501360246E+02  0.91222480089E+02  0.41800000000E+01 0.  1.
         -5    1    4    4    0  501  0.32237243218E+02  0.13041329028E+02  0.62925449824E+02  0.72016669936E+02  0.41800000000E+01 0.  1.
</event>
<event>
11    1  0.9238666E-009  0.2166147E+03  0.7561462E-02  0.1043359E+00
         22   -1    0    0    0    0  0.00000000000E+00  0.00000000000E+00  0.28671848418E+03  0.28671848418E+03  0.00000000000E+00 0. -1.
         22   -1    0    0    0    0 -0.00000000000E+00 -0.00000000000E+00 -0.11313799601E+04  0.11313799601E+04  0.00000000000E+00 0.  1.
         24    2    1    2    0    0  0.35647575823E+01 -0.26599496468E+01 -0.79732343472E+03  0.80136488613E+03  0.80257325780E+02 0.  0.
         25    2    1    2    0    0 -0.15799379563E+03  0.87756511611E+02 -0.25200510301E+03  0.33439496233E+03  0.12510065588E+03 0.  0.
        -24    2    1    2    0    0  0.15442903805E+03 -0.85096561964E+02  0.20466706180E+03  0.28233859583E+03  0.82077547842E+02 0.  0.
        -11    1    3    3    0    0 -0.27005125745E+01 -0.25322638418E+02 -0.72217628387E+03  0.72262515440E+03  0.00000000000E+00 0.  1.
         12    1    3    3    0    0  0.62652701568E+01  0.22662688771E+02 -0.75147150846E+02  0.78739731729E+02  0.00000000000E+00 0. -1.
         11    1    5    5    0    0  0.31405753326E+02 -0.27482406258E+02  0.10750754001E+03  0.11532335043E+03  0.00000000000E+00 0. -1.
        -12    1    5    5    0    0  0.12302328472E+03 -0.57614155706E+02  0.97159521784E+02  0.16701524539E+03  0.00000000000E+00 0.  1.
          5    1    4    4  501    0 -0.90795835304E+02  0.10229069652E+03 -0.10645831681E+03  0.17337276580E+03  0.41800000000E+01 0.  1.
         -5    1    4    4    0  501 -0.67197960324E+02 -0.14534184908E+02 -0.14554678620E+03  0.16102219653E+03  0.41800000000E+01 0.  1.
</event>
<event>
11    1  0.9238666E-009  0.1558987E+03  0.7561462E-02  0.1090999E+00
         22   -1    0    0    0    0  0.00000000000E+00  0.00000000000E+00  0.63291874813E+03  0.63291874813E+03  0.00000000000E+00 0.  1.
         22   -1    0    0    0    0 -0.00000000000E+00 -0.00000000000E+00 -0.56433622313E+03  0.56433622313E+03  0.00000000000E+00 0. -1.
         24    2    1    2    0    0  0.10004390464E+02 -0.60697846858E+01 -0.48558788037E+03  0.49278918861E+03  0.83118377862E+02 0.  0.
         25    2    1    2    0    0 -0.96862940420E+02 -0.25283706447E+02  0.26117572441E+02  0.16233428313E+03  0.12509435180E+03 0.  0.
        -24    2    1    2    0    0  0.86858549955E+02  0.31353491133E+02  0.52805283294E+03  0.54213149951E+03  0.80866057704E+02 0.  0.
        -13    1    3    3    0    0 -0.35939694980E+02  0.22094893464E+01 -0.17041032649E+03  0.17417296831E+03  0.00000000000E+00 0.  1.
         14    1    3    3    0    0  0.45944085445E+02 -0.82792740322E+01 -0.31517755388E+03  0.31861622030E+03  0.00000000000E+00 0. -1.
         13    1    5    5    0    0 -0.88989555859E+01 -0.11070234321E+02  0.12058554587E+03  0.12141917217E+03  0.00000000000E+00 0. -1.
        -14    1    5    5    0    0  0.95757505541E+02  0.42423725454E+02  0.40746728707E+03  0.42071232734E+03  0.00000000000E+00 0.  1.
          5    1    4    4  501    0  0.29135232183E+00 -0.31472490918E+02  0.52527641287E+02  0.61377748981E+02  0.41800000000E+01 0. -1.
         -5    1    4    4    0  501 -0.97154292741E+02  0.61887844707E+01 -0.26410068846E+02  0.10095653415E+03  0.41800000000E+01 0. -1.
</event>
<event>
11    1  0.9238666E-009  0.1395551E+03  0.7561462E-02  0.1108056E+00
         22   -1    0    0    0    0  0.00000000000E+00  0.00000000000E+00  0.10146796920E+04  0.10146796920E+04  0.00000000000E+00 0. -1.
         22   -1    0    0    0    0 -0.00000000000E+00 -0.00000000000E+00 -0.28800455813E+03  0.28800455813E+03  0.00000000000E+00 0.  1.
         24    2    1    2    0    0 -0.21123798644E+02 -0.11988495913E+02 -0.22330237250E+03  0.23843647368E+03  0.79987896059E+02 0.  0.
         25    2    1    2    0    0  0.74403266257E+02  0.40145892675E+02  0.53455526832E+02  0.16016537529E+03  0.12509162788E+03 0.  0.
        -24    2    1    2    0    0 -0.53279467613E+02 -0.28157396762E+02  0.89652197956E+03  0.90408240117E+03  0.99908896590E+02 0.  0.
        -11    1    3    3    0    0 -0.42110704938E+02  0.13531468861E+02 -0.17053731269E+03  0.17617998507E+03  0.00000000000E+00 0.  1.
         12    1    3    3    0    0  0.20986906294E+02 -0.25519964775E+02 -0.52765059808E+02  0.62256488613E+02  0.00000000000E+00 0. -1.
         11    1    5    5    0    0 -0.55995601943E+02 -0.51558129076E+02  0.41098044779E+03  0.41796970773E+03  0.00000000000E+00 0. -1.
        -12    1    5    5    0    0  0.27161343301E+01  0.23400732314E+02  0.48554153176E+03  0.48611269344E+03  0.00000000000E+00 0.  1.
          5    1    4    4  501    0  0.46279687291E+02  0.69537612496E+02  0.76397910250E+02  0.11327577896E+03  0.41800000000E+01 0.  1.
         -5    1    4    4    0  501  0.28123578966E+02 -0.29391719821E+02 -0.22942383418E+02  0.46889596338E+02  0.41800000000E+01 0.  1.
</event>
<event>
11    1  0.9238666E-009  0.1951041E+03  0.7561462E-02  0.1058041E+00
         22   -1    0    0    0    0  0.00000000000E+00  0.00000000000E+00  0.29672620229E+03  0.29672620229E+03  0.00000000000E+00 0. -1.
         22   -1    0    0    0    0 -0.00000000000E+00 -0.00000000000E+00 -0.20182823742E+04  0.20182823742E+04  0.00000000000E+00 0. -1.
         24    2    1    2    0    0  0.13777313876E+03  0.79127403147E+02 -0.18897989768E+04  0.18981644187E+04  0.80283273766E+02 0.  0.
         25    2    1    2    0    0 -0.49291310728E+02 -0.24305826859E+02 -0.64265191446E+02  0.15098914559E+03  0.12508917108E+03 0.  0.
        -24    2    1    2    0    0 -0.88481828029E+02 -0.54821576288E+02  0.23250799630E+03  0.26585501222E+03  0.76055769421E+02 0.  0.
        -13    1    3    3    0    0  0.33868271971E+02  0.64647025151E+01 -0.84453495523E+03  0.84523851239E+03  0.00000000000E+00 0.  1.
         14    1    3    3    0    0  0.10390486679E+03  0.72662700632E+02 -0.10452640215E+04  0.10529259063E+04  0.00000000000E+00 0. -1.
         13    1    5    5    0    0 -0.40771439161E+02 -0.68112836750E+02  0.14421875606E+03  0.16462295825E+03  0.00000000000E+00 0. -1.
        -14    1    5    5    0    0 -0.47710388868E+02  0.13291260461E+02  0.88289240239E+02  0.10123205398E+03  0.00000000000E+00 0.  1.
          5    1    4    4  501    0 -0.79526752054E+02 -0.34289274512E+02 -0.91314874619E+01  0.87184374186E+02  0.41800000000E+01 0.  1.
         -5    1    4    4    0  501  0.30235441326E+02  0.99834476529E+01 -0.55133703984E+02  0.63804771406E+02  0.41800000000E+01 0.  1.
</event>
<event>
11    1  0.9238666E-009  0.1495816E+03  0.7561462E-02  0.1097307E+00
         22   -1    0    0    0    0  0.00000000000E+00  0.00000000000E+00  0.25234327245E+04  0.25234327245E+04  0.00000000000E+00 0.  1.
         22   -1    0    0    0    0 -0.00000000000E+00 -0.00000000000E+00 -0.21713601046E+03  0.21713601046E+03  0.00000000000E+00 0.  1.
        -24    2    1    2    0    0 -0.44089349757E+02 -0.20295932266E+02 -0.16552986350E+03  0.18993751716E+03  0.79500497381E+02 0.  0.
         25    2    1    2    0    0  0.12249299477E+03  0.13889611956E+01  0.16370387597E+03  0.23969339026E+03  0.12508996500E+03 0.  0.
         24    2    1    2    0    0 -0.78403645011E+02  0.18906971070E+02  0.23081227016E+04  0.23109378276E+04  0.80614094436E+02 0.  0.
        -13    1    5    5    0    0 -0.71324249402E+02 -0.16414794484E+02  0.18284914870E+04  0.18299556584E+04  0.00000000000E+00 0.  1.
         14    1    5    5    0    0 -0.70793956090E+01  0.35321765554E+02  0.47963121464E+03  0.48098216913E+03  0.00000000000E+00 0. -1.
         11    1    3    3    0    0  0.14841990387E+02 -0.76236386554E+01 -0.34865201252E+01  0.17045831384E+02  0.00000000000E+00 0. -1.
        -12    1    3    3    0    0 -0.58931340143E+02 -0.12672293610E+02 -0.16204334338E+03  0.17289168577E+03  0.00000000000E+00 0.  1.
          5    1    4    4  501    0  0.66788715023E+02  0.18689310988E+02  0.16724954755E+03  0.18110744423E+03  0.41800000000E+01 0.  1.
         -5    1    4    4    0  501  0.55704279745E+02 -0.17300349792E+02 -0.35456715800E+01  0.58585946026E+02  0.41800000000E+01 0.  1.
</event>
<event>
11    1  0.9238666E-009  0.3525017E+03  0.7561462E-02  0.9801335E-01
         22   -1    0    0    0    0  0.00000000000E+00  0.00000000000E+00  0.39010037457E+03  0.39010037457E+03  0.00000000000E+00 0. -1.
         22   -1    0    0    0    0 -0.00000000000E+00 -0.00000000000E+00 -0.14560843625E+04  0.14560843625E+04  0.00000000000E+00 0.  1.
        -24    2    1    2    0    0  0.10134549154E+03  0.25215597552E+03 -0.52492900065E+03  0.59397309262E+03  0.58309813813E+02 0.  0.
         25    2    1    2    0    0  0.20863398043E+03 -0.36344599182E+03 -0.73987450496E+03  0.85946586522E+03  0.12508462585E+03 0.  0.
         24    2    1    2    0    0 -0.30997947197E+03  0.11129001630E+03  0.19881951767E+03  0.39274577923E+03  0.79039899589E+02 0.  0.
        -13    1    5    5    0    0 -0.10420368005E+03  0.77822493957E+02  0.82404909990E+02  0.15396531003E+03  0.00000000000E+00 0.  1.
         14    1    5    5    0    0 -0.20577579192E+03  0.33467522346E+02  0.11641460768E+03  0.23878046920E+03  0.00000000000E+00 0. -1.
         11    1    3    3    0    0  0.38989626541E+02  0.11195308740E+03 -0.16956548415E+03  0.20689644311E+03  0.00000000000E+00 0. -1.
        -12    1    3    3    0    0  0.62355864997E+02  0.14020288812E+03 -0.35536351650E+03  0.38707664951E+03  0.00000000000E+00 0.  1.
          5    1    4    4  501    0  0.24646197867E+02 -0.16194175015E+03 -0.25632756903E+03  0.30422665984E+03  0.41800000000E+01 0. -1.
         -5    1    4    4    0  501  0.18398778256E+03 -0.20150424167E+03 -0.48354693592E+03  0.55523920537E+03  0.41800000000E+01 0. -1.
</event>
<event>
11    1  0.9238666E-009  0.1725870E+03  0.7561462E-02  0.1075802E+00
         22   -1    0    0    0    0  0.00000000000E+00  0.00000000000E+00  0.37162830151E+03  0.37162830151E+03  0.00000000000E+00 0. -1.
         22   -1    0    0    0    0 -0.00000000000E+00 -0.00000000000E+00 -0.15195828359E+04  0.15195828359E+04  0.00000000000E+00 0. -1.
        -24    2    1    2    0    0 -0.70817362296E+02  0.10668254210E+02 -0.13849746877E+04  0.13892247455E+04  0.81618610476E+02 0.  0.
         25    2    1    2    0    0  0.13814063028E+03 -0.10011558977E+03 -0.17623485267E+02  0.21228693165E+03  0.12509671885E+03 0.  0.
         24    2    1    2    0    0 -0.67323267981E+02  0.89447335564E+02  0.25464363850E+03  0.28969946030E+03  0.80926796653E+02 0.  0.
        -13    1    5    5    0    0  0.70239429270E+01  0.15873402314E+02  0.35865702200E+01  0.17724676618E+02  0.00000000000E+00 0.  1.
         14    1    5    5    0    0 -0.74347210908E+02  0.73573933249E+02  0.25105706828E+03  0.27197478368E+03  0.00000000000E+00 0. -1.
         11    1    3    3    0    0 -0.35609835163E+02 -0.21879073821E+02 -0.10504881640E+04  0.10513192364E+04  0.00000000000E+00 0. -1.
        -12    1    3    3    0    0 -0.35207527133E+02  0.32547328031E+02 -0.33448652372E+03  0.33790550909E+03  0.00000000000E+00 0.  1.
          5    1    4    4  501    0  0.28033361436E+02 -0.34556014691E+02  0.50221193689E+02  0.67228180105E+02  0.41800000000E+01 0.  1.
         -5    1    4    4    0  501  0.11010726884E+03 -0.65559575082E+02 -0.67844678956E+02  0.14505875154E+03  0.41800000000E+01 0.  1.
</event>
<event>
11    1  0.9238666E-009  0.1427151E+03  0.7561462E-02  0.1104564E+00
         22   -1    0    0    0    0  0.00000000000E+00  0.00000000000E+00  0.43754814314E+04  0.43754814314E+04  0.00000000000E+00 0. -1.
         22   -1    0    0    0    0 -0.00000000000E+00 -0.00000000000E+00 -0.11060105372E+03  0.11060105372E+03  0.00000000000E+00 0.  1.
        -24    2    1    2    0    0 -0.29637017044E+02 -0.60691903854E+02 -0.69518570566E+02  0.12515696572E+03  0.79180644365E+02 0.  0.
         25    2    1    2    0    0  0.23146856175E+02  0.86288788924E+02  0.44743414800E+03  0.47310375474E+03  0.12509322089E+03 0.  0.
         24    2    1    2    0    0  0.64901608690E+01 -0.25596885070E+02  0.38869648003E+04  0.38878217647E+04  0.77235954340E+02 0.  0.
        -13    1    5    5    0    0 -0.14526388866E+02  0.19844422883E+02  0.21352962440E+04  0.21354378630E+04  0.00000000000E+00 0.  1.
         14    1    5    5    0    0  0.21016549735E+02 -0.45441307953E+02  0.17516685563E+04  0.17523839017E+04  0.00000000000E+00 0. -1.
         13    1    3    3    0    0  0.32202799787E+01  0.15759480798E+02  0.95205354270E+00  0.16113281606E+02  0.00000000000E+00 0. -1.
        -14    1    3    3    0    0 -0.32857297023E+02 -0.76451384652E+02 -0.70470624109E+02  0.10904368411E+03  0.00000000000E+00 0.  1.
          5    1    4    4  501    0  0.54897373440E+02  0.91386038856E+02  0.23341776349E+03  0.25664460723E+03  0.41800000000E+01 0.  1.
         -5    1    4    4    0  501 -0.31750517265E+02 -0.50972499322E+01  0.21401638451E+03  0.21645914751E+03  0.41800000000E+01 0.  1.
</event>
<event>
11    1  0.9238666E-009  0.1293229E+03  0.7561462E-02  0.1120104E+00
         22   -1    0    0    0    0  0.00000000000E+00  0.00000000000E+00  0.18900698474E+04  0.18900698474E+04  0.00000000000E+00 0. -1.
         22   -1    0    0    0    0 -0.00000000000E+00 -0.00000000000E+00 -0.12066606548E+04  0.12066606548E+04  0.00000000000E+00 0. -1.
        -24    2    1    2    0    0 -0.37142189901E+02  0.94621485636E+01 -0.11888129002E+04  0.11920967505E+04  0.79683600557E+02 0.  0.
         25    2    1    2    0    0  0.14695800748E+01 -0.77076735730E+01  0.24769350179E+03  0.27759888308E+03  0.12508997226E+03 0.  0.
         24    2    1    2    0    0  0.35672609826E+02 -0.17544749906E+01  0.16245285910E+04  0.16270348687E+04  0.82907826603E+02 0.  0.
        -11    1    5    5    0    0  0.59620197053E+01 -0.37885806409E+02  0.10102633315E+04  0.10109910380E+04  0.00000000000E+00 0.  1.
         12    1    5    5    0    0  0.29710590120E+02  0.36131331419E+02  0.61426525957E+03  0.61604383073E+03  0.00000000000E+00 0. -1.
         11    1    3    3    0    0 -0.20400531273E+02 -0.18662082355E+02 -0.10058139312E+04  0.10061938776E+04  0.00000000000E+00 0. -1.
        -12    1    3    3    0    0 -0.16741658628E+02  0.28124230919E+02 -0.18299896899E+03  0.18590287289E+03  0.00000000000E+00 0.  1.
          5    1    4    4  501    0 -0.47398759947E+02 -0.21875991484E+02  0.20332396389E+03  0.20996025372E+03  0.41800000000E+01 0.  1.
         -5    1    4    4    0  501  0.48868340022E+02  0.14168317911E+02  0.44369537899E+02  0.67638629364E+02  0.41800000000E+01 0.  1.
</event>
<event>
11    1  0.9238666E-009  0.1503245E+03  0.7561462E-02  0.1096548E+00
         22   -1    0    0    0    0  0.00000000000E+00  0.00000000000E+00  0.77862538445E+03  0.77862538445E+03  0.00000000000E+00 0. -1.
         22   -1    0    0    0    0 -0.00000000000E+00 -0.00000000000E+00 -0.18389623550E+03  0.18389623550E+03  0.00000000000E+00 0.  1.
        -24    2    1    2    0    0 -0.11993568196E+02 -0.40418820204E+02 -0.13470495257E+03  0.16124967290E+03  0.77964774469E+02 0.  0.
         25    2    1    2    0    0  0.92813784084E+02  0.43526785733E+02  0.18789640564E+03  0.24791427360E+03  0.12508976061E+03 0.  0.
         24    2    1    2    0    0 -0.80820215888E+02 -0.31079655293E+01  0.54153769587E+03  0.55335767345E+03  0.80000449788E+02 0.  0.
        -13    1    5    5    0    0 -0.20790527970E+02 -0.19379753884E+02  0.47009774996E+02  0.54933959069E+02  0.00000000000E+00 0.  1.
         14    1    5    5    0    0 -0.60029687918E+02  0.16271788355E+02  0.49452792088E+03  0.49842371438E+03  0.00000000000E+00 0. -1.
         11    1    3    3    0    0 -0.49348178811E+01 -0.63560136537E+02 -0.88200139429E+02  0.10882788236E+03  0.00000000000E+00 0. -1.
        -12    1    3    3    0    0 -0.70587503147E+01  0.23141316334E+02 -0.46504813143E+02  0.52421790537E+02  0.00000000000E+00 0.  1.
          5    1    4    4  501    0  0.59726688093E+02  0.65553043708E+02  0.18804224430E+03  0.20794671638E+03  0.41800000000E+01 0.  1.
         -5    1    4    4    0  501  0.33087095991E+02 -0.22026257974E+02 -0.14583866143E+00  0.39967557223E+02  0.41800000000E+01 0.  1.
</event>
<event>
11    1  0.9238666E-009  0.1381693E+03  0.7561462E-02  0.1109620E+00
         22   -1    0    0    0    0  0.00000000000E+00  0.00000000000E+00  0.18080914295E+04  0.18080914295E+04  0.00000000000E+00 0.  1.
         22   -1    0    0    0    0 -0.00000000000E+00 -0.00000000000E+00 -0.31165813917E+03  0.31165813917E+03  0.00000000000E+00 0.  1.
         24    2    1    2    0    0 -0.97726338239E+01 -0.56443468926E+02 -0.26816679266E+03  0.28577595442E+03  0.80455564635E+02 0.  0.
         25    2    1    2    0    0  0.53555133332E+02  0.80457710901E+02  0.15426856053E+03  0.22087290716E+03  0.12507780299E+03 0.  0.
        -24    2    1    2    0    0 -0.43782499508E+02 -0.24014241975E+02  0.16103315225E+04  0.16131007071E+04  0.80204038856E+02 0.  0.
        -13    1    3    3    0    0 -0.21859575968E+02 -0.53548709980E+02 -0.26711229797E+03  0.27330255237E+03  0.00000000000E+00 0.  1.
         14    1    3    3    0    0  0.12086942144E+02 -0.28947589459E+01 -0.10544946924E+01  0.12473402054E+02  0.00000000000E+00 0. -1.
         11    1    5    5    0    0 -0.19777545575E+02 -0.24533601290E+01  0.80543355459E+02  0.82972298953E+02  0.00000000000E+00 0. -1.
        -12    1    5    5    0    0 -0.24004953933E+02 -0.21560881846E+02  0.15297881670E+04  0.15301284081E+04  0.00000000000E+00 0.  1.
          5    1    4    4  501    0  0.34126847604E+01  0.84493948582E+02  0.35471629218E+02  0.91796419558E+02  0.41800000000E+01 0.  1.
         -5    1    4    4    0  501  0.50142448572E+02 -0.40362376812E+01  0.11879693131E+03  0.12907648760E+03  0.41800000000E+01 0.  1.
</event>
<event>
11    1  0.9238666E-009  0.1508732E+03  0.7561462E-02  0.1095990E+00
         22   -1    0    0    0    0  0.00000000000E+00  0.00000000000E+00  0.59355190258E+03  0.59355190258E+03  0.00000000000E+00 0.  1.
         22   -1    0    0    0    0 -0.00000000000E+00 -0.00000000000E+00 -0.78763019194E+03  0.78763019194E+03  0.00000000000E+00 0.  1.
        -24    2    1    2    0    0 -0.36384252335E+02 -0.20875120302E+02 -0.74218149799E+03  0.74777579697E+03  0.81090579686E+02 0.  0.
         25    2    1    2    0    0  0.92748245197E+02  0.72683202936E+02  0.17909192558E+03  0.24821146989E+03  0.12509968425E+03 0.  0.
         24    2    1    2    0    0 -0.56363992862E+02 -0.51808082634E+02  0.36901128304E+03  0.38519482766E+03  0.79653946083E+02 0.  0.
        -11    1    5    5    0    0 -0.47969063941E+02 -0.37570014824E+02  0.36224699553E+03  0.36733557258E+03  0.00000000000E+00 0.  1.
         12    1    5    5    0    0 -0.83949289204E+01 -0.14238067810E+02  0.67642875076E+01  0.17859255080E+02  0.00000000000E+00 0. -1.
         13    1    3    3    0    0  0.22536543425E+02 -0.16898782997E+02 -0.35508727216E+03  0.35620280109E+03  0.00000000000E+00 0. -1.
        -14    1    3    3    0    0 -0.58920795760E+02 -0.39763373053E+01 -0.38709422583E+03  0.39157299588E+03  0.00000000000E+00 0.  1.
          5    1    4    4  501    0  0.99839647472E+02  0.50524569224E+01  0.80748175380E+02  0.12857380276E+03  0.41800000000E+01 0.  1.
         -5    1    4    4    0  501 -0.70914022748E+01  0.67630746014E+02  0.98343750205E+02  0.11963766713E+03  0.41800000000E+01 0.  1.
</event>
<event>
11    1  0.9238666E-009  0.1827446E+03  0.7561462E-02  0.1067444E+00
         22   -1    0    0    0    0  0.00000000000E+00  0.00000000000E+00  0.16844046074E+04  0.16844046074E+04  0.00000000000E+00 0.  1.
         22   -1    0    0    0    0 -0.00000000000E+00 -0.00000000000E+00 -0.49194350732E+03  0.49194350732E+03  0.00000000000E+00 0. -1.
         24    2    1    2    0    0  0.30934250280E+02 -0.45686206895E+02 -0.45678869400E+03  0.46700310590E+03  0.79948937574E+02 0.  0.
         25    2    1    2    0    0 -0.15397127887E+03  0.76350475596E+02  0.41864339674E+03  0.46951715668E+03  0.12509003535E+03 0.  0.
        -24    2    1    2    0    0  0.12303702859E+03 -0.30664268701E+02  0.12306063974E+04  0.12398278522E+04  0.81869346946E+02 0.  0.
        -11    1    3    3    0    0  0.23692822190E+02 -0.84311733482E+01 -0.32859746202E+02  0.41378707421E+02  0.00000000000E+00 0.  1.
         12    1    3    3    0    0  0.72414280900E+01 -0.37255033547E+02 -0.42392894779E+03  0.42562439848E+03  0.00000000000E+00 0. -1.
         11    1    5    5    0    0  0.30618041683E+02  0.23535343734E+02  0.20213764828E+03  0.20579359983E+03  0.00000000000E+00 0. -1.
        -12    1    5    5    0    0  0.92418986906E+02 -0.54199612435E+02  0.10284687491E+04  0.10340342523E+04  0.00000000000E+00 0.  1.
          5    1    4    4  501    0 -0.11564591291E+03 -0.11722853961E+02  0.22165496204E+03  0.25031939013E+03  0.41800000000E+01 0. -1.
         -5    1    4    4    0  501 -0.38325365954E+02  0.88073329557E+02  0.19698843470E+03  0.21919776655E+03  0.41800000000E+01 0. -1.
</event>
<event>
11    1  0.9238666E-009  0.1430771E+03  0.7561462E-02  0.1104170E+00
         22   -1    0    0    0    0  0.00000000000E+00  0.00000000000E+00  0.22866297777E+03  0.22866297777E+03  0.00000000000E+00 0.  1.
         22   -1    0    0    0    0 -0.00000000000E+00 -0.00000000000E+00 -0.14041522793E+03  0.14041522793E+03  0.00000000000E+00 0.  1.
        -24    2    1    2    0    0 -0.40818929351E+02 -0.43832796438E+02  0.96266965369E+01  0.10392070434E+03  0.84376184241E+02 0.  0.
         25    2    1    2    0    0  0.54675259996E+02  0.61736682271E+02  0.44531539936E+01  0.14989124340E+03  0.12508697884E+03 0.  0.
         24    2    1    2    0    0 -0.13856330645E+02 -0.17903885832E+02  0.74167899313E+02  0.11526625795E+03  0.85281216616E+02 0.  0.
        -11    1    5    5    0    0  0.28961136487E+02  0.16461741934E+02  0.29185549510E+02  0.44289193651E+02  0.00000000000E+00 0.  1.
         12    1    5    5    0    0 -0.42817467132E+02 -0.34365627766E+02  0.44982349803E+02  0.70977064304E+02  0.00000000000E+00 0. -1.
         13    1    3    3    0    0 -0.62603215161E+02 -0.35482108440E+02  0.24774243569E+02  0.76104570902E+02  0.00000000000E+00 0. -1.
        -14    1    3    3    0    0  0.21784285810E+02 -0.83506879989E+01 -0.15147547032E+02  0.27816133437E+02  0.00000000000E+00 0.  1.
          5    1    4    4  501    0 -0.34426027058E+02 -0.88857140167E+01  0.47951592614E+01  0.36118876020E+02  0.41800000000E+01 0. -1.
         -5    1    4    4    0  501  0.89101287054E+02  0.70622396288E+02 -0.34200526779E+00  0.11377236738E+03  0.41800000000E+01 0. -1.
</event>
<event>
11    1  0.9238666E-009  0.1582480E+03  0.7561462E-02  0.1088737E+00
         22   -1    0    0    0    0  0.00000000000E+00  0.00000000000E+00  0.69781689103E+03  0.69781689103E+03  0.00000000000E+00 0. -1.
         22   -1    0    0    0    0 -0.00000000000E+00 -0.00000000000E+00 -0.20491277835E+03  0.20491277835E+03  0.00000000000E+00 0. -1.
        -24    2    1    2    0    0 -0.22060429014E+02 -0.10733028432E+03 -0.11440862938E+03  0.17790401453E+03  0.80957096362E+02 0.  0.
         25    2    1    2    0    0 -0.26371024050E+02  0.64033793727E+02  0.40089916932E+02  0.14849398887E+03  0.12508999018E+03 0.  0.
         24    2    1    2    0    0  0.48431453064E+02  0.43296490588E+02  0.56722282512E+03  0.57633166598E+03  0.78716352368E+02 0.  0.
        -11    1    5    5    0    0  0.32756754393E+02  0.11212275184E+02  0.72721682059E+02  0.80542927154E+02  0.00000000000E+00 0.  1.
         12    1    5    5    0    0  0.15674698671E+02  0.32084215404E+02  0.49450114306E+03  0.49578873882E+03  0.00000000000E+00 0. -1.
         13    1    3    3    0    0  0.22501314524E+02 -0.80379895607E+02 -0.79015792725E+02  0.11493794966E+03  0.00000000000E+00 0. -1.
        -14    1    3    3    0    0 -0.44561743538E+02 -0.26950388708E+02 -0.35392836653E+02  0.62966064868E+02  0.00000000000E+00 0.  1.
          5    1    4    4  501    0 -0.72329021202E+02  0.36079360939E+02  0.47791070966E+02  0.93992906423E+02  0.41800000000E+01 0.  1.
         -5    1    4    4    0  501  0.45957997152E+02  0.27954432787E+02 -0.77011540335E+01  0.54501082449E+02  0.41800000000E+01 0.  1.
</event>
<event>
11    1  0.9238666E-009  0.3468761E+03  0.7561462E-02  0.9820975E-01
         22   -1    0    0    0    0  0.00000000000E+00  0.00000000000E+00  0.13338931199E+04  0.13338931199E+04  0.00000000000E+00 0. -1.
         22   -1    0    0    0    0 -0.00000000000E+00 -0.00000000000E+00 -0.24210797097E+03  0.24210797097E+03  0.00000000000E+00 0.  1.
        -24    2    1    2    0    0 -0.14030065758E+03  0.37872410428E+03  0.19503655377E+03  0.45508219064E+03  0.77099424452E+02 0.  0.
         25    2    1    2    0    0  0.22591211498E+02 -0.27281223729E+03  0.11999754524E+03  0.32401243534E+03  0.12509103780E+03 0.  0.
         24    2    1    2    0    0  0.11770944608E+03 -0.10591186699E+03  0.77675104995E+03  0.79690646493E+03  0.81516151709E+02 0.  0.
        -13    1    5    5    0    0  0.17814789504E+02  0.48860227818E+01  0.28743120855E+02  0.34167337329E+02  0.00000000000E+00 0.  1.
         14    1    5    5    0    0  0.99894656578E+02 -0.11079788977E+03  0.74800792909E+03  0.76273912760E+03  0.00000000000E+00 0. -1.
         11    1    3    3    0    0 -0.75560376940E+02  0.10199151260E+03  0.57535412934E+02  0.13936270286E+03  0.00000000000E+00 0. -1.
        -12    1    3    3    0    0 -0.64740280639E+02  0.27673259168E+03  0.13750114083E+03  0.31571948778E+03  0.00000000000E+00 0.  1.
          5    1    4    4  501    0 -0.46717158979E+02 -0.66673262403E+02  0.49425276128E+02  0.95331774256E+02  0.41800000000E+01 0. -1.
         -5    1    4    4    0  501  0.69308370477E+02 -0.20613897489E+03  0.70572269117E+02  0.22868066108E+03  0.41800000000E+01 0. -1.
</event>
<event>
11    1  0.9238666E-009  0.1301403E+03  0.7561462E-02  0.1119097E+00
         22   -1    0    0    0    0  0.00000000000E+00  0.00000000000E+00  0.20087356880E+03  0.20087356880E+03  0.00000000000E+00 0. -1.
         22   -1    0    0    0    0 -0.00000000000E+00 -0.00000000000E+00 -0.43781235545E+03  0.43781235545E+03  0.00000000000E+00 0. -1.
         24    2    1    2    0    0  0.28747540449E+02  0.17915006713E+02 -0.30859123811E+03  0.32080976927E+03  0.80888733884E+02 0.  0.
         25    2    1    2    0    0 -0.45320436585E+02 -0.19720000390E+02 -0.71999466512E+02  0.15256820402E+03  0.12510121227E+03 0.  0.
        -24    2    1    2    0    0  0.16572896136E+02  0.18049936770E+01  0.14365191797E+03  0.16530795097E+03  0.80080748177E+02 0.  0.
        -11    1    3    3    0    0 -0.15674180341E+02 -0.20930594975E+02 -0.13364630055E+03  0.13618040750E+03  0.00000000000E+00 0.  1.
         12    1    3    3    0    0  0.44421720790E+02  0.38845601688E+02 -0.17494493756E+03  0.18462936177E+03  0.00000000000E+00 0. -1.
         11    1    5    5    0    0  0.15338079932E+02  0.11370796263E+02  0.15160754166E+03  0.15280509936E+03  0.00000000000E+00 0. -1.
        -12    1    5    5    0    0  0.12348162035E+01 -0.95658025865E+01 -0.79556236840E+01  0.12502851610E+02  0.00000000000E+00 0.  1.
          5    1    4    4  501    0  0.34102046702E+02 -0.10105848790E+02 -0.62315936727E+02  0.71873681826E+02  0.41800000000E+01 0. -1.
         -5    1    4    4    0  501 -0.79422483287E+02 -0.96141515994E+01 -0.96835297850E+01  0.80694522191E+02  0.41800000000E+01 0. -1.
</event>
<event>
11    1  0.9238666E-009  0.1703979E+03  0.7561462E-02  0.1077686E+00
         22   -1    0    0    0    0  0.00000000000E+00  0.00000000000E+00  0.26845717699E+04  0.26845717699E+04  0.00000000000E+00 0.  1.
         22   -1    0    0    0    0 -0.00000000000E+00 -0.00000000000E+00 -0.28318292820E+03  0.28318292820E+03  0.00000000000E+00 0. -1.
         24    2    1    2    0    0  0.11928587648E+03  0.12815433286E+02 -0.20143287409E+03  0.24781179763E+03  0.80262872030E+02 0.  0.
         25    2    1    2    0    0 -0.96422594649E+02  0.11517838191E+01  0.50112689991E+02  0.16570370838E+03  0.12509114241E+03 0.  0.
        -24    2    1    2    0    0 -0.22863281831E+02 -0.13967217105E+02  0.25527090258E+04  0.25542391921E+04  0.84241718893E+02 0.  0.
        -13    1    3    3    0    0  0.65717943211E+02  0.46092376813E+02 -0.98097004298E+02  0.12675321500E+03  0.00000000000E+00 0.  1.
         14    1    3    3    0    0  0.53567933270E+02 -0.33276943527E+02 -0.10333586979E+03  0.12105858264E+03  0.00000000000E+00 0. -1.
         13    1    5    5    0    0  0.82063190593E+01 -0.20773280934E+02  0.18885528252E+03  0.19017147685E+03  0.00000000000E+00 0. -1.
        -14    1    5    5    0    0 -0.31069600891E+02  0.68060638288E+01  0.23638537433E+04  0.23640677153E+04  0.00000000000E+00 0.  1.
          5    1    4    4  501    0 -0.49317262048E+02 -0.36138142129E+02 -0.27745905039E+02  0.67271578686E+02  0.41800000000E+01 0.  1.
         -5    1    4    4    0  501 -0.47105332601E+02  0.37289925948E+02  0.77858595030E+02  0.98432129697E+02  0.41800000000E+01 0.  1.
</event>
<event>
11    1  0.9238666E-009  0.1359716E+03  0.7561462E-02  0.1112142E+00
         22   -1    0    0    0    0  0.00000000000E+00  0.00000000000E+00  0.15883936258E+03  0.15883936258E+03  0.00000000000E+00 0.  1.
         22   -1    0    0    0    0 -0.00000000000E+00 -0.00000000000E+00 -0.76181430658E+03  0.76181430658E+03  0.00000000000E+00 0.  1.
        -24    2    1    2    0    0  0.50328862847E+02  0.13232187206E+02 -0.65935673543E+03  0.66639158146E+03  0.81353242502E+02 0.  0.
         25    2    1    2    0    0 -0.75818650095E+02 -0.50357649794E+02  0.26456617579E+02  0.15694161066E+03  0.12508539463E+03 0.  0.
         24    2    1    2    0    0  0.25489787248E+02  0.37125462588E+02  0.29925173859E+02  0.97320477035E+02  0.80918044919E+02 0.  0.
        -13    1    5    5    0    0  0.33527652011E+02  0.10117604394E+02  0.51186712385E+02  0.62020552181E+02  0.00000000000E+00 0.  1.
         14    1    5    5    0    0 -0.80378647635E+01  0.27007858194E+02 -0.21261538526E+02  0.35299924854E+02  0.00000000000E+00 0. -1.
         13    1    3    3    0    0  0.19427594472E+02  0.22558052152E+02 -0.68942713221E+02  0.75095904350E+02  0.00000000000E+00 0. -1.
        -14    1    3    3    0    0  0.30901268375E+02 -0.93258649456E+01 -0.59041402221E+03  0.59129567711E+03  0.00000000000E+00 0.  1.
          5    1    4    4  501    0 -0.36013845318E+02  0.16291542791E+02 -0.38721694350E+02  0.55491021206E+02  0.41800000000E+01 0.  1.
         -5    1    4    4    0  501 -0.39804804776E+02 -0.66649192585E+02  0.65178311929E+02  0.10145058946E+03  0.41800000000E+01 0.  1.
</event>
<event>
11    1  0.9238666E-009  0.1511533E+03  0.7561462E-02  0.1095706E+00
         22   -1    0    0    0    0  0.00000000000E+00  0.00000000000E+00  0.25976825462E+04  0.25976825462E+04  0.00000000000E+00 0.  1.
         22   -1    0    0    0    0 -0.00000000000E+00 -0.00000000000E+00 -0.15668688209E+03  0.15668688209E+03  0.00000000000E+00 0. -1.
        -24    2    1    2    0    0  0.27686499505E+02 -0.21059316940E+02 -0.12785531832E+03  0.15556140597E+03  0.81500500117E+02 0.  0.
         25    2    1    2    0    0 -0.10387555182E+03  0.49479062552E+02  0.52588714348E+03  0.55266878273E+03  0.12508871982E+03 0.  0.
         24    2    1    2    0    0  0.76189052317E+02 -0.28419745612E+02  0.20429638390E+04  0.20461392396E+04  0.79825352519E+02 0.  0.
        -11    1    5    5    0    0  0.15753873067E+02 -0.82086816329E+01  0.13812024028E+04  0.13813166344E+04  0.00000000000E+00 0.  1.
         12    1    5    5    0    0  0.60435179249E+02 -0.20211063979E+02  0.66176143623E+03  0.66482260528E+03  0.00000000000E+00 0. -1.
         13    1    3    3    0    0  0.41124317574E+02 -0.35769521117E+02 -0.46014397283E+02  0.71330168191E+02  0.00000000000E+00 0. -1.
        -14    1    3    3    0    0 -0.13437818069E+02  0.14710204177E+02 -0.81840921035E+02  0.84231237776E+02  0.00000000000E+00 0.  1.
          5    1    4    4  501    0 -0.26944104884E+02  0.62787142313E+02  0.11047662151E+03  0.12996448103E+03  0.41800000000E+01 0. -1.
         -5    1    4    4    0  501 -0.76931446937E+02 -0.13308079761E+02  0.41541052197E+03  0.42270430170E+03  0.41800000000E+01 0. -1.
</event>
<event>
11    1  0.9238666E-009  0.1460743E+03  0.7561462E-02  0.1100959E+00
         22   -1    0    0    0    0  0.00000000000E+00  0.00000000000E+00  0.50366434147E+03  0.50366434147E+03  0.00000000000E+00 0.  1.
         22   -1    0    0    0    0 -0.00000000000E+00 -0.00000000000E+00 -0.24991120503E+04  0.24991120503E+04  0.00000000000E+00 0. -1.
         24    2    1    2    0    0  0.30919153117E+02  0.29076732257E+02 -0.20118121174E+04  0.20138703898E+04  0.80526398334E+02 0.  0.
         25    2    1    2    0    0 -0.16111744605E+02  0.45331659431E+02 -0.47080248517E+03  0.48950690529E+03  0.12508989815E+03 0.  0.
        -24    2    1    2    0    0 -0.14807408512E+02 -0.74408391688E+02  0.48716689372E+03  0.49939909670E+03  0.79448142485E+02 0.  0.
        -11    1    3    3    0    0  0.40808127537E+02  0.51433748200E+02 -0.15843160990E+04  0.15856759553E+04  0.00000000000E+00 0.  1.
         12    1    3    3    0    0 -0.98889744192E+01 -0.22357015943E+02 -0.42749601842E+03  0.42819443451E+03  0.00000000000E+00 0. -1.
         13    1    5    5    0    0 -0.26146574809E+02 -0.67068460170E+02  0.21175156451E+03  0.22365273707E+03  0.00000000000E+00 0. -1.
        -14    1    5    5    0    0  0.11339166296E+02 -0.73399315186E+01  0.27541532921E+03  0.27574635963E+03  0.00000000000E+00 0.  1.
          5    1    4    4  501    0 -0.57977255738E+02  0.56655617823E+02 -0.38276983910E+03  0.39128179531E+03  0.41800000000E+01 0.  1.
         -5    1    4    4    0  501  0.41865511133E+02 -0.11323958392E+02 -0.88032646066E+02  0.98225109975E+02  0.41800000000E+01 0.  1.
</event>
<event>
11    1  0.9238666E-009  0.2602252E+03  0.7561462E-02  0.1018589E+00
         22   -1    0    0    0    0  0.00000000000E+00  0.00000000000E+00  0.30562509329E+04  0.30562509329E+04  0.00000000000E+00 0.  1.
         22   -1    0    0    0    0 -0.00000000000E+00 -0.00000000000E+00 -0.62822324609E+02  0.62822324609E+02  0.00000000000E+00 0. -1.
         24    2    1    2    0    0  0.20035916180E+03  0.53501022114E+01  0.29708847000E+03  0.36749431072E+03  0.81351657013E+02 0.  0.
         25    2    1    2    0    0  0.12366747545E+03  0.91357169268E+02  0.83219357808E+03  0.85547238598E+03  0.12508826849E+03 0.  0.
        -24    2    1    2    0    0 -0.32402663725E+03 -0.96707271479E+02  0.18641465602E+04  0.18961065608E+04  0.76368409448E+02 0.  0.
        -13    1    3    3    0    0  0.10386954300E+03  0.40169803535E+02  0.12743947828E+03  0.16924336236E+03  0.00000000000E+00 0.  1.
         14    1    3    3    0    0  0.96489618805E+02 -0.34819701324E+02  0.16964899172E+03  0.19825094837E+03  0.00000000000E+00 0. -1.
         13    1    5    5    0    0 -0.18042298781E+03 -0.55317208598E+02  0.82768609701E+03  0.84892680678E+03  0.00000000000E+00 0. -1.
        -14    1    5    5    0    0 -0.14360364944E+03 -0.41390062881E+02  0.10364604632E+04  0.10471797540E+04  0.00000000000E+00 0.  1.
          5    1    4    4  501    0  0.12407046021E+03  0.95217894519E+02  0.83470419900E+03  0.84923995358E+03  0.41800000000E+01 0.  1.
         -5    1    4    4    0  501 -0.40298476620E+00 -0.38607252507E+01 -0.25106209187E+01  0.62324323968E+01  0.41800000000E+01 0.  1.
</event>
<event>
11    1  0.9238666E-009  0.1630124E+03  0.7561462E-02  0.1084278E+00
         22   -1    0    0    0    0  0.00000000000E+00  0.00000000000E+00  0.32445856721E+04  0.32445856721E+04  0.00000000000E+00 0. -1.
         22   -1    0    0    0    0 -0.00000000000E+00 -0.00000000000E+00 -0.40474393214E+02  0.40474393214E+02  0.00000000000E+00 0.  1.
        -24    2    1    2    0    0 -0.10110159631E+02 -0.80652101937E+02  0.10207694154E+03  0.15278008766E+03  0.79467454453E+02 0.  0.
         25    2    1    2    0    0 -0.15658810943E+02  0.17296645488E+03  0.84228500710E+03  0.86905382041E+03  0.12509163326E+03 0.  0.
         24    2    1    2    0    0  0.25768970574E+02 -0.92314352943E+02  0.22597493302E+04  0.22632261572E+04  0.80867939672E+02 0.  0.
        -11    1    5    5    0    0  0.38692180340E+02 -0.61028778393E+02  0.84863987557E+03  0.85171076958E+03  0.00000000000E+00 0.  1.
         12    1    5    5    0    0 -0.12923209766E+02 -0.31285574550E+02  0.14111094547E+04  0.14115153876E+04  0.00000000000E+00 0. -1.
         13    1    3    3    0    0 -0.83447192561E+01 -0.60572705387E+01  0.71340220343E+02  0.72081564248E+02  0.00000000000E+00 0. -1.
        -14    1    3    3    0    0 -0.17654403747E+01 -0.74594831398E+02  0.30736721192E+02  0.80698523411E+02  0.00000000000E+00 0.  1.
          5    1    4    4  501    0 -0.64244504219E+02  0.13912317123E+03  0.56055419149E+03  0.58113775225E+03  0.41800000000E+01 0.  1.
         -5    1    4    4    0  501  0.48585693276E+02  0.33843283647E+02  0.28173081561E+03  0.28791606816E+03  0.41800000000E+01 0.  1.
</event>
<event>
11    1  0.9238666E-009  0.1317618E+03  0.7561462E-02  0.1117123E+00
         22   -1    0    0    0    0  0.00000000000E+00  0.00000000000E+00  0.11693989695E+04  0.11693989695E+04  0.00000000000E+00 0.  1.
         22   -1    0    0    0    0 -0.00000000000E+00 -0.00000000000E+00 -0.90043101822E+02  0.90043101822E+02  0.00000000000E+00 0. -1.
         24    2    1    2    0    0 -0.16346362780E+02  0.77213134023E+01 -0.47458888813E+02  0.95543208457E+02  0.80927969813E+02 0.  0.
         25    2    1    2    0    0  0.21650374954E+01 -0.46323126694E+02  0.25878706473E+03  0.29115129145E+03  0.12509120749E+03 0.  0.
        -24    2    1    2    0    0  0.14181325284E+02  0.38601813292E+02  0.86802769174E+03  0.87274757139E+03  0.80777718207E+02 0.  0.
        -13    1    3    3    0    0 -0.39455556471E+02 -0.19031122078E+02 -0.11880606059E+02  0.45388030848E+02  0.00000000000E+00 0.  1.
         14    1    3    3    0    0  0.23109193691E+02  0.26752435480E+02 -0.35578282754E+02  0.50155177608E+02  0.00000000000E+00 0. -1.
         13    1    5    5    0    0  0.36176851278E+02  0.89101642308E+01  0.18463802632E+03  0.18835964631E+03  0.00000000000E+00 0. -1.
        -14    1    5    5    0    0 -0.21995525994E+02  0.29691649061E+02  0.68338966542E+03  0.68438792507E+03  0.00000000000E+00 0.  1.
          5    1    4    4  501    0 -0.56139802963E+02 -0.42939900131E+02  0.10544260598E+03  0.12700837790E+03  0.41800000000E+01 0. -1.
         -5    1    4    4    0  501  0.58304840459E+02 -0.33832265629E+01  0.15334445874E+03  0.16414291355E+03  0.41800000000E+01 0. -1.
</event>
<event>
11    1  0.9238666E-009  0.1401769E+03  0.7561462E-02  0.1107361E+00
         22   -1    0    0    0    0  0.00000000000E+00  0.00000000000E+00  0.14921542538E+03  0.14921542538E+03  0.00000000000E+00 0.  1.
         22   -1    0    0    0    0 -0.00000000000E+00 -0.00000000000E+00 -0.99195306473E+03  0.99195306473E+03  0.00000000000E+00 0.  1.
        -24    2    1    2    0    0 -0.20802392507E+02  0.63478528920E+01 -0.88498536044E+03  0.88868808690E+03  0.78066592343E+02 0.  0.
         25    2    1    2    0    0 -0.48932671114E+02 -0.90345375074E+01 -0.80397957576E+01  0.13486921370E+03  0.12509611232E+03 0.  0.
         24    2    1    2    0    0  0.69735063621E+02  0.26866846155E+01  0.50287516848E+02  0.11761118952E+03  0.80208230105E+02 0.  0.
        -13    1    5    5    0    0  0.51727325054E+01  0.18092436051E+02  0.47597038976E+02  0.51181749903E+02  0.00000000000E+00 0.  1.
         14    1    5    5    0    0  0.64562331116E+02 -0.15405751436E+02  0.26904778722E+01  0.66429439615E+02  0.00000000000E+00 0. -1.
         11    1    3    3    0    0 -0.92405164666E+01 -0.34482974571E+02 -0.52450074243E+03  0.52571426792E+03  0.00000000000E+00 0. -1.
        -12    1    3    3    0    0 -0.11561876041E+02  0.40830827463E+02 -0.36048461801E+03  0.36297381898E+03  0.00000000000E+00 0.  1.
          5    1    4    4  501    0 -0.81703081681E+02 -0.12183367534E+02  0.26613790478E+02  0.86888401091E+02  0.41800000000E+01 0. -1.
         -5    1    4    4    0  501  0.32770410567E+02  0.31488300266E+01 -0.34653586236E+02  0.47980812605E+02  0.41800000000E+01 0. -1.
</event>
<event>
11    1  0.9238666E-009  0.1370231E+03  0.7561462E-02  0.1110929E+00
         22   -1    0    0    0    0  0.00000000000E+00  0.00000000000E+00  0.25302307116E+03  0.25302307116E+03  0.00000000000E+00 0.  1.
         22   -1    0    0    0    0 -0.00000000000E+00 -0.00000000000E+00 -0.24083221406E+03  0.24083221406E+03  0.00000000000E+00 0.  1.
         24    2    1    2    0    0  0.56727105109E+02  0.14745263419E+02 -0.16584623239E+03  0.19326510026E+03  0.80068963605E+02 0.  0.
         25    2    1    2    0    0 -0.40913660065E+02  0.42434550106E+01  0.37803135689E+02  0.13699971899E+03  0.12509161221E+03 0.  0.
        -24    2    1    2    0    0 -0.15813445043E+02 -0.18988718429E+02  0.14023395381E+03  0.16359046597E+03  0.80533485482E+02 0.  0.
        -11    1    3    3    0    0 -0.22502347291E+01  0.35798586913E+00 -0.11228330718E+03  0.11230642360E+03  0.00000000000E+00 0.  1.
         12    1    3    3    0    0  0.58977339838E+02  0.14387277550E+02 -0.53562925212E+02  0.80958676662E+02  0.00000000000E+00 0. -1.
         11    1    5    5    0    0 -0.25157281470E+01 -0.51345548451E+01 -0.10329996786E+02  0.11806835951E+02  0.00000000000E+00 0. -1.
        -12    1    5    5    0    0 -0.13297716896E+02 -0.13854163584E+02  0.15056395060E+03  0.15178363002E+03  0.00000000000E+00 0.  1.
          5    1    4    4  501    0 -0.42496492514E+02  0.60483420518E+02  0.12168439425E+02  0.75031589025E+02  0.41800000000E+01 0. -1.
         -5    1    4    4    0  501  0.15828324487E+01 -0.56239965508E+02  0.25634696264E+02  0.61968129965E+02  0.41800000000E+01 0. -1.
</event>
<event>
11    1  0.9238666E-009  0.1895526E+03  0.7561462E-02  0.1062168E+00
         22   -1    0    0    0    0  0.00000000000E+00  0.00000000000E+00  0.70837594664E+03  0.70837594664E+03  0.00000000000E+00 0. -1.
         22   -1    0    0    0    0 -0.00000000000E+00 -0.00000000000E+00 -0.13368390709E+03  0.13368390709E+03  0.00000000000E+00 0.  1.
        -24    2    1    2    0    0  0.24235057732E+02  0.81735570960E+01 -0.51965854274E+02  0.99022208885E+02  0.80316889776E+02 0.  0.
         25    2    1    2    0    0 -0.41925241005E+02  0.13426081831E+03  0.15672599393E+03  0.24493701424E+03  0.12508961029E+03 0.  0.
         24    2    1    2    0    0  0.17690183273E+02 -0.14243437541E+03  0.46993189989E+03  0.49810063061E+03  0.81656315100E+02 0.  0.
        -13    1    5    5    0    0  0.15585780115E+02 -0.88651354238E+02  0.16045168311E+03  0.18397478567E+03  0.00000000000E+00 0.  1.
         14    1    5    5    0    0  0.21044031577E+01 -0.53783021172E+02  0.30948021678E+03  0.31412584494E+03  0.00000000000E+00 0. -1.
         11    1    3    3    0    0  0.20643013646E+02  0.12975420458E+02  0.17046203152E+02  0.29750102359E+02  0.00000000000E+00 0. -1.
        -12    1    3    3    0    0  0.35920440856E+01 -0.48018633622E+01 -0.69012057426E+02  0.69272106526E+02  0.00000000000E+00 0.  1.
          5    1    4    4  501    0 -0.80416658333E+02  0.80934522420E+02  0.13206706417E+03  0.17457496297E+03  0.41800000000E+01 0. -1.
         -5    1    4    4    0  501  0.38491417328E+02  0.53326295894E+02  0.24658929760E+02  0.70362051268E+02  0.41800000000E+01 0. -1.
</event>
<event>
11    1  0.9238666E-009  0.2702717E+03  0.7561462E-02  0.1013622E+00
         22   -1    0    0    0    0  0.00000000000E+00  0.00000000000E+00  0.96683341634E+03  0.96683341634E+03  0.00000000000E+00 0.  1.
         22   -1    0    0    0    0 -0.00000000000E+00 -0.00000000000E+00 -0.11100977048E+03  0.11100977048E+03  0.00000000000E+00 0. -1.
        -24    2    1    2    0    0 -0.24906534015E+03  0.71352876401E+02  0.19075171306E+03  0.33192371000E+03  0.81623260113E+02 0.  0.
         25    2    1    2    0    0  0.18948982907E+03 -0.77203255141E+02  0.45003265224E+03  0.50994142314E+03  0.12507649271E+03 0.  0.
         24    2    1    2    0    0  0.59575511076E+02  0.58503787400E+01  0.21503928056E+03  0.23597805368E+03  0.76552473375E+02 0.  0.
        -11    1    5    5    0    0  0.64996050056E+02  0.30598682939E+02  0.15786498382E+03  0.17344197599E+03  0.00000000000E+00 0.  1.
         12    1    5    5    0    0 -0.54205389799E+01 -0.24748304199E+02  0.57174296746E+02  0.62536077683E+02  0.00000000000E+00 0. -1.
         11    1    3    3    0    0 -0.25106965954E+03  0.79410693824E+02  0.18454469926E+03  0.32155680409E+03  0.00000000000E+00 0. -1.
        -12    1    3    3    0    0  0.20043193873E+01 -0.80578174220E+01  0.62070137988E+01  0.10366905908E+02  0.00000000000E+00 0.  1.
          5    1    4    4  501    0  0.11680642001E+03  0.18762110956E+02  0.20004157202E+03  0.23244323931E+03  0.41800000000E+01 0.  1.
         -5    1    4    4    0  501  0.72683409061E+02 -0.95965366098E+02  0.24999108022E+03  0.27749818384E+03  0.41800000000E+01 0.  1.
</event>
<event>
11    1  0.9238666E-009  0.1453159E+03  0.7561462E-02  0.1101763E+00
         22   -1    0    0    0    0  0.00000000000E+00  0.00000000000E+00  0.52855237671E+03  0.52855237671E+03  0.00000000000E+00 0.  1.
         22   -1    0    0    0    0 -0.00000000000E+00 -0.00000000000E+00 -0.34019462819E+03  0.34019462819E+03  0.00000000000E+00 0.  1.
        -24    2    1    2    0    0 -0.39083883953E+02  0.69520653533E+02 -0.25923569834E+03  0.28325488696E+03  0.81667082966E+02 0.  0.
         25    2    1    2    0    0  0.18900638999E+02 -0.37160128233E+02  0.23201054916E+01  0.13186608370E+03  0.12508066140E+03 0.  0.
         24    2    1    2    0    0  0.20183244954E+02 -0.32360525300E+02  0.44527334136E+03  0.45362603424E+03  0.77805291839E+02 0.  0.
        -13    1    5    5    0    0  0.84320283112E+01 -0.29555486398E+01  0.38862593661E+03  0.38872863668E+03  0.00000000000E+00 0.  1.
         14    1    5    5    0    0  0.11751216643E+02 -0.29404976660E+02  0.56647404755E+02  0.64897397563E+02  0.00000000000E+00 0. -1.
         13    1    3    3    0    0  0.23136752672E+02  0.33568834538E+02 -0.72623326577E+02  0.83284593651E+02  0.00000000000E+00 0. -1.
        -14    1    3    3    0    0 -0.62220636625E+02  0.35951818995E+02 -0.18661237176E+03  0.19997029331E+03  0.00000000000E+00 0.  1.
          5    1    4    4  501    0  0.38181179905E+01  0.36007246384E+02 -0.32960950719E+02  0.49142613783E+02  0.41800000000E+01 0.  1.
         -5    1    4    4    0  501  0.15082521008E+02 -0.73167374617E+02  0.35281056210E+02  0.82723469920E+02  0.41800000000E+01 0.  1.
</event>
<event>
11    1  0.9238666E-009  0.1409735E+03  0.7561462E-02  0.1106476E+00
         22   -1    0    0    0    0  0.00000000000E+00  0.00000000000E+00  0.14063815477E+04  0.14063815477E+04  0.00000000000E+00 0. -1.
         22   -1    0    0    0    0 -0.00000000000E+00 -0.00000000000E+00 -0.12648938972E+04  0.12648938972E+04  0.00000000000E+00 0.  1.
         24    2    1    2    0    0  0.30169590424E+02  0.44179997804E+02 -0.12455023815E+04  0.12492127859E+04  0.79964528632E+02 0.  0.
         25    2    1    2    0    0  0.37043304056E+02 -0.54582801941E+02  0.31932973761E+03  0.34924230578E+03  0.12508884115E+03 0.  0.
        -24    2    1    2    0    0 -0.67212894480E+02  0.10402804138E+02  0.10676602943E+04  0.10728203532E+04  0.80120001504E+02 0.  0.
        -11    1    3    3    0    0  0.11198330896E+02  0.59254506357E+02 -0.11043844306E+04  0.11060295971E+04  0.00000000000E+00 0.  1.
         12    1    3    3    0    0  0.18971259528E+02 -0.15074508554E+02 -0.14111795091E+03  0.14318318884E+03  0.00000000000E+00 0. -1.
         13    1    5    5    0    0 -0.72770837565E+02  0.33244366111E+02  0.89467660712E+03  0.89824663317E+03  0.00000000000E+00 0. -1.
        -14    1    5    5    0    0  0.55579430853E+01 -0.22841561974E+02  0.17298368720E+03  0.17457372002E+03  0.00000000000E+00 0.  1.
          5    1    4    4  501    0  0.55573194814E+02 -0.63332619559E+01  0.50551315281E+02  0.75507602700E+02  0.41800000000E+01 0. -1.
         -5    1    4    4    0  501 -0.18529890758E+02 -0.48249539985E+02  0.26877842233E+03  0.27373470308E+03  0.41800000000E+01 0. -1.
</event>
<event>
11    1  0.9238666E-009  0.1488424E+03  0.7561462E-02  0.1098068E+00
         22   -1    0    0    0    0  0.00000000000E+00  0.00000000000E+00  0.20607005340E+03  0.20607005340E+03  0.00000000000E+00 0.  1.
         22   -1    0    0    0    0 -0.00000000000E+00 -0.00000000000E+00 -0.61145921645E+03  0.61145921645E+03  0.00000000000E+00 0. -1.
         24    2    1    2    0    0 -0.11183241099E+02  0.25549074782E+02 -0.22905296187E+03  0.24417778010E+03  0.79873079628E+02 0.  0.
         25    2    1    2    0    0 -0.69975896861E+02 -0.26752284045E+02 -0.34177681727E+03  0.37158129904E+03  0.12509579579E+03 0.  0.
        -24    2    1    2    0    0  0.81159137960E+02  0.12032092637E+01  0.16544061610E+03  0.20177019072E+03  0.82172738924E+02 0.  0.
        -13    1    3    3    0    0  0.97095501865E+00 -0.23718613368E+02 -0.13721124312E+03  0.13924956235E+03  0.00000000000E+00 0.  1.
         14    1    3    3    0    0 -0.12154196117E+02  0.49267688150E+02 -0.91841718746E+02  0.10492821775E+03  0.00000000000E+00 0. -1.
         11    1    5    5    0    0  0.83356192332E+01  0.26354709900E+02  0.12123175359E+02  0.30183185099E+02  0.00000000000E+00 0. -1.
        -12    1    5    5    0    0  0.72823518727E+02 -0.25151500637E+02  0.15331744074E+03  0.17158700562E+03  0.00000000000E+00 0.  1.
          5    1    4    4  501    0  0.31875162977E+01 -0.56860194518E+02 -0.21179154866E+03  0.21935444938E+03  0.41800000000E+01 0. -1.
         -5    1    4    4    0  501 -0.73163413159E+02  0.30107910473E+02 -0.12998526862E+03  0.15222684965E+03  0.41800000000E+01 0. -1.
</event>
<event>
11    1  0.9238666E-009  0.1480655E+03  0.7561462E-02  0.1098872E+00
         22   -1    0    0    0    0  0.00000000000E+00  0.00000000000E+00  0.12748893993E+04  0.12748893993E+04  0.00000000000E+00 0.  1.
         22   -1    0    0    0    0 -0.00000000000E+00 -0.00000000000E+00 -0.13496658369E+04  0.13496658369E+04  0.00000000000E+00 0.  1.
        -24    2    1    2    0    0 -0.45802106129E+01  0.80385423427E+02 -0.11949890075E+04  0.12004663243E+04  0.81473142405E+02 0.  0.
         25    2    1    2    0    0  0.72911412529E+02 -0.54368800557E+02 -0.10952972715E+03  0.18951359375E+03  0.12508637230E+03 0.  0.
         24    2    1    2    0    0 -0.68331201916E+02 -0.26016622870E+02  0.12297422971E+04  0.12345753181E+04  0.81019016873E+02 0.  0.
        -11    1    5    5    0    0 -0.21376504560E+02  0.10208316312E+02  0.84117432496E+03  0.84150781913E+03  0.00000000000E+00 0.  1.
         12    1    5    5    0    0 -0.46954697357E+02 -0.36224939182E+02  0.38856797213E+03  0.39306749902E+03  0.00000000000E+00 0. -1.
         11    1    3    3    0    0  0.35865857436E+02  0.57514135356E+02 -0.75103746895E+03  0.75408985887E+03  0.00000000000E+00 0. -1.
        -12    1    3    3    0    0 -0.40446068049E+02  0.22871288071E+02 -0.44395153859E+03  0.44637646539E+03  0.00000000000E+00 0.  1.
          5    1    4    4  501    0  0.55096678233E+02 -0.86004545770E+02 -0.11350385000E+03  0.15275150478E+03  0.41800000000E+01 0. -1.
         -5    1    4    4    0  501  0.17814734296E+02  0.31635745213E+02  0.39741228579E+01  0.36762088974E+02  0.41800000000E+01 0. -1.
</event>
<event>
11    1  0.9238666E-009  0.2063812E+03  0.7561462E-02  0.1050101E+00
         22   -1    0    0    0    0  0.00000000000E+00  0.00000000000E+00  0.30526517792E+03  0.30526517792E+03  0.00000000000E+00 0. -1.
         22   -1    0    0    0    0 -0.00000000000E+00 -0.00000000000E+00 -0.60966503909E+03  0.60966503909E+03  0.00000000000E+00 0.  1.
         24    2    1    2    0    0  0.15103180262E+03 -0.59358099758E+02 -0.50831106938E+03  0.53952399235E+03  0.79824843613E+02 0.  0.
         25    2    1    2    0    0 -0.16643295443E+03  0.90473152467E+02  0.13486817943E+03  0.26404921315E+03  0.12508893437E+03 0.  0.
        -24    2    1    2    0    0  0.15401151816E+02 -0.31115052709E+02  0.69043028790E+02  0.11135701151E+03  0.80175446400E+02 0.  0.
        -13    1    3    3    0    0  0.13900796291E+03 -0.61395707582E+02 -0.50428090478E+03  0.52668005240E+03  0.00000000000E+00 0.  1.
         14    1    3    3    0    0  0.12023839703E+02  0.20376078234E+01 -0.40301645968E+01  0.12843939953E+02  0.00000000000E+00 0. -1.
         11    1    5    5    0    0 -0.11649963510E+02  0.24880926058E+01  0.67127091328E+02  0.68175938899E+02  0.00000000000E+00 0. -1.
        -12    1    5    5    0    0  0.27051115326E+02 -0.33603145314E+02  0.19159374619E+01  0.43181072610E+02  0.00000000000E+00 0.  1.
          5    1    4    4  501    0 -0.12066208331E+02 -0.71865896900E+01 -0.19820447426E+02  0.24648792892E+02  0.41800000000E+01 0.  1.
         -5    1    4    4    0  501 -0.15436674610E+03  0.97659742157E+02  0.15468862685E+03  0.23940042025E+03  0.41800000000E+01 0.  1.
</event>
<event>
11    1  0.9238666E-009  0.1346940E+03  0.7561462E-02  0.1113632E+00
         22   -1    0    0    0    0  0.00000000000E+00  0.00000000000E+00  0.18722729438E+03  0.18722729438E+03  0.00000000000E+00 0.  1.
         22   -1    0    0    0    0 -0.00000000000E+00 -0.00000000000E+00 -0.58418359337E+03  0.58418359337E+03  0.00000000000E+00 0.  1.
         24    2    1    2    0    0 -0.33581097715E+02 -0.31095548764E+02 -0.27665930016E+03  0.29153039563E+03  0.79718128015E+02 0.  0.
         25    2    1    2    0    0  0.44388748996E+02  0.39333263206E+02 -0.27319191224E+03  0.30626347651E+03  0.12508408970E+03 0.  0.
        -24    2    1    2    0    0 -0.10807651280E+02 -0.82377144427E+01  0.15289491341E+03  0.17361701561E+03  0.81125509547E+02 0.  0.
        -11    1    3    3    0    0 -0.19960487986E+02 -0.50094907034E+02 -0.25137945272E+03  0.25709832757E+03  0.00000000000E+00 0.  1.
         12    1    3    3    0    0 -0.13620609729E+02  0.18999358270E+02 -0.25279847443E+02  0.34432068059E+02  0.00000000000E+00 0. -1.
         11    1    5    5    0    0 -0.57305413487E+01 -0.27770467876E+02  0.11192429084E+02  0.30484560994E+02  0.00000000000E+00 0. -1.
        -12    1    5    5    0    0 -0.50771099318E+01  0.19532753433E+02  0.14170248432E+03  0.14313245462E+03  0.00000000000E+00 0.  1.
          5    1    4    4  501    0 -0.29988570170E+02  0.44811995135E+02 -0.17323153096E+03  0.18147745030E+03  0.41800000000E+01 0. -1.
         -5    1    4    4    0  501  0.74377319166E+02 -0.54787319286E+01 -0.99960381281E+02  0.12478602620E+03  0.41800000000E+01 0. -1.
</event>
<event>
11    1  0.9238666E-009  0.1614830E+03  0.7561462E-02  0.1085691E+00
         22   -1    0    0    0    0  0.00000000000E+00  0.00000000000E+00  0.60916718462E+03  0.60916718462E+03  0.00000000000E+00 0.  1.
         22   -1    0    0    0    0 -0.00000000000E+00 -0.00000000000E+00 -0.10171293425E+04  0.10171293425E+04  0.00000000000E+00 0. -1.
         24    2    1    2    0    0  0.34690818325E+01  0.98976035005E+02 -0.81388712240E+03  0.82382156123E+03  0.80383000138E+02 0.  0.
         25    2    1    2    0    0 -0.49627033299E+01 -0.12746198445E+03 -0.15411527990E+03  0.23594500580E+03  0.12508932953E+03 0.  0.
        -24    2    1    2    0    0  0.14936214974E+01  0.28485949440E+02  0.56004024439E+03  0.56652996011E+03  0.80606700397E+02 0.  0.
        -13    1    3    3    0    0 -0.34861744160E+02  0.34939215151E+02 -0.23378639459E+03  0.23893967493E+03  0.00000000000E+00 0.  1.
         14    1    3    3    0    0  0.38330825992E+02  0.64036819854E+02 -0.58010072781E+03  0.58488188630E+03  0.00000000000E+00 0. -1.
         13    1    5    5    0    0 -0.12167339418E+02  0.30310959677E+02  0.81638973700E+02  0.87930202159E+02  0.00000000000E+00 0. -1.
        -14    1    5    5    0    0  0.13660960915E+02 -0.18250102363E+01  0.47840127069E+03  0.47859975795E+03  0.00000000000E+00 0.  1.
          5    1    4    4  501    0  0.11195926797E+02 -0.67407988594E+02  0.13264919490E+01  0.68472021177E+02  0.41800000000E+01 0.  1.
         -5    1    4    4    0  501 -0.16158630127E+02 -0.60053995851E+02 -0.15544177185E+03  0.16747298463E+03  0.41800000000E+01 0.  1.
</event>
<event>
11    1  0.9238666E-009  0.1258764E+03  0.7561462E-02  0.1124442E+00
         22   -1    0    0    0    0  0.00000000000E+00  0.00000000000E+00  0.68791479582E+03  0.68791479582E+03  0.00000000000E+00 0.  1.
         22   -1    0    0    0    0 -0.00000000000E+00 -0.00000000000E+00 -0.21482417863E+03  0.21482417863E+03  0.00000000000E+00 0. -1.
         24    2    1    2    0    0 -0.30073087868E+01  0.10538104241E+02 -0.16155170251E+03  0.19281303811E+03  0.10467960419E+03 0.  0.
         25    2    1    2    0    0 -0.94916948290E-02 -0.39686166373E+02  0.91444953877E+02  0.15995473216E+03  0.12509334459E+03 0.  0.
        -24    2    1    2    0    0  0.30168004816E+01  0.29148062132E+02  0.54319736582E+03  0.54997120417E+03  0.80908816434E+02 0.  0.
        -11    1    3    3    0    0 -0.25401649505E+02  0.25684001089E+02 -0.81294773802E+01  0.37027018675E+02  0.00000000000E+00 0.  1.
         12    1    3    3    0    0  0.22394340718E+02 -0.15145896848E+02 -0.15342222513E+03  0.15578601943E+03  0.00000000000E+00 0. -1.
         13    1    5    5    0    0 -0.15799485757E+02 -0.10145372451E+02  0.33402240484E+02  0.38317907064E+02  0.00000000000E+00 0. -1.
        -14    1    5    5    0    0  0.18816286239E+02  0.39293434583E+02  0.50979512533E+03  0.51165329711E+03  0.00000000000E+00 0.  1.
          5    1    4    4  501    0  0.13192918280E+02  0.11035800745E+02  0.10432964669E+03  0.10582055362E+03  0.41800000000E+01 0.  1.
         -5    1    4    4    0  501 -0.13202409975E+02 -0.50721967118E+02 -0.12884692811E+02  0.54134178541E+02  0.41800000000E+01 0.  1.
</event>
<event>
11    1  0.9238666E-009  0.1431169E+03  0.7561462E-02  0.1104127E+00
         22   -1    0    0    0    0  0.00000000000E+00  0.00000000000E+00  0.12568831136E+03  0.12568831136E+03  0.00000000000E+00 0. -1.
         22   -1    0    0    0    0 -0.00000000000E+00 -0.00000000000E+00 -0.85144955362E+03  0.85144955362E+03  0.00000000000E+00 0.  1.
        -24    2    1    2    0    0  0.67016777793E+02 -0.87188366200E+01 -0.45013617229E+03  0.46217074779E+03  0.80074714404E+02 0.  0.
         25    2    1    2    0    0 -0.71650779080E+02  0.23144746936E+02 -0.36536367547E+03  0.39343715710E+03  0.12503066737E+03 0.  0.
         24    2    1    2    0    0  0.46340012874E+01 -0.14425910316E+02  0.89738605510E+02  0.12152996009E+03  0.80541498772E+02 0.  0.
        -13    1    5    5    0    0 -0.23403724396E+02  0.20496670522E+02  0.15327392953E+02  0.34681072544E+02  0.00000000000E+00 0.  1.
         14    1    5    5    0    0  0.28037725683E+02 -0.34922580839E+02  0.74411212557E+02  0.86848887547E+02  0.00000000000E+00 0. -1.
         11    1    3    3    0    0 -0.16120029088E+02 -0.13949747680E+02 -0.81756204748E+02  0.84489808929E+02  0.00000000000E+00 0. -1.
        -12    1    3    3    0    0  0.83136806881E+02  0.52309110600E+01 -0.36837996754E+03  0.37768093886E+03  0.00000000000E+00 0.  1.
          5    1    4    4  501    0 -0.89080811059E+02  0.38091549012E+02 -0.16250081247E+03  0.18923621075E+03  0.41800000000E+01 0.  1.
         -5    1    4    4    0  501  0.17430031979E+02 -0.14946802075E+02 -0.20286286300E+03  0.20420094636E+03  0.41800000000E+01 0.  1.
</event>
<event>
11    1  0.9238666E-009  0.1753642E+03  0.7561462E-02  0.1073456E+00
         22   -1    0    0    0    0  0.00000000000E+00  0.00000000000E+00  0.16010006194E+04  0.16010006194E+04  0.00000000000E+00 0.  1.
         22   -1    0    0    0    0 -0.00000000000E+00 -0.00000000000E+00 -0.91628060577E+03  0.91628060577E+03  0.00000000000E+00 0.  1.
         24    2    1    2    0    0 -0.34258218381E+02  0.46652983223E+02 -0.84554502099E+03  0.85140748129E+03  0.81229245441E+02 0.  0.
         25    2    1    2    0    0 -0.67642649962E+02 -0.11550213304E+03  0.66576733023E+02  0.19492969436E+03  0.12509537774E+03 0.  0.
        -24    2    1    2    0    0  0.10190086834E+03  0.68849149820E+02  0.14636883016E+04  0.14709440495E+04  0.78542728594E+02 0.  0.
        -11    1    3    3    0    0 -0.50085205829E+02  0.21613750175E+02 -0.73308241322E+03  0.73510918006E+03  0.00000000000E+00 0.  1.
         12    1    3    3    0    0  0.15826987448E+02  0.25039233048E+02 -0.11246260777E+03  0.11629830123E+03  0.00000000000E+00 0. -1.
         11    1    5    5    0    0  0.78520471980E+02  0.35938212865E+02  0.58607068748E+03  0.59239840512E+03  0.00000000000E+00 0. -1.
        -12    1    5    5    0    0  0.23380396363E+02  0.32910936955E+02  0.87761761409E+03  0.87854564438E+03  0.00000000000E+00 0.  1.
          5    1    4    4  501    0  0.36833364427E+02 -0.28247510030E+02  0.22790563490E+02  0.51879675617E+02  0.41800000000E+01 0. -1.
         -5    1    4    4    0  501 -0.10447601439E+03 -0.87254623013E+02  0.43786169533E+02  0.14305001874E+03  0.41800000000E+01 0. -1.
</event>
<event>
11    1  0.9238666E-009  0.1663827E+03  0.7561462E-02  0.1081223E+00
         22   -1    0    0    0    0  0.00000000000E+00  0.00000000000E+00  0.14219408146E+03  0.14219408146E+03  0.00000000000E+00 0. -1.
         22   -1    0    0    0    0 -0.00000000000E+00 -0.00000000000E+00 -0.19514912079E+04  0.19514912079E+04  0.00000000000E+00 0.  1.
        -24    2    1    2    0    0 -0.12054598262E+02  0.29448431004E+02 -0.17424385183E+04  0.17445031062E+04  0.78654776898E+02 0.  0.
         25    2    1    2    0    0 -0.67195566538E+02  0.55953997327E+02 -0.12410927321E+03  0.19670730733E+03  0.12507821186E+03 0.  0.
         24    2    1    2    0    0  0.79250164800E+02 -0.85402428331E+02  0.57250665106E+02  0.15247487583E+03  0.79979908225E+02 0.  0.
        -11    1    5    5    0    0  0.39522425360E+02 -0.66622223144E+02 -0.34475141208E+01  0.77539848314E+02  0.00000000000E+00 0.  1.
         12    1    5    5    0    0  0.39727739441E+02 -0.18780205188E+02  0.60698179226E+02  0.74935027520E+02  0.00000000000E+00 0. -1.
         13    1    3    3    0    0 -0.36811944973E+02 -0.19884028098E+01 -0.12106744655E+04  0.12112356230E+04  0.00000000000E+00 0. -1.
        -14    1    3    3    0    0  0.24757346711E+02  0.31436833814E+02 -0.53176405282E+03  0.53326748317E+03  0.00000000000E+00 0.  1.
          5    1    4    4  501    0 -0.93467043010E+02  0.31202626401E+02 -0.42537337111E+02  0.10740851676E+03  0.41800000000E+01 0. -1.
         -5    1    4    4    0  501  0.26271476472E+02  0.24751370926E+02 -0.81571936101E+02  0.89298790574E+02  0.41800000000E+01 0. -1.
</event>
<event>
11    1  0.9238666E-009  0.1404627E+03  0.7561462E-02  0.1107043E+00
         22   -1    0    0    0    0  0.00000000000E+00  0.00000000000E+00  0.12956911669E+04  0.12956911669E+04  0.00000000000E+00 0.  1.
         22   -1    0    0    0    0 -0.00000000000E+00 -0.00000000000E+00 -0.33971378096E+02  0.33971378096E+02  0.00000000000E+00 0. -1.
         24    2    1    2    0    0 -0.87998954096E+01  0.62820582164E+02  0.87954470494E+02  0.13563598042E+03  0.81469421271E+02 0.  0.
         25    2    1    2    0    0 -0.19342831434E+01 -0.67666152342E+02  0.70895816346E+03  0.72308421768E+03  0.12508660481E+03 0.  0.
        -24    2    1    2    0    0  0.10734178553E+02  0.48455701777E+01  0.46480715481E+03  0.47094234685E+03  0.74848518729E+02 0.  0.
        -11    1    3    3    0    0  0.24325148835E+02 -0.70678729412E+01  0.15746776822E+02  0.29826643694E+02  0.00000000000E+00 0.  1.
         12    1    3    3    0    0 -0.33125044245E+02  0.69888455105E+02  0.72207693672E+02  0.10580933673E+03  0.00000000000E+00 0. -1.
         13    1    5    5    0    0 -0.18471504154E+02 -0.24584180487E+02  0.13050389198E+03  0.13407775437E+03  0.00000000000E+00 0. -1.
        -14    1    5    5    0    0  0.29205682707E+02  0.29429750665E+02  0.33430326283E+03  0.33686459247E+03  0.00000000000E+00 0.  1.
          5    1    4    4  501    0 -0.40945230670E+02 -0.39261180085E+02  0.12750639287E+03  0.13961842571E+03  0.41800000000E+01 0. -1.
         -5    1    4    4    0  501  0.39010947527E+02 -0.28404972257E+02  0.58145177059E+03  0.58346579197E+03  0.41800000000E+01 0. -1.
</event>
<event>
11    1  0.9238666E-009  0.1311593E+03  0.7561462E-02  0.1117853E+00
         22   -1    0    0    0    0  0.00000000000E+00  0.00000000000E+00  0.49250023957E+03  0.49250023957E+03  0.00000000000E+00 0. -1.
         22   -1    0    0    0    0 -0.00000000000E+00 -0.00000000000E+00 -0.83574090885E+02  0.83574090885E+02  0.00000000000E+00 0. -1.
        -24    2    1    2    0    0 -0.39704298586E+01 -0.91510956150E+01 -0.26457917318E+02  0.85469765356E+02  0.80657005505E+02 0.  0.
         25    2    1    2    0    0 -0.36181541580E+02  0.57925160510E+00  0.19707498441E+03  0.23621010659E+03  0.12508887037E+03 0.  0.
         24    2    1    2    0    0  0.40151971439E+02  0.85718440099E+01  0.23830908159E+03  0.25439445851E+03  0.78991549115E+02 0.  0.
        -11    1    5    5    0    0  0.14195382680E+02  0.43357099663E+02  0.12240117491E+03  0.13062692907E+03  0.00000000000E+00 0.  1.
         12    1    5    5    0    0  0.25956588758E+02 -0.34785255653E+02  0.11590790668E+03  0.12376752943E+03  0.00000000000E+00 0. -1.
         11    1    3    3    0    0 -0.96252498929E+00  0.31692987686E+02 -0.30901162053E+02  0.44274752840E+02  0.00000000000E+00 0. -1.
        -12    1    3    3    0    0 -0.30079048693E+01 -0.40844083301E+02  0.44432447343E+01  0.41195012516E+02  0.00000000000E+00 0.  1.
          5    1    4    4  501    0 -0.21012134872E+02  0.64259248248E+01  0.21234385121E+03  0.21351858436E+03  0.41800000000E+01 0. -1.
         -5    1    4    4    0  501 -0.15169406708E+02 -0.58466732197E+01 -0.15268866798E+02  0.22691522226E+02  0.41800000000E+01 0. -1.
</event>
<event>
11    1  0.9238666E-009  0.1979550E+03  0.7561462E-02  0.1055979E+00
         22   -1    0    0    0    0  0.00000000000E+00  0.00000000000E+00  0.39269021533E+03  0.39269021533E+03  0.00000000000E+00 0. -1.
         22   -1    0    0    0    0 -0.00000000000E+00 -0.00000000000E+00 -0.13247690990E+04  0.13247690990E+04  0.00000000000E+00 0.  1.
        -24    2    1    2    0    0 -0.14600034051E+03 -0.31306452673E+02 -0.11398948603E+04  0.11529019575E+04  0.86755043954E+02 0.  0.
         25    2    1    2    0    0  0.20147591508E+03  0.53484071079E+02 -0.83212451644E+02  0.25695345708E+03  0.12509067423E+03 0.  0.
         24    2    1    2    0    0 -0.55475574576E+02 -0.22177618406E+02  0.29102842835E+03  0.30760389968E+03  0.79707131790E+02 0.  0.
        -13    1    5    5    0    0 -0.44735826912E+01  0.23311970609E+02  0.32820013203E+02  0.40504495830E+02  0.00000000000E+00 0.  1.
         14    1    5    5    0    0 -0.51001991885E+02 -0.45489589015E+02  0.25820841515E+03  0.26709940385E+03  0.00000000000E+00 0. -1.
         11    1    3    3    0    0  0.11751163715E+02 -0.10609945242E+01 -0.95832383370E+02  0.96556000644E+02  0.00000000000E+00 0. -1.
        -12    1    3    3    0    0 -0.15775150422E+03 -0.30245458148E+02 -0.10440624770E+04  0.10563459569E+04  0.00000000000E+00 0.  1.
          5    1    4    4  501    0  0.98310412363E+02  0.84053751344E+02 -0.73519940933E+02  0.14883757727E+03  0.41800000000E+01 0.  1.
         -5    1    4    4    0  501  0.10316550272E+03 -0.30569680265E+02 -0.96925107113E+01  0.10811587981E+03  0.41800000000E+01 0.  1.
</event>
<event>
11    1  0.9238666E-009  0.1468578E+03  0.7561462E-02  0.1100133E+00
         22   -1    0    0    0    0  0.00000000000E+00  0.00000000000E+00  0.13729449971E+04  0.13729449971E+04  0.00000000000E+00 0.  1.
         22   -1    0    0    0    0 -0.00000000000E+00 -0.00000000000E+00 -0.62897521666E+03  0.62897521666E+03  0.00000000000E+00 0. -1.
         24    2    1    2    0    0 -0.77779285175E+02  0.35274231032E+01 -0.59075464380E+03  0.60112484334E+03  0.79359739105E+02 0.  0.
         25    2    1    2    0    0  0.47433284950E+02 -0.39019371330E+02  0.12396935084E+03  0.18651591130E+03  0.12508939747E+03 0.  0.
        -24    2    1    2    0    0  0.30346000225E+02  0.35491948227E+02  0.12107550734E+04  0.12142794591E+04  0.79788463838E+02 0.  0.
        -13    1    3    3    0    0 -0.36475438397E+02 -0.20973500421E+02 -0.10673883255E+03  0.11473240039E+03  0.00000000000E+00 0.  1.
         14    1    3    3    0    0 -0.41303846778E+02  0.24500923524E+02 -0.48401581126E+03  0.48639244295E+03  0.00000000000E+00 0. -1.
         13    1    5    5    0    0  0.16152059677E+02 -0.23676348359E+02  0.25891256130E+03  0.26049409379E+03  0.00000000000E+00 0. -1.
        -14    1    5    5    0    0  0.14193940549E+02  0.59168296585E+02  0.95184251206E+03  0.95378536529E+03  0.00000000000E+00 0.  1.
          5    1    4    4  501    0  0.43776674573E+02 -0.46300069258E+01 -0.12273205491E+02  0.45890502000E+02  0.41800000000E+01 0.  1.
         -5    1    4    4    0  501  0.36566103768E+01 -0.34389364404E+02  0.13624255633E+03  0.14062540930E+03  0.41800000000E+01 0.  1.
</event>
<event>
11    1  0.1009392E-008  0.1849656E+03  0.7561462E-02  0.1065696E+00
         22   -1    0    0    0    0  0.00000000000E+00  0.00000000000E+00  0.58555314823E+03  0.58555314823E+03  0.00000000000E+00 0. -1.
         22   -1    0    0    0    0 -0.00000000000E+00 -0.00000000000E+00 -0.13838992067E+04  0.13838992067E+04  0.00000000000E+00 0. -1.
        -24    2    1    2    0    0  0.36034421884E+02 -0.82010145290E+01 -0.98782976776E+03  0.99186007172E+03  0.81320450031E+02 0.  0.
         25    2    1    2    0    0 -0.16758073277E+03 -0.23496122038E+02 -0.35395241493E+03  0.41178313714E+03  0.12509064815E+03 0.  0.
         24    2    1    2    0    0  0.13154631089E+03  0.31697136567E+02  0.54343612424E+03  0.56580914606E+03  0.80672351267E+02 0.  0.
        -11    1    5    5    0    0  0.66598187438E+01 -0.13070130578E+02  0.15026059799E+02  0.20999142175E+02  0.00000000000E+00 0.  1.
         12    1    5    5    0    0  0.12488649215E+03  0.44767267145E+02  0.52841006444E+03  0.54481000388E+03  0.00000000000E+00 0. -1.
         11    1    3    3    0    0  0.16002541380E+02  0.29295777531E+02 -0.71117828978E+03  0.71196129373E+03  0.00000000000E+00 0. -1.
        -12    1    3    3    0    0  0.20031880504E+02 -0.37496792060E+02 -0.27665147798E+03  0.27989877799E+03  0.00000000000E+00 0.  1.
          5    1    4    4  501    0 -0.66929916222E+02  0.34576815840E+02 -0.62438808532E+02  0.97934912519E+02  0.41800000000E+01 0.  1.
         -5    1    4    4    0  501 -0.10065081655E+03 -0.58072937878E+02 -0.29151360640E+03  0.31384822463E+03  0.41800000000E+01 0.  1.
</event>
<event>
11    1  0.9238666E-009  0.2410249E+03  0.7561462E-02  0.1028792E+00
         22   -1    0    0    0    0  0.00000000000E+00  0.00000000000E+00  0.53048547852E+03  0.53048547852E+03  0.00000000000E+00 0. -1.
         22   -1    0    0    0    0 -0.00000000000E+00 -0.00000000000E+00 -0.41604288021E+03  0.41604288021E+03  0.00000000000E+00 0.  1.
        -24    2    1    2    0    0  0.16588476606E+03  0.11485721203E+03 -0.29881332790E+03  0.36905990049E+03  0.78777347348E+02 0.  0.
         25    2    1    2    0    0 -0.20057105994E+03 -0.12606506010E+03  0.18215082915E+03  0.32395528297E+03  0.12508777454E+03 0.  0.
         24    2    1    2    0    0  0.34686293882E+02  0.11207848078E+02  0.23110509706E+03  0.25351317527E+03  0.97624839618E+02 0.  0.
        -11    1    5    5    0    0 -0.27604075170E+02  0.24065445096E+02  0.53249657345E+02  0.64627057964E+02  0.00000000000E+00 0.  1.
         12    1    5    5    0    0  0.62290369052E+02 -0.12857597018E+02  0.17785543971E+03  0.18888611731E+03  0.00000000000E+00 0. -1.
         11    1    3    3    0    0  0.12738094586E+03  0.49810275842E+02 -0.15593790690E+03  0.20742130980E+03  0.00000000000E+00 0. -1.
        -12    1    3    3    0    0  0.38503820194E+02  0.65046936185E+02 -0.14287542100E+03  0.16163859069E+03  0.00000000000E+00 0.  1.
          5    1    4    4  501    0 -0.17163232786E+03 -0.81570201468E+02  0.75060188224E+02  0.20435962906E+03  0.41800000000E+01 0. -1.
         -5    1    4    4    0  501 -0.28938732076E+02 -0.44494858636E+02  0.10709064092E+03  0.11959565390E+03  0.41800000000E+01 0. -1.
</event>
<event>
11    1  0.9238666E-009  0.1317731E+03  0.7561462E-02  0.1117109E+00
         22   -1    0    0    0    0  0.00000000000E+00  0.00000000000E+00  0.51359701793E+03  0.51359701793E+03  0.00000000000E+00 0. -1.
         22   -1    0    0    0    0 -0.00000000000E+00 -0.00000000000E+00 -0.29841166414E+03  0.29841166414E+03  0.00000000000E+00 0.  1.
         24    2    1    2    0    0  0.20552917919E+02 -0.19591105882E+02 -0.26700939073E+03  0.28030808446E+03  0.80451063439E+02 0.  0.
         25    2    1    2    0    0  0.24210667139E+02 -0.73242990478E+01  0.25534301158E+03  0.28545740664E+03  0.12508427432E+03 0.  0.
        -24    2    1    2    0    0 -0.44763585058E+02  0.26915404930E+02  0.22685173294E+03  0.24624319097E+03  0.80285632546E+02 0.  0.
        -13    1    3    3    0    0  0.47698440502E+02  0.16646346359E+01 -0.19052490106E+03  0.19641193996E+03  0.00000000000E+00 0.  1.
         14    1    3    3    0    0 -0.27145522583E+02 -0.21255740518E+02 -0.76484489674E+02  0.83896144500E+02  0.00000000000E+00 0. -1.
         11    1    5    5    0    0 -0.31065435352E+02 -0.14202196479E+02  0.17664891998E+03  0.17992110656E+03  0.00000000000E+00 0. -1.
        -12    1    5    5    0    0 -0.13698149706E+02  0.41117601408E+02  0.50202812962E+02  0.66322084408E+02  0.00000000000E+00 0.  1.
          5    1    4    4  501    0  0.50049499271E+02  0.45644570064E+02  0.12187841428E+03  0.13949981872E+03  0.41800000000E+01 0.  1.
         -5    1    4    4    0  501 -0.25838832132E+02 -0.52968869112E+02  0.13346459730E+03  0.14595758793E+03  0.41800000000E+01 0.  1.
</event>
<event>
11    1  0.9238666E-009  0.1460413E+03  0.7561462E-02  0.1100994E+00
         22   -1    0    0    0    0  0.00000000000E+00  0.00000000000E+00  0.61128248021E+03  0.61128248021E+03  0.00000000000E+00 0. -1.
         22   -1    0    0    0    0 -0.00000000000E+00 -0.00000000000E+00 -0.20573279712E+03  0.20573279712E+03  0.00000000000E+00 0.  1.
        -24    2    1    2    0    0 -0.42553828096E+02 -0.10014139244E+02 -0.15656123925E+03  0.18361213859E+03  0.85386676539E+02 0.  0.
         25    2    1    2    0    0  0.10874315384E+03  0.11806953751E+02  0.21813372774E+03  0.27421541369E+03  0.12508913726E+03 0.  0.
         24    2    1    2    0    0 -0.66189325745E+02 -0.17928145070E+01  0.34397719460E+03  0.35918772506E+03  0.79443504443E+02 0.  0.
        -11    1    5    5    0    0  0.95332826055E+01 -0.11929907197E+02  0.14817361242E+02  0.21278166207E+02  0.00000000000E+00 0.  1.
         12    1    5    5    0    0 -0.75722608351E+02  0.10137092690E+02  0.32915983336E+03  0.33790955885E+03  0.00000000000E+00 0. -1.
         11    1    3    3    0    0 -0.21771759503E+00  0.29515761809E+01  0.10434604159E+02  0.10846205183E+02  0.00000000000E+00 0. -1.
        -12    1    3    3    0    0 -0.42336110500E+02 -0.12965715425E+02 -0.16699584341E+03  0.17276593340E+03  0.00000000000E+00 0.  1.
          5    1    4    4  501    0  0.50202843250E+01  0.51863884378E+02  0.93657578656E+02  0.10725800761E+03  0.41800000000E+01 0. -1.
         -5    1    4    4    0  501  0.10372286952E+03 -0.40056930627E+02  0.12447614909E+03  0.16695740607E+03  0.41800000000E+01 0. -1.
</event>
<event>
11    1  0.9238666E-009  0.2002516E+03  0.7561462E-02  0.1054346E+00
         22   -1    0    0    0    0  0.00000000000E+00  0.00000000000E+00  0.27206435899E+03  0.27206435899E+03  0.00000000000E+00 0.  1.
         22   -1    0    0    0    0 -0.00000000000E+00 -0.00000000000E+00 -0.31290905367E+03  0.31290905367E+03  0.00000000000E+00 0.  1.
         24    2    1    2    0    0  0.76740560612E+02 -0.11933618170E+03 -0.13527451196E+03  0.21183979902E+03  0.80291151178E+02 0.  0.
         25    2    1    2    0    0 -0.11192283391E+03  0.17043773150E+03  0.11626799031E+02  0.23949920065E+03  0.12509573767E+03 0.  0.
        -24    2    1    2    0    0  0.35182273302E+02 -0.51101549808E+02  0.82803018245E+02  0.13363441299E+03  0.84573374994E+02 0.  0.
        -13    1    3    3    0    0  0.27595246908E+02 -0.64632700229E+02 -0.11631581201E+03  0.13589794595E+03  0.00000000000E+00 0.  1.
         14    1    3    3    0    0  0.49145313703E+02 -0.54703481467E+02 -0.18958699955E+02  0.75941853070E+02  0.00000000000E+00 0. -1.
         13    1    5    5    0    0 -0.25550450273E+02 -0.47221501449E+01  0.92781742430E+01  0.27590011389E+02  0.00000000000E+00 0. -1.
        -14    1    5    5    0    0  0.60732723575E+02 -0.46379399663E+02  0.73524844002E+02  0.10604440160E+03  0.00000000000E+00 0.  1.
          5    1    4    4  501    0 -0.55903061759E+01  0.10862439568E+03 -0.23833813473E+02  0.11142725844E+03  0.41800000000E+01 0. -1.
         -5    1    4    4    0  501 -0.10633252774E+03  0.61813335829E+02  0.35460612504E+02  0.12807194221E+03  0.41800000000E+01 0. -1.
</event>
<event>
11    1  0.9238666E-009  0.1742679E+03  0.7561462E-02  0.1074376E+00
         22   -1    0    0    0    0  0.00000000000E+00  0.00000000000E+00  0.90894807785E+03  0.90894807785E+03  0.00000000000E+00 0. -1.
         22   -1    0    0    0    0 -0.00000000000E+00 -0.00000000000E+00 -0.48382047499E+03  0.48382047499E+03  0.00000000000E+00 0. -1.
         24    2    1    2    0    0  0.13585333251E+02  0.43347019562E+02 -0.37892941552E+03  0.39012860873E+03  0.80927770414E+02 0.  0.
         25    2    1    2    0    0 -0.46252727017E+02 -0.15708423638E+03  0.21730784760E+02  0.20720668686E+03  0.12509041528E+03 0.  0.
        -24    2    1    2    0    0  0.32667393766E+02  0.11373721682E+03  0.78232623362E+03  0.79543325724E+03  0.81709349569E+02 0.  0.
        -13    1    3    3    0    0 -0.20818459998E+02  0.40263646539E+02 -0.10974794715E+03  0.11873997394E+03  0.00000000000E+00 0.  1.
         14    1    3    3    0    0  0.34403793249E+02  0.30833730222E+01 -0.26918146837E+03  0.27138863479E+03  0.00000000000E+00 0. -1.
         11    1    5    5    0    0  0.44190834595E+02  0.81611382461E+02  0.70267976111E+03  0.70878212046E+03  0.00000000000E+00 0. -1.
        -12    1    5    5    0    0 -0.11523440829E+02  0.32125834362E+02  0.79646472508E+02  0.86651136778E+02  0.00000000000E+00 0.  1.
          5    1    4    4  501    0 -0.83582149028E+02 -0.95012612799E+02 -0.12031497471E+02  0.12718333837E+03  0.41800000000E+01 0. -1.
         -5    1    4    4    0  501  0.37329422011E+02 -0.62071623586E+02  0.33762282230E+02  0.80023348491E+02  0.41800000000E+01 0. -1.
</event>
<event>
11    1  0.9238666E-009  0.2268024E+03  0.7561462E-02  0.1037038E+00
         22   -1    0    0    0    0  0.00000000000E+00  0.00000000000E+00  0.18596487441E+04  0.18596487441E+04  0.00000000000E+00 0. -1.
         22   -1    0    0    0    0 -0.00000000000E+00 -0.00000000000E+00 -0.17013947928E+04  0.17013947928E+04  0.00000000000E+00 0. -1.
         24    2    1    2    0    0 -0.61026140688E+02 -0.21615609220E+02 -0.53936405844E+03  0.54895107833E+03  0.79008065735E+02 0.  0.
         25    2    1    2    0    0  0.18697369040E+03 -0.11939329286E+03 -0.11374442116E+04  0.11656073146E+04  0.12508860030E+03 0.  0.
        -24    2    1    2    0    0 -0.12594754971E+03  0.14100890208E+03  0.18350622214E+04  0.18464851440E+04  0.79421248682E+02 0.  0.
        -11    1    3    3    0    0  0.17455990817E+02  0.19756534161E+01 -0.15208354343E+03  0.15309480398E+03  0.00000000000E+00 0.  1.
         12    1    3    3    0    0 -0.78482131505E+02 -0.23591262636E+02 -0.38728051501E+03  0.39585627435E+03  0.00000000000E+00 0. -1.
         11    1    5    5    0    0 -0.11414287364E+03  0.13104127983E+03  0.17973354899E+04  0.18057173854E+04  0.00000000000E+00 0. -1.
        -12    1    5    5    0    0 -0.11804676069E+02  0.99676222481E+01  0.37726731509E+02  0.40767758594E+02  0.00000000000E+00 0.  1.
          5    1    4    4  501    0  0.65139759570E+02 -0.10102116956E+03 -0.39196413300E+03  0.41000221821E+03  0.41800000000E+01 0. -1.
         -5    1    4    4    0  501  0.12183393083E+03 -0.18372123303E+02 -0.74548007864E+03  0.75560509637E+03  0.41800000000E+01 0. -1.
</event>
<event>
11    1  0.9238666E-009  0.1859707E+03  0.7561462E-02  0.1064913E+00
         22   -1    0    0    0    0  0.00000000000E+00  0.00000000000E+00  0.38666007660E+03  0.38666007660E+03  0.00000000000E+00 0. -1.
         22   -1    0    0    0    0 -0.00000000000E+00 -0.00000000000E+00 -0.22881629016E+04  0.22881629016E+04  0.00000000000E+00 0.  1.
         24    2    1    2    0    0 -0.26258289219E+02  0.37646965089E+02 -0.20078949640E+04  0.20100146764E+04  0.80062606019E+02 0.  0.
         25    2    1    2    0    0  0.21901221046E+02 -0.17280359175E+03 -0.21718301764E+03  0.30521739171E+03  0.12509375782E+03 0.  0.
        -24    2    1    2    0    0  0.43570681733E+01  0.13515662666E+03  0.32357515673E+03  0.35959091006E+03  0.79488632945E+02 0.  0.
        -11    1    3    3    0    0 -0.43714889914E+02  0.45568033646E+02 -0.18301369947E+04  0.18312260529E+04  0.00000000000E+00 0.  1.
         12    1    3    3    0    0  0.17456600695E+02 -0.79210685573E+01 -0.17775796935E+03  0.17878862352E+03  0.00000000000E+00 0. -1.
         13    1    5    5    0    0 -0.13000643166E+02  0.81350573635E+02  0.26775053506E+03  0.28013796883E+03  0.00000000000E+00 0. -1.
        -14    1    5    5    0    0  0.17357711339E+02  0.53806053027E+02  0.55824621674E+02  0.79452941232E+02  0.00000000000E+00 0.  1.
          5    1    4    4  501    0 -0.42077158135E+02 -0.18897544619E+02 -0.33565775355E+02  0.57199109299E+02  0.41800000000E+01 0.  1.
         -5    1    4    4    0  501  0.63978379181E+02 -0.15390604713E+03 -0.18361724228E+03  0.24801828241E+03  0.41800000000E+01 0.  1.
</event>
<event>
11    1  0.9238666E-009  0.1941309E+03  0.7561462E-02  0.1058753E+00
         22   -1    0    0    0    0  0.00000000000E+00  0.00000000000E+00  0.30352756626E+04  0.30352756626E+04  0.00000000000E+00 0.  1.
         22   -1    0    0    0    0 -0.00000000000E+00 -0.00000000000E+00 -0.21662515240E+03  0.21662515240E+03  0.00000000000E+00 0.  1.
        -24    2    1    2    0    0  0.19141871280E+02  0.10492825476E+02 -0.18826161053E+03  0.20547879877E+03  0.79388866495E+02 0.  0.
         25    2    1    2    0    0  0.73197255982E+02 -0.12735167026E+03  0.53493639971E+03  0.56867005717E+03  0.12510953593E+03 0.  0.
         24    2    1    2    0    0 -0.92339127262E+02  0.11685884479E+03  0.24719757210E+04  0.24777519591E+04  0.80051866389E+02 0.  0.
        -11    1    5    5    0    0 -0.63509569527E+02  0.12126284312E+03  0.21894409517E+04  0.21937159852E+04  0.00000000000E+00 0.  1.
         12    1    5    5    0    0 -0.28829557736E+02 -0.44039983353E+01  0.28253476930E+03  0.28403597389E+03  0.00000000000E+00 0. -1.
         11    1    3    3    0    0  0.50281765188E+02  0.93166705442E+01 -0.11402801607E+03  0.12496977519E+03  0.00000000000E+00 0. -1.
        -12    1    3    3    0    0 -0.31139893908E+02  0.11761549314E+01 -0.74233594458E+02  0.80509023589E+02  0.00000000000E+00 0.  1.
          5    1    4    4  501    0  0.41842917967E+02 -0.14819834450E+03  0.45090967643E+03  0.47649825582E+03  0.41800000000E+01 0. -1.
         -5    1    4    4    0  501  0.31354338015E+02  0.20846674238E+02  0.84026723279E+02  0.92171801351E+02  0.41800000000E+01 0. -1.
</event>
<event>
11    1  0.9238666E-009  0.1307311E+03  0.7561462E-02  0.1118374E+00
         22   -1    0    0    0    0  0.00000000000E+00  0.00000000000E+00  0.97784253001E+03  0.97784253001E+03  0.00000000000E+00 0.  1.
         22   -1    0    0    0    0 -0.00000000000E+00 -0.00000000000E+00 -0.52916333221E+02  0.52916333221E+02  0.00000000000E+00 0. -1.
        -24    2    1    2    0    0  0.21039807015E+02 -0.14567801121E+02  0.20967922342E+02  0.88306660945E+02  0.81875016282E+02 0.  0.
         25    2    1    2    0    0 -0.22983161154E+02  0.49792492429E+02  0.27355367860E+03  0.30575575848E+03  0.12508977084E+03 0.  0.
         24    2    1    2    0    0  0.19433541384E+01 -0.35224691307E+02  0.63040459584E+03  0.63669644380E+03  0.82023481916E+02 0.  0.
        -13    1    5    5    0    0  0.27146280981E+01 -0.60465794034E+02  0.51600973696E+03  0.51954742815E+03  0.00000000000E+00 0.  1.
         14    1    5    5    0    0 -0.77127395977E+00  0.25241102727E+02  0.11439485888E+03  0.11714901565E+03  0.00000000000E+00 0. -1.
         13    1    3    3    0    0  0.26221337484E+02 -0.32216762660E+02 -0.17957362784E+02  0.45254228685E+02  0.00000000000E+00 0. -1.
        -14    1    3    3    0    0 -0.51815304684E+01  0.17648961539E+02  0.38925285126E+02  0.43052432260E+02  0.00000000000E+00 0.  1.
          5    1    4    4  501    0  0.39558389272E+02  0.28105826998E+02  0.40181802859E+02  0.63141534302E+02  0.41800000000E+01 0.  1.
         -5    1    4    4    0  501 -0.62541550425E+02  0.21686665431E+02  0.23337187574E+03  0.24261422418E+03  0.41800000000E+01 0.  1.
</event>
<event>
11    1  0.9238666E-009  0.1479729E+03  0.7561462E-02  0.1098968E+00
         22   -1    0    0    0    0  0.00000000000E+00  0.00000000000E+00  0.78860672921E+03  0.78860672921E+03  0.00000000000E+00 0.  1.
         22   -1    0    0    0    0 -0.00000000000E+00 -0.00000000000E+00 -0.17884584546E+04  0.17884584546E+04  0.00000000000E+00 0.  1.
         24    2    1    2    0    0 -0.70691586749E+02  0.37819973032E+02 -0.15050787600E+04  0.15094903203E+04  0.82893319555E+02 0.  0.
         25    2    1    2    0    0  0.50757847750E+02 -0.52615301356E+02 -0.26015536194E+03  0.29776745826E+03  0.12505965699E+03 0.  0.
        -24    2    1    2    0    0  0.19933738999E+02  0.14795328324E+02  0.76538239660E+03  0.76980740522E+03  0.78593717373E+02 0.  0.
        -11    1    3    3    0    0 -0.41942147787E+02  0.53348665087E+02 -0.13048061229E+04  0.13065696469E+04  0.00000000000E+00 0.  1.
         12    1    3    3    0    0 -0.28749438962E+02 -0.15528692055E+02 -0.20027263711E+03  0.20292067340E+03  0.00000000000E+00 0. -1.
         11    1    5    5    0    0 -0.27278807887E+02  0.52642745408E+01  0.44037143549E+03  0.44124692309E+03  0.00000000000E+00 0. -1.
        -12    1    5    5    0    0  0.47212546886E+02  0.95310537828E+01  0.32501096111E+03  0.32856048212E+03  0.00000000000E+00 0.  1.
          5    1    4    4  501    0  0.73814729355E+02  0.82900781382E+01 -0.98509450657E+02  0.12344603653E+03  0.41800000000E+01 0.  1.
         -5    1    4    4    0  501 -0.23056881605E+02 -0.60905379494E+02 -0.16164591129E+03  0.17432142174E+03  0.41800000000E+01 0.  1.
</event>
<event>
11    1  0.9238666E-009  0.1564250E+03  0.7561462E-02  0.1090489E+00
         22   -1    0    0    0    0  0.00000000000E+00  0.00000000000E+00  0.34676364491E+03  0.34676364491E+03  0.00000000000E+00 0. -1.
         22   -1    0    0    0    0 -0.00000000000E+00 -0.00000000000E+00 -0.13282330858E+04  0.13282330858E+04  0.00000000000E+00 0. -1.
        -24    2    1    2    0    0  0.35276067045E+02  0.12571482752E+02 -0.87423248720E+03  0.87865210177E+03  0.79653193109E+02 0.  0.
         25    2    1    2    0    0 -0.58410303071E+02 -0.10300349669E+03 -0.42259219875E+03  0.45634825804E+03  0.12509229526E+03 0.  0.
         24    2    1    2    0    0  0.23134236027E+02  0.90432013939E+02  0.31535524510E+03  0.33999637086E+03  0.86229110863E+02 0.  0.
        -11    1    5    5    0    0  0.49258981120E+02  0.33968102794E+02  0.20217515139E+03  0.21084371242E+03  0.00000000000E+00 0.  1.
         12    1    5    5    0    0 -0.26124745093E+02  0.56463911145E+02  0.11318009372E+03  0.12915265844E+03  0.00000000000E+00 0. -1.
         13    1    3    3    0    0  0.52092327683E+02  0.19385383321E+02 -0.81003690457E+03  0.81194161764E+03  0.00000000000E+00 0. -1.
        -14    1    3    3    0    0 -0.16816260639E+02 -0.68139005689E+01 -0.64195582637E+02  0.66710484130E+02  0.00000000000E+00 0.  1.
          5    1    4    4  501    0 -0.97597460333E+02 -0.73868142715E+02 -0.32046695328E+03  0.34307186902E+03  0.41800000000E+01 0. -1.
         -5    1    4    4    0  501  0.39187157262E+02 -0.29135353976E+02 -0.10212524547E+03  0.11327638901E+03  0.41800000000E+01 0. -1.
</event>
<event>
11    1  0.9238666E-009  0.1616470E+03  0.7561462E-02  0.1085538E+00
         22   -1    0    0    0    0  0.00000000000E+00  0.00000000000E+00  0.12295318111E+04  0.12295318111E+04  0.00000000000E+00 0. -1.
         22   -1    0    0    0    0 -0.00000000000E+00 -0.00000000000E+00 -0.28909531779E+03  0.28909531779E+03  0.00000000000E+00 0.  1.
        -24    2    1    2    0    0  0.77003038027E+02 -0.67168130264E+02 -0.24614655777E+03  0.27824964940E+03  0.79960702223E+02 0.  0.
         25    2    1    2    0    0 -0.12687532159E+03  0.14983096782E+02  0.31582862834E+03  0.36292890019E+03  0.12509126148E+03 0.  0.
         24    2    1    2    0    0  0.49872283558E+02  0.52185033482E+02  0.87075442274E+03  0.87744857930E+03  0.80574327256E+02 0.  0.
        -11    1    5    5    0    0 -0.12232229517E+02  0.24488465903E+02  0.99328730130E+02  0.10303159239E+03  0.00000000000E+00 0.  1.
         12    1    5    5    0    0  0.62104513076E+02  0.27696567579E+02  0.77142569261E+03  0.77441698691E+03  0.00000000000E+00 0. -1.
         11    1    3    3    0    0  0.59292685722E+02 -0.28184918257E+02 -0.66026192604E+02  0.93109990372E+02  0.00000000000E+00 0. -1.
        -12    1    3    3    0    0  0.17710352305E+02 -0.38983212007E+02 -0.18012036516E+03  0.18513965902E+03  0.00000000000E+00 0.  1.
          5    1    4    4  501    0 -0.13178336400E+03  0.26017334802E+02  0.17077731180E+03  0.21731571357E+03  0.41800000000E+01 0.  1.
         -5    1    4    4    0  501  0.49080424172E+01 -0.11034238020E+02  0.14505131654E+03  0.14561318662E+03  0.41800000000E+01 0.  1.
</event>
<event>
11    1  0.9238666E-009  0.1527231E+03  0.7561462E-02  0.1094128E+00
         22   -1    0    0    0    0  0.00000000000E+00  0.00000000000E+00  0.31727243514E+03  0.31727243514E+03  0.00000000000E+00 0. -1.
         22   -1    0    0    0    0 -0.00000000000E+00 -0.00000000000E+00 -0.82877278451E+03  0.82877278451E+03  0.00000000000E+00 0.  1.
        -24    2    1    2    0    0  0.38211430204E+02  0.28323870762E+02 -0.68252879385E+03  0.68884578377E+03  0.80003776944E+02 0.  0.
         25    2    1    2    0    0 -0.69156021565E+02  0.54852453624E+02 -0.84683736424E+02  0.17495512555E+03  0.12508642514E+03 0.  0.
         24    2    1    2    0    0  0.30944591361E+02 -0.83176324386E+02  0.25571218090E+03  0.28224431033E+03  0.79982889318E+02 0.  0.
        -11    1    5    5    0    0 -0.15265591592E+02 -0.22972389761E+02  0.18562492138E+02  0.33246580161E+02  0.00000000000E+00 0.  1.
         12    1    5    5    0    0  0.46210182953E+02 -0.60203934625E+02  0.23714968876E+03  0.24899773017E+03  0.00000000000E+00 0. -1.
         11    1    3    3    0    0  0.23652268512E+02  0.40814170065E+02 -0.18408259738E+03  0.19003060002E+03  0.00000000000E+00 0. -1.
        -12    1    3    3    0    0  0.14559161692E+02 -0.12490299302E+02 -0.49844619647E+03  0.49881518375E+03  0.00000000000E+00 0.  1.
          5    1    4    4  501    0 -0.91353444672E+01 -0.13573635353E+02 -0.82083169072E+02  0.83802250209E+02  0.41800000000E+01 0.  1.
         -5    1    4    4    0  501 -0.60020677098E+02  0.68426088977E+02 -0.26005673516E+01  0.91152875339E+02  0.41800000000E+01 0.  1.
</event>
<event>
11    1  0.9238666E-009  0.1585006E+03  0.7561462E-02  0.1088496E+00
         22   -1    0    0    0    0  0.00000000000E+00  0.00000000000E+00  0.29215750183E+04  0.29215750183E+04  0.00000000000E+00 0.  1.
         22   -1    0    0    0    0 -0.00000000000E+00 -0.00000000000E+00 -0.19829266309E+02  0.19829266309E+02  0.00000000000E+00 0.  1.
        -24    2    1    2    0    0 -0.14534068133E+02 -0.27592617492E+02  0.15355070905E+03  0.17663960049E+03  0.81554500399E+02 0.  0.
         25    2    1    2    0    0 -0.12389876948E+02 -0.74703433289E+02  0.88830354268E+03  0.90025837869E+03  0.12509137646E+03 0.  0.
         24    2    1    2    0    0  0.26923945081E+02  0.10229605078E+03  0.18598915002E+04  0.18645063054E+04  0.77446687584E+02 0.  0.
        -13    1    5    5    0    0  0.15435710465E+02 -0.18187184170E+00  0.66332629330E+03  0.66350588967E+03  0.00000000000E+00 0.  1.
         14    1    5    5    0    0  0.11488234616E+02  0.10247792262E+03  0.11965652069E+04  0.12010004157E+04  0.00000000000E+00 0. -1.
         11    1    3    3    0    0  0.21078330455E+01 -0.15665927930E+02  0.15528914488E+03  0.15609158458E+03  0.00000000000E+00 0. -1.
        -12    1    3    3    0    0 -0.16641901178E+02 -0.11926689562E+02 -0.17384358335E+01  0.20548015911E+02  0.00000000000E+00 0.  1.
          5    1    4    4  501    0 -0.40828997047E+02  0.21055654403E+02  0.29745836091E+03  0.30101378118E+03  0.41800000000E+01 0. -1.
         -5    1    4    4    0  501  0.28439120098E+02 -0.95759087692E+02  0.59084518177E+03  0.59924459751E+03  0.41800000000E+01 0. -1.
</event>
<event>
11    1  0.9238666E-009  0.1361178E+03  0.7561462E-02  0.1111973E+00
         22   -1    0    0    0    0  0.00000000000E+00  0.00000000000E+00  0.73502982949E+02  0.73502982949E+02  0.00000000000E+00 0. -1.
         22   -1    0    0    0    0 -0.00000000000E+00 -0.00000000000E+00 -0.11889659463E+04  0.11889659463E+04  0.00000000000E+00 0. -1.
         24    2    1    2    0    0  0.18241668375E+02  0.55438865473E+02 -0.90831304359E+03  0.91369196623E+03  0.79963727559E+02 0.  0.
         25    2    1    2    0    0 -0.56800312564E+02 -0.11899746006E+02 -0.20772738629E+03  0.24932875486E+03  0.12508509714E+03 0.  0.
        -24    2    1    2    0    0  0.38558644189E+02 -0.43539119467E+02  0.57746650751E+00  0.99448208175E+02  0.80667147439E+02 0.  0.
        -11    1    3    3    0    0  0.42541003438E+02  0.48211585896E+01 -0.38085471477E+03  0.38325356398E+03  0.00000000000E+00 0.  1.
         12    1    3    3    0    0 -0.24299335063E+02  0.50617706883E+02 -0.52745832882E+03  0.53043840225E+03  0.00000000000E+00 0. -1.
         11    1    5    5    0    0 -0.81446355456E-01 -0.42650599868E+02  0.28910141036E+02  0.51525494246E+02  0.00000000000E+00 0. -1.
        -12    1    5    5    0    0  0.38640090545E+02 -0.88851959950E+00 -0.28332674528E+02  0.47922713929E+02  0.00000000000E+00 0.  1.
          5    1    4    4  501    0  0.10717212289E+02 -0.33177184207E+02 -0.16009886410E+03  0.16390455417E+03  0.41800000000E+01 0. -1.
         -5    1    4    4    0  501 -0.67517524854E+02  0.21277438201E+02 -0.47628522188E+02  0.85424200696E+02  0.41800000000E+01 0. -1.
</event>
<event>
11    1  0.9238666E-009  0.1591254E+03  0.7561462E-02  0.1087903E+00
         22   -1    0    0    0    0  0.00000000000E+00  0.00000000000E+00  0.52968815308E+03  0.52968815308E+03  0.00000000000E+00 0.  1.
         22   -1    0    0    0    0 -0.00000000000E+00 -0.00000000000E+00 -0.69182388693E+03  0.69182388693E+03  0.00000000000E+00 0. -1.
         24    2    1    2    0    0 -0.61449126254E+02 -0.30474159120E+02 -0.60892403132E+03  0.61766210287E+03  0.77545650509E+02 0.  0.
         25    2    1    2    0    0  0.14774024096E+03 -0.27236377796E+01  0.67113800139E+02  0.20490990499E+03  0.12509680248E+03 0.  0.
        -24    2    1    2    0    0 -0.86291114709E+02  0.33197796900E+02  0.37967449733E+03  0.39894003215E+03  0.80325432621E+02 0.  0.
        -11    1    3    3    0    0 -0.22705247857E+02 -0.94217101441E+01 -0.39441382205E+02  0.46474934454E+02  0.00000000000E+00 0.  1.
         12    1    3    3    0    0 -0.38743878397E+02 -0.21052448976E+02 -0.56948264912E+03  0.57118716842E+03  0.00000000000E+00 0. -1.
         11    1    5    5    0    0 -0.47076071165E+02  0.39215539673E+02  0.10623431445E+03  0.12263663643E+03  0.00000000000E+00 0. -1.
        -12    1    5    5    0    0 -0.39215043544E+02 -0.60177427731E+01  0.27344018289E+03  0.27630339572E+03  0.00000000000E+00 0.  1.
          5    1    4    4  501    0  0.96580388941E+02 -0.51716543749E+02  0.75994373424E+02  0.13339786212E+03  0.41800000000E+01 0. -1.
         -5    1    4    4    0  501  0.51159852022E+02  0.48992905969E+02 -0.88805732849E+01  0.71512042875E+02  0.41800000000E+01 0. -1.
</event>
<event>
11    1  0.9238666E-009  0.2159891E+03  0.7561462E-02  0.1043759E+00
         22   -1    0    0    0    0  0.00000000000E+00  0.00000000000E+00  0.21116707248E+03  0.21116707248E+03  0.00000000000E+00 0. -1.
         22   -1    0    0    0    0 -0.00000000000E+00 -0.00000000000E+00 -0.72412601152E+03  0.72412601152E+03  0.00000000000E+00 0.  1.
         24    2    1    2    0    0  0.12098008779E+03  0.10131981201E+03 -0.40908071743E+03  0.44586971371E+03  0.80937520901E+02 0.  0.
         25    2    1    2    0    0 -0.22829484392E+03 -0.12614531216E+03 -0.17407300038E+03  0.33760989337E+03  0.12509138699E+03 0.  0.
        -24    2    1    2    0    0  0.10731475612E+03  0.24825500151E+02  0.70194778768E+02  0.15181347692E+03  0.77377402837E+02 0.  0.
        -13    1    3    3    0    0  0.95238630929E+02  0.74420851680E+02 -0.20145192353E+03  0.23492921802E+03  0.00000000000E+00 0.  1.
         14    1    3    3    0    0  0.25741456865E+02  0.26898960325E+02 -0.20762879390E+03  0.21094049569E+03  0.00000000000E+00 0. -1.
         13    1    5    5    0    0  0.81886250641E+02  0.51621727869E+02  0.58320641767E+02  0.11301087597E+03  0.00000000000E+00 0. -1.
        -14    1    5    5    0    0  0.25428505483E+02 -0.26796227718E+02  0.11874137001E+02  0.38802600951E+02  0.00000000000E+00 0.  1.
          5    1    4    4  501    0 -0.11378821180E+03 -0.60293167463E+02 -0.15891765589E+03  0.20458572028E+03  0.41800000000E+01 0.  1.
         -5    1    4    4    0  501 -0.11450663212E+03 -0.65852144694E+02 -0.15155344490E+02  0.13302417309E+03  0.41800000000E+01 0.  1.
</event>
<event>
11    1  0.9238666E-009  0.2195289E+03  0.7561462E-02  0.1041513E+00
         22   -1    0    0    0    0  0.00000000000E+00  0.00000000000E+00  0.39086927619E+03  0.39086927619E+03  0.00000000000E+00 0.  1.
         22   -1    0    0    0    0 -0.00000000000E+00 -0.00000000000E+00 -0.65343486211E+03  0.65343486211E+03  0.00000000000E+00 0. -1.
         24    2    1    2    0    0  0.28277109906E+02  0.56751276084E+02 -0.41160521718E+03  0.42745866202E+03  0.96341842633E+02 0.  0.
         25    2    1    2    0    0  0.10395055968E+03 -0.17591311188E+03 -0.13261617067E+03  0.27383420077E+03  0.12508788510E+03 0.  0.
        -24    2    1    2    0    0 -0.13222766958E+03  0.11916183580E+03  0.28165580193E+03  0.34301127552E+03  0.81504875067E+02 0.  0.
        -11    1    3    3    0    0  0.26445573963E+01 -0.50171231468E+01  0.37207380067E+01  0.67830007966E+01  0.00000000000E+00 0.  1.
         12    1    3    3    0    0  0.25632552509E+02  0.61768399230E+02 -0.41532595518E+03  0.42067566122E+03  0.00000000000E+00 0. -1.
         13    1    5    5    0    0 -0.22478963607E+02  0.72046093690E+02  0.93641673266E+02  0.12026930778E+03  0.00000000000E+00 0. -1.
        -14    1    5    5    0    0 -0.10974870598E+03  0.47115742106E+02  0.18801412866E+03  0.22274196774E+03  0.00000000000E+00 0.  1.
          5    1    4    4  501    0  0.50418475683E+02 -0.39474998584E+02 -0.10732431889E+03  0.12504511198E+03  0.41800000000E+01 0. -1.
         -5    1    4    4    0  501  0.53532083994E+02 -0.13643811330E+03 -0.25291851776E+02  0.14878908879E+03  0.41800000000E+01 0. -1.
</event>
<event>
11    1  0.9238666E-009  0.2539762E+03  0.7561462E-02  0.1021802E+00
         22   -1    0    0    0    0  0.00000000000E+00  0.00000000000E+00  0.13973742275E+03  0.13973742275E+03  0.00000000000E+00 0. -1.
         22   -1    0    0    0    0 -0.00000000000E+00 -0.00000000000E+00 -0.16498773746E+04  0.16498773746E+04  0.00000000000E+00 0.  1.
        -24    2    1    2    0    0 -0.35295217898E+02  0.41077861781E+02 -0.63281710872E+03  0.64033478481E+03  0.81473924757E+02 0.  0.
         25    2    1    2    0    0 -0.12838213046E+03  0.11663123865E+03 -0.88289274371E+03  0.90842282521E+03  0.12509042818E+03 0.  0.
         24    2    1    2    0    0  0.16367734836E+03 -0.15770910043E+03  0.55699005292E+01  0.24085718737E+03  0.79490415729E+02 0.  0.
        -13    1    5    5    0    0  0.60904158255E+02 -0.11088252208E+03 -0.97571355449E+01  0.12688361553E+03  0.00000000000E+00 0.  1.
         14    1    5    5    0    0  0.10277319010E+03 -0.46826578349E+02  0.15327036074E+02  0.11397357184E+03  0.00000000000E+00 0. -1.
         11    1    3    3    0    0 -0.48292634928E+01 -0.58844356275E+00 -0.45875353375E+03  0.45877932907E+03  0.00000000000E+00 0. -1.
        -12    1    3    3    0    0 -0.30465954406E+02  0.41666305344E+02 -0.17406357497E+03  0.18155545574E+03  0.00000000000E+00 0.  1.
          5    1    4    4  501    0 -0.15286869058E+03  0.99933439027E+02 -0.78908813044E+03  0.80995868956E+03  0.41800000000E+01 0.  1.
         -5    1    4    4    0  501  0.24486560120E+02  0.16697799623E+02 -0.93804613267E+02  0.98464135648E+02  0.41800000000E+01 0.  1.
</event>
<event>
11    1  0.9238666E-009  0.1432917E+03  0.7561462E-02  0.1103937E+00
         22   -1    0    0    0    0  0.00000000000E+00  0.00000000000E+00  0.45475677908E+03  0.45475677908E+03  0.00000000000E+00 0. -1.
         22   -1    0    0    0    0 -0.00000000000E+00 -0.00000000000E+00 -0.98376509359E+03  0.98376509359E+03  0.00000000000E+00 0. -1.
         24    2    1    2    0    0 -0.65889774142E+02 -0.14615141667E+02 -0.83643537174E+03  0.84291151285E+03  0.79502343960E+02 0.  0.
         25    2    1    2    0    0  0.96620473512E+02  0.69277920790E+02 -0.83263541516E+02  0.19160943089E+03  0.12508561248E+03 0.  0.
        -24    2    1    2    0    0 -0.30730699370E+02 -0.54662779123E+02  0.39069059875E+03  0.40400092893E+03  0.81518165582E+02 0.  0.
        -11    1    3    3    0    0 -0.43995676073E+02  0.22007856638E+02 -0.24214739884E+03  0.24709376364E+03  0.00000000000E+00 0.  1.
         12    1    3    3    0    0 -0.21894098069E+02 -0.36622998305E+02 -0.59428797291E+03  0.59581774921E+03  0.00000000000E+00 0. -1.
         13    1    5    5    0    0 -0.57579913132E+02 -0.44407102496E+02  0.24780096702E+03  0.25824940737E+03  0.00000000000E+00 0. -1.
        -14    1    5    5    0    0  0.26849213762E+02 -0.10255676627E+02  0.14288963173E+03  0.14575152156E+03  0.00000000000E+00 0.  1.
          5    1    4    4  501    0  0.11505497333E+03  0.83487694744E+02 -0.49901949096E+02  0.15071668449E+03  0.41800000000E+01 0.  1.
         -5    1    4    4    0  501 -0.18434499815E+02 -0.14209773954E+02 -0.33361592420E+02  0.40892746399E+02  0.41800000000E+01 0.  1.
</event>
<event>
11    1  0.9238666E-009  0.1572476E+03  0.7561462E-02  0.1089695E+00
         22   -1    0    0    0    0  0.00000000000E+00  0.00000000000E+00  0.34219161098E+04  0.34219161098E+04  0.00000000000E+00 0.  1.
         22   -1    0    0    0    0 -0.00000000000E+00 -0.00000000000E+00 -0.37431466752E+03  0.37431466752E+03  0.00000000000E+00 0. -1.
         24    2    1    2    0    0 -0.40336872328E+02  0.83875175831E+02 -0.31490384923E+03  0.33726898108E+03  0.76966375432E+02 0.  0.
         25    2    1    2    0    0  0.38660439730E+02  0.13467892538E+02  0.45005378663E+02  0.13909768484E+03  0.12508664233E+03 0.  0.
        -24    2    1    2    0    0  0.16764325982E+01 -0.97343068369E+02  0.33174999129E+04  0.33198641114E+04  0.78826157160E+02 0.  0.
        -13    1    3    3    0    0 -0.58421850132E+01 -0.10060277780E+02 -0.94482301107E+02  0.95195827310E+02  0.00000000000E+00 0.  1.
         14    1    3    3    0    0 -0.34494687315E+02  0.93935453610E+02 -0.22042154812E+03  0.24207315377E+03  0.00000000000E+00 0. -1.
         11    1    5    5    0    0 -0.43042395845E+01  0.84727295993E+01  0.89102479839E+03  0.89107547659E+03  0.00000000000E+00 0. -1.
        -12    1    5    5    0    0  0.59806721827E+01 -0.10581579797E+03  0.24264751145E+04  0.24287886348E+04  0.00000000000E+00 0.  1.
          5    1    4    4  501    0 -0.17628884530E+02  0.16869660394E+02  0.72218425990E+02  0.76343542386E+02  0.41800000000E+01 0. -1.
         -5    1    4    4    0  501  0.56289324260E+02 -0.34017678559E+01 -0.27213047327E+02  0.62754142453E+02  0.41800000000E+01 0. -1.
</event>
<event>
11    1  0.9238666E-009  0.1318341E+03  0.7561462E-02  0.1117036E+00
         22   -1    0    0    0    0  0.00000000000E+00  0.00000000000E+00  0.49775543099E+03  0.49775543099E+03  0.00000000000E+00 0.  1.
         22   -1    0    0    0    0 -0.00000000000E+00 -0.00000000000E+00 -0.27257705548E+03  0.27257705548E+03  0.00000000000E+00 0. -1.
         24    2    1    2    0    0 -0.17181191945E+01 -0.41549904908E+02 -0.18449958511E+03  0.20586886027E+03  0.81317551559E+02 0.  0.
         25    2    1    2    0    0  0.43132637180E+02  0.37803170930E+02 -0.72773256284E+01  0.13777844446E+03  0.12506172943E+03 0.  0.
        -24    2    1    2    0    0 -0.41414517985E+02  0.37467339783E+01  0.41695528624E+03  0.42668518174E+03  0.80494305855E+02 0.  0.
        -11    1    3    3    0    0  0.23927151022E+02  0.15684062355E+02 -0.59040055621E+02  0.65606604360E+02  0.00000000000E+00 0.  1.
         12    1    3    3    0    0 -0.25645270217E+02 -0.57233967263E+02 -0.12545952949E+03  0.14026225591E+03  0.00000000000E+00 0. -1.
         11    1    5    5    0    0 -0.36328860869E+02  0.39491728140E+02  0.27686871267E+03  0.28202068502E+03  0.00000000000E+00 0. -1.
        -12    1    5    5    0    0 -0.50856571166E+01 -0.35744994161E+02  0.14008657357E+03  0.14466449672E+03  0.00000000000E+00 0.  1.
          5    1    4    4  501    0 -0.11318902558E+02  0.36687116194E+02  0.46960584979E+02  0.60801570632E+02  0.41800000000E+01 0.  1.
         -5    1    4    4    0  501  0.54451539737E+02  0.11160547360E+01 -0.54237910607E+02  0.76976873832E+02  0.41800000000E+01 0.  1.
</event>
<event>
11    1  0.9238666E-009  0.1429074E+03  0.7561462E-02  0.1104355E+00
         22   -1    0    0    0    0  0.00000000000E+00  0.00000000000E+00  0.18247671734E+04  0.18247671734E+04  0.00000000000E+00 0. -1.
         22   -1    0    0    0    0 -0.00000000000E+00 -0.00000000000E+00 -0.68638661561E+03  0.68638661561E+03  0.00000000000E+00 0. -1.
         24    2    1    2    0    0  0.26955735720E+01  0.41890943378E+02 -0.45706592481E+03  0.46598044920E+03  0.80413942576E+02 0.  0.
         25    2    1    2    0    0 -0.71623308736E+02 -0.36963270065E+02 -0.19848185667E+03  0.24806986187E+03  0.12508967685E+03 0.  0.
        -24    2    1    2    0    0  0.68927735164E+02 -0.49276733124E+01  0.17939283393E+04  0.17971034780E+04  0.81404602527E+02 0.  0.
        -11    1    3    3    0    0  0.26950588266E+02  0.11621596192E+02 -0.57702113488E+02  0.64737389559E+02  0.00000000000E+00 0.  1.
         12    1    3    3    0    0 -0.24255014693E+02  0.30269347185E+02 -0.39936381132E+03  0.40124305964E+03  0.00000000000E+00 0. -1.
         11    1    5    5    0    0  0.33014962518E+02 -0.19170359034E+02  0.15183866907E+04  0.15188665619E+04  0.00000000000E+00 0. -1.
        -12    1    5    5    0    0  0.35912772645E+02  0.14242685722E+02  0.27554164860E+03  0.27823691605E+03  0.00000000000E+00 0.  1.
          5    1    4    4  501    0 -0.48749564590E+02 -0.52610214602E+02 -0.30981958269E+02  0.78241350106E+02  0.41800000000E+01 0.  1.
         -5    1    4    4    0  501 -0.22873744146E+02  0.15646944536E+02 -0.16749989840E+03  0.16982851177E+03  0.41800000000E+01 0.  1.
</event>
<event>
11    1  0.9238666E-009  0.1670127E+03  0.7561462E-02  0.1080661E+00
         22   -1    0    0    0    0  0.00000000000E+00  0.00000000000E+00  0.10131326492E+03  0.10131326492E+03  0.00000000000E+00 0. -1.
         22   -1    0    0    0    0 -0.00000000000E+00 -0.00000000000E+00 -0.70650969067E+03  0.70650969067E+03  0.00000000000E+00 0. -1.
        -24    2    1    2    0    0 -0.27368025964E+02  0.91791450574E+02 -0.36516019527E+03  0.38573993747E+03  0.79237944849E+02 0.  0.
         25    2    1    2    0    0  0.39262173116E+02 -0.16754748507E+03 -0.22512769267E+03  0.30974435073E+03  0.12508160061E+03 0.  0.
         24    2    1    2    0    0 -0.11894147152E+02  0.75756034493E+02 -0.14908537802E+02  0.11233866740E+03  0.80729574472E+02 0.  0.
        -13    1    5    5    0    0 -0.16153709776E+02  0.52844634669E+02 -0.47092815793E+02  0.72603244088E+02  0.00000000000E+00 0.  1.
         14    1    5    5    0    0  0.42595626238E+01  0.22911399825E+02  0.32184277991E+02  0.39735423308E+02  0.00000000000E+00 0. -1.
         11    1    3    3    0    0 -0.43474502016E+02  0.70085009968E+02 -0.33602285607E+03  0.34599609932E+03  0.00000000000E+00 0. -1.
        -12    1    3    3    0    0  0.16106476053E+02  0.21706440605E+02 -0.29137339206E+02  0.39743838146E+02  0.00000000000E+00 0.  1.
          5    1    4    4  501    0 -0.45768317490E+02 -0.58621342448E+02 -0.79760130234E+02  0.10913455663E+03  0.41800000000E+01 0.  1.
         -5    1    4    4    0  501  0.85030490606E+02 -0.10892614262E+03 -0.14536756244E+03  0.20060979410E+03  0.41800000000E+01 0.  1.
</event>
<event>
11    1  0.9238666E-009  0.2096312E+03  0.7561462E-02  0.1047914E+00
         22   -1    0    0    0    0  0.00000000000E+00  0.00000000000E+00  0.17201083832E+04  0.17201083832E+04  0.00000000000E+00 0.  1.
         22   -1    0    0    0    0 -0.00000000000E+00 -0.00000000000E+00 -0.50499437384E+03  0.50499437384E+03  0.00000000000E+00 0. -1.
         24    2    1    2    0    0  0.10634014919E+03  0.48720197799E+02 -0.40636211358E+03  0.43007836761E+03  0.78456038194E+02 0.  0.
         25    2    1    2    0    0 -0.23439236916E+03 -0.14586728860E+03  0.20212511564E+03  0.36430698833E+03  0.12509184935E+03 0.  0.
        -24    2    1    2    0    0  0.12805221996E+03  0.97147090802E+02  0.14193510073E+04  0.14307174011E+04  0.80994268867E+02 0.  0.
        -11    1    3    3    0    0  0.11091134039E+02 -0.14427805959E+02 -0.12618898414E+03  0.12749444912E+03  0.00000000000E+00 0.  1.
         12    1    3    3    0    0  0.95249015155E+02  0.63148003758E+02 -0.28017312944E+03  0.30258391849E+03  0.00000000000E+00 0. -1.
         11    1    5    5    0    0  0.19783372445E+02 -0.83486862310E+01  0.78908316393E+02  0.81777776829E+02  0.00000000000E+00 0. -1.
        -12    1    5    5    0    0  0.10826884752E+03  0.10549577703E+03  0.13404426909E+04  0.13489396243E+04  0.00000000000E+00 0.  1.
          5    1    4    4  501    0 -0.20199711266E+03 -0.14969474357E+03  0.12573253459E+03  0.28113607457E+03  0.41800000000E+01 0. -1.
         -5    1    4    4    0  501 -0.32395256498E+02  0.38274549668E+01  0.76392581054E+02  0.83170913757E+02  0.41800000000E+01 0. -1.
</event>
<event>
11    1  0.9238666E-009  0.1810393E+03  0.7561462E-02  0.1068805E+00
         22   -1    0    0    0    0  0.00000000000E+00  0.00000000000E+00  0.12300670660E+04  0.12300670660E+04  0.00000000000E+00 0. -1.
         22   -1    0    0    0    0 -0.00000000000E+00 -0.00000000000E+00 -0.52615557222E+03  0.52615557222E+03  0.00000000000E+00 0.  1.
         24    2    1    2    0    0 -0.13208854408E+03 -0.28323671986E+02 -0.44731565353E+03  0.47425848169E+03  0.81118429982E+02 0.  0.
         25    2    1    2    0    0  0.97933612624E+02  0.17491261565E+02  0.36819059480E+02  0.16401250029E+03  0.12509004915E+03 0.  0.
        -24    2    1    2    0    0  0.34154931460E+02  0.10832410421E+02  0.11144080879E+04  0.11179516563E+04  0.81404047895E+02 0.  0.
        -11    1    3    3    0    0 -0.13901670471E+03 -0.38356206572E+02 -0.39389267289E+03  0.41946189401E+03  0.00000000000E+00 0.  1.
         12    1    3    3    0    0  0.69281606290E+01  0.10032534586E+02 -0.53422980649E+02  0.54796587680E+02  0.00000000000E+00 0. -1.
         11    1    5    5    0    0 -0.12582444829E+02  0.13376094172E+02  0.78705233052E+03  0.78726654241E+03  0.00000000000E+00 0. -1.
        -12    1    5    5    0    0  0.46737376288E+02 -0.25436837513E+01  0.32735575736E+03  0.33068511388E+03  0.00000000000E+00 0.  1.
          5    1    4    4  501    0  0.10426375820E+01 -0.39400936966E+02  0.32893586770E+02  0.51507100264E+02  0.41800000000E+01 0. -1.
         -5    1    4    4    0  501  0.96890975042E+02  0.56892198531E+02  0.39254727094E+01  0.11250540002E+03  0.41800000000E+01 0. -1.
</event>
<event>
11    1  0.9238666E-009  0.1425573E+03  0.7561462E-02  0.1104736E+00
         22   -1    0    0    0    0  0.00000000000E+00  0.00000000000E+00  0.25672565020E+03  0.25672565020E+03  0.00000000000E+00 0.  1.
         22   -1    0    0    0    0 -0.00000000000E+00 -0.00000000000E+00 -0.26216301864E+03  0.26216301864E+03  0.00000000000E+00 0. -1.
         24    2    1    2    0    0 -0.84405057388E+02 -0.10403897919E+03 -0.85986898958E+02  0.17783720551E+03  0.79271697157E+02 0.  0.
         25    2    1    2    0    0  0.48848937471E+02 -0.35449034428E+02  0.10500383690E+03  0.17411472878E+03  0.12508908938E+03 0.  0.
        -24    2    1    2    0    0  0.35556119917E+02  0.13948801361E+03 -0.24454306385E+02  0.16693673454E+03  0.80924141225E+02 0.  0.
        -13    1    3    3    0    0 -0.40424917815E+02 -0.67587262706E+01 -0.37098094425E+00  0.40987705328E+02  0.00000000000E+00 0.  1.
         14    1    3    3    0    0 -0.43980139573E+02 -0.97280252915E+02 -0.85615918014E+02  0.13684950019E+03  0.00000000000E+00 0. -1.
         13    1    5    5    0    0 -0.90297258537E+01  0.11186018923E+03 -0.22444180094E+02  0.11444640276E+03  0.00000000000E+00 0. -1.
        -14    1    5    5    0    0  0.44585845771E+02  0.27627824384E+02 -0.20101262903E+01  0.52490331786E+02  0.00000000000E+00 0.  1.
          5    1    4    4  501    0 -0.13201986368E+02  0.39020718620E+02  0.25056732864E+02  0.48396499744E+02  0.41800000000E+01 0.  1.
         -5    1    4    4    0  501  0.62050923839E+02 -0.74469753048E+02  0.79947104039E+02  0.12571822904E+03  0.41800000000E+01 0.  1.
</event>
<event>
11    1  0.9238666E-009  0.2412343E+03  0.7561462E-02  0.1028675E+00
         22   -1    0    0    0    0  0.00000000000E+00  0.00000000000E+00  0.27741226694E+03  0.27741226694E+03  0.00000000000E+00 0.  1.
         22   -1    0    0    0    0 -0.00000000000E+00 -0.00000000000E+00 -0.48404533607E+03  0.48404533607E+03  0.00000000000E+00 0. -1.
        -24    2    1    2    0    0 -0.16425880419E+03 -0.13482814010E+03 -0.34015922358E+03  0.40876975641E+03  0.78897618817E+02 0.  0.
         25    2    1    2    0    0  0.12724405541E+03  0.13044660524E+03  0.48220006264E+02  0.22622917292E+03  0.12508838165E+03 0.  0.
         24    2    1    2    0    0  0.37014748782E+02  0.43815348587E+01  0.85306148187E+02  0.12645867367E+03  0.85588362253E+02 0.  0.
        -13    1    5    5    0    0 -0.17733634278E+02 -0.19295687337E+02  0.54223528853E+01  0.26762048601E+02  0.00000000000E+00 0.  1.
         14    1    5    5    0    0  0.54748383060E+02  0.23677222196E+02  0.79883795302E+02  0.99696625071E+02  0.00000000000E+00 0. -1.
         13    1    3    3    0    0 -0.12616566053E+03 -0.56403619319E+02 -0.22939332793E+03  0.26780672334E+03  0.00000000000E+00 0. -1.
        -14    1    3    3    0    0 -0.38093143661E+02 -0.78424520777E+02 -0.11076589566E+03  0.14096303307E+03  0.00000000000E+00 0.  1.
          5    1    4    4  501    0  0.14329723246E+03  0.77492509255E+02  0.50745139069E+02  0.17068019030E+03  0.41800000000E+01 0.  1.
         -5    1    4    4    0  501 -0.16053177053E+02  0.52954095983E+02 -0.25251328047E+01  0.55548982624E+02  0.41800000000E+01 0.  1.
</event>
<event>
11    1  0.9238666E-009  0.2756965E+03  0.7561462E-02  0.1011036E+00
         22   -1    0    0    0    0  0.00000000000E+00  0.00000000000E+00  0.17492313552E+04  0.17492313552E+04  0.00000000000E+00 0. -1.
         22   -1    0    0    0    0 -0.00000000000E+00 -0.00000000000E+00 -0.28975910300E+03  0.28975910300E+03  0.00000000000E+00 0. -1.
        -24    2    1    2    0    0  0.51665688091E+01  0.28575387515E+02 -0.24128523281E+03  0.25567362083E+03  0.79417823033E+02 0.  0.
         25    2    1    2    0    0 -0.21375307072E+03  0.10992217399E+03  0.75901127879E+03  0.80592774824E+03  0.12509258364E+03 0.  0.
         24    2    1    2    0    0  0.20858650192E+03 -0.13849756150E+03  0.94174620619E+03  0.97738908910E+03  0.75588433650E+02 0.  0.
        -11    1    5    5    0    0  0.45705611338E+02 -0.66115002919E+02  0.22905586412E+03  0.24274839939E+03  0.00000000000E+00 0.  1.
         12    1    5    5    0    0  0.16288089058E+03 -0.72382558582E+02  0.71269034207E+03  0.73464068971E+03  0.00000000000E+00 0. -1.
         13    1    3    3    0    0  0.30158341462E+02  0.29748581705E+02 -0.21595447149E+03  0.22007007391E+03  0.00000000000E+00 0. -1.
        -14    1    3    3    0    0 -0.24991772653E+02 -0.11731941897E+01 -0.25330761319E+02  0.35603546929E+02  0.00000000000E+00 0.  1.
          5    1    4    4  501    0 -0.11203167536E+03  0.12023110699E+03  0.53423427577E+03  0.55895469332E+03  0.41800000000E+01 0. -1.
         -5    1    4    4    0  501 -0.10172139536E+03 -0.10308933001E+02  0.22477700301E+03  0.24697305492E+03  0.41800000000E+01 0. -1.
</event>
<event>
11    1  0.9238666E-009  0.1409491E+03  0.7561462E-02  0.1106503E+00
         22   -1    0    0    0    0  0.00000000000E+00  0.00000000000E+00  0.17533974824E+04  0.17533974824E+04  0.00000000000E+00 0.  1.
         22   -1    0    0    0    0 -0.00000000000E+00 -0.00000000000E+00 -0.34224120593E+02  0.34224120593E+02  0.00000000000E+00 0.  1.
         24    2    1    2    0    0 -0.23461753180E+02 -0.69894183234E+01  0.10822152424E+03  0.14951032090E+03  0.10021043816E+03 0.  0.
         25    2    1    2    0    0 -0.35342045501E+02  0.40497834926E+02  0.39727778683E+03  0.41995964386E+03  0.12508927912E+03 0.  0.
        -24    2    1    2    0    0  0.58803798681E+02 -0.33508416603E+02  0.12136740507E+04  0.12181516382E+04  0.79422991394E+02 0.  0.
        -11    1    3    3    0    0 -0.27361716400E+02 -0.43243482398E+02  0.21633291304E+02  0.55557732017E+02  0.00000000000E+00 0.  1.
         12    1    3    3    0    0  0.38999632198E+01  0.36254064074E+02  0.86588232935E+02  0.93952588883E+02  0.00000000000E+00 0. -1.
         13    1    5    5    0    0  0.17167251895E+02 -0.41413201390E+02  0.28439731623E+03  0.28790901560E+03  0.00000000000E+00 0. -1.
        -14    1    5    5    0    0  0.41636546785E+02  0.79047847867E+01  0.92927673449E+03  0.93024262261E+03  0.00000000000E+00 0.  1.
          5    1    4    4  501    0 -0.14677837577E+02  0.84651929748E+02  0.22547369014E+03  0.24132394301E+03  0.41800000000E+01 0. -1.
         -5    1    4    4    0  501 -0.20664207924E+02 -0.44154094822E+02  0.17180409669E+03  0.17863570085E+03  0.41800000000E+01 0. -1.
</event>
<event>
11    1  0.9238666E-009  0.1313398E+03  0.7561462E-02  0.1117634E+00
         22   -1    0    0    0    0  0.00000000000E+00  0.00000000000E+00  0.34878947208E+03  0.34878947208E+03  0.00000000000E+00 0.  1.
         22   -1    0    0    0    0 -0.00000000000E+00 -0.00000000000E+00 -0.51561463778E+03  0.51561463778E+03  0.00000000000E+00 0.  1.
         24    2    1    2    0    0 -0.62175483750E+01  0.41184635550E+02 -0.42360951651E+03  0.43316670144E+03  0.80333907197E+02 0.  0.
         25    2    1    2    0    0 -0.24727397854E+02 -0.25553986121E+02 -0.29121382667E+02  0.13326619284E+03  0.12508945924E+03 0.  0.
        -24    2    1    2    0    0  0.30944946229E+02 -0.15630649429E+02  0.28590573348E+03  0.29797121558E+03  0.76438537271E+02 0.  0.
        -11    1    3    3    0    0 -0.30073732301E+02  0.54968118235E+02 -0.30942807222E+03  0.31570818057E+03  0.00000000000E+00 0.  1.
         12    1    3    3    0    0  0.23856183926E+02 -0.13783482686E+02 -0.11418144429E+03  0.11745852088E+03  0.00000000000E+00 0. -1.
         13    1    5    5    0    0  0.23827301996E+02 -0.38285534845E+02  0.90344696145E+02  0.10097369271E+03  0.00000000000E+00 0. -1.
        -14    1    5    5    0    0  0.71176442325E+01  0.22654885416E+02  0.19556103733E+03  0.19699752287E+03  0.00000000000E+00 0.  1.
          5    1    4    4  501    0 -0.57173255142E+02  0.30652624138E+02 -0.15157809808E+02  0.66750251447E+02  0.41800000000E+01 0. -1.
         -5    1    4    4    0  501  0.32445857288E+02 -0.56206610259E+02 -0.13963572859E+02  0.66515941390E+02  0.41800000000E+01 0. -1.
</event>
<event>
11    1  0.9238666E-009  0.1835232E+03  0.7561462E-02  0.1066828E+00
         22   -1    0    0    0    0  0.00000000000E+00  0.00000000000E+00  0.88393757130E+03  0.88393757130E+03  0.00000000000E+00 0.  1.
         22   -1    0    0    0    0 -0.00000000000E+00 -0.00000000000E+00 -0.40789405787E+03  0.40789405787E+03  0.00000000000E+00 0.  1.
        -24    2    1    2    0    0  0.46545883843E+02 -0.81078704430E+02 -0.18762629359E+03  0.22428416106E+03  0.79746368183E+02 0.  0.
         25    2    1    2    0    0  0.34927900583E+02 -0.29982264715E+02 -0.17158530528E+03  0.21727464375E+03  0.12509140414E+03 0.  0.
         24    2    1    2    0    0 -0.81473784425E+02  0.11106096914E+03  0.83525511231E+03  0.85027282437E+03  0.79625729513E+02 0.  0.
        -13    1    5    5    0    0 -0.52462019509E+02  0.86462494576E+02  0.75163460413E+03  0.75840794074E+03  0.00000000000E+00 0.  1.
         14    1    5    5    0    0 -0.29011764916E+02  0.24598474568E+02  0.83620508188E+02  0.91864883629E+02  0.00000000000E+00 0. -1.
         13    1    3    3    0    0  0.42847170345E+02 -0.11477405239E+01 -0.66064686824E+02  0.78751127992E+02  0.00000000000E+00 0. -1.
        -14    1    3    3    0    0  0.36987134977E+01 -0.79930963906E+02 -0.12156160677E+03  0.14553303306E+03  0.00000000000E+00 0.  1.
          5    1    4    4  501    0  0.39320626223E+02 -0.36438979577E+02 -0.90856659353E+01  0.54533774899E+02  0.41800000000E+01 0.  1.
         -5    1    4    4    0  501 -0.43927256405E+01  0.64567148623E+01 -0.16249963935E+03  0.16274086885E+03  0.41800000000E+01 0.  1.
</event>
<event>
11    1  0.9238666E-009  0.1314654E+03  0.7561462E-02  0.1117481E+00
         22   -1    0    0    0    0  0.00000000000E+00  0.00000000000E+00  0.13976814805E+03  0.13976814805E+03  0.00000000000E+00 0. -1.
         22   -1    0    0    0    0 -0.00000000000E+00 -0.00000000000E+00 -0.97579099994E+03  0.97579099994E+03  0.00000000000E+00 0.  1.
        -24    2    1    2    0    0 -0.23144996589E+02  0.24811459947E+02 -0.59924025134E+03  0.60597866294E+03  0.83486296540E+02 0.  0.
         25    2    1    2    0    0  0.60089796511E+02 -0.36390297682E+02 -0.34240102978E+03  0.37123959765E+03  0.12508131858E+03 0.  0.
         24    2    1    2    0    0 -0.36944799921E+02  0.11578837735E+02  0.10561842922E+03  0.13834088740E+03  0.80523045220E+02 0.  0.
        -11    1    5    5    0    0 -0.44951668808E+02  0.35321556094E+02  0.45022187989E+02  0.72768552718E+02  0.00000000000E+00 0.  1.
         12    1    5    5    0    0  0.80068688863E+01 -0.23742718359E+02  0.60596241230E+02  0.65572334681E+02  0.00000000000E+00 0. -1.
         13    1    3    3    0    0  0.18485137721E+02 -0.15337150465E+02 -0.80019445833E+02  0.83546634955E+02  0.00000000000E+00 0. -1.
        -14    1    3    3    0    0 -0.41630134310E+02  0.40148610412E+02 -0.51922080550E+03  0.52243202799E+03  0.00000000000E+00 0.  1.
          5    1    4    4  501    0  0.30496111343E+02 -0.21879211150E+02 -0.33510208129E+03  0.33722335325E+03  0.41800000000E+01 0.  1.
         -5    1    4    4    0  501  0.29593685168E+02 -0.14511086532E+02 -0.72989484844E+01  0.34016244401E+02  0.41800000000E+01 0.  1.
</event>
<event>
11    1  0.9238666E-009  0.2324066E+03  0.7561462E-02  0.1033712E+00
         22   -1    0    0    0    0  0.00000000000E+00  0.00000000000E+00  0.13449395730E+04  0.13449395730E+04  0.00000000000E+00 0.  1.
         22   -1    0    0    0    0 -0.00000000000E+00 -0.00000000000E+00 -0.69730767238E+03  0.69730767238E+03  0.00000000000E+00 0.  1.
         24    2    1    2    0    0 -0.20460466398E+03  0.41725696754E+02 -0.64461278756E+03  0.68237974262E+03  0.80699225307E+02 0.  0.
         25    2    1    2    0    0  0.71527598577E+02  0.30835147791E+01  0.15554305412E+03  0.21208154501E+03  0.12513686359E+03 0.  0.
        -24    2    1    2    0    0  0.13307706540E+03 -0.44809211533E+02  0.11367016340E+04  0.11477859577E+04  0.74864071213E+02 0.  0.
        -13    1    3    3    0    0 -0.14991557188E+03  0.63917115756E+02 -0.50973817857E+03  0.53515706766E+03  0.00000000000E+00 0.  1.
         14    1    3    3    0    0 -0.54689092103E+02 -0.22191419002E+02 -0.13487460899E+03  0.14722267496E+03  0.00000000000E+00 0. -1.
         13    1    5    5    0    0  0.39775263113E+02 -0.23693831238E+02  0.16455121988E+03  0.17094026195E+03  0.00000000000E+00 0. -1.
        -14    1    5    5    0    0  0.93301802290E+02 -0.21115380295E+02  0.97215041417E+03  0.97684569578E+03  0.00000000000E+00 0.  1.
          5    1    4    4  501    0  0.37881287308E+02  0.62494406588E+02  0.10022071637E+03  0.12410562909E+03  0.41800000000E+01 0. -1.
         -5    1    4    4    0  501  0.33646311270E+02 -0.59410891809E+02  0.55322337747E+02  0.87975915917E+02  0.41800000000E+01 0. -1.
</event>
<event>
11    1  0.9238666E-009  0.1347703E+03  0.7561462E-02  0.1113543E+00
         22   -1    0    0    0    0  0.00000000000E+00  0.00000000000E+00  0.18633066356E+03  0.18633066356E+03  0.00000000000E+00 0. -1.
         22   -1    0    0    0    0 -0.00000000000E+00 -0.00000000000E+00 -0.25547397757E+03  0.25547397757E+03  0.00000000000E+00 0. -1.
         24    2    1    2    0    0  0.46018971848E+02  0.19164094422E+02 -0.17308628005E+03  0.19874399007E+03  0.83995862771E+02 0.  0.
         25    2    1    2    0    0 -0.40605339021E+02 -0.38447557127E+02  0.59064473190E+02  0.14920592575E+03  0.12508712195E+03 0.  0.
        -24    2    1    2    0    0 -0.54136328278E+01  0.19283462705E+02  0.44878492863E+02  0.93854725308E+02  0.79959183255E+02 0.  0.
        -11    1    3    3    0    0 -0.23690943899E+01  0.53744095919E+01  0.84910884968E+01  0.10324508247E+02  0.00000000000E+00 0.  1.
         12    1    3    3    0    0  0.48388066238E+02  0.13789684830E+02 -0.18157736855E+03  0.18841948183E+03  0.00000000000E+00 0. -1.
         13    1    5    5    0    0 -0.32327002672E+02  0.37461179367E+02  0.31945629183E+02  0.58897353805E+02  0.00000000000E+00 0. -1.
        -14    1    5    5    0    0  0.26913369845E+02 -0.18177716662E+02  0.12932863679E+02  0.34957371503E+02  0.00000000000E+00 0.  1.
          5    1    4    4  501    0 -0.33599365472E+01 -0.36223441534E+02 -0.33304279276E+02  0.49498225304E+02  0.41800000000E+01 0.  1.
         -5    1    4    4    0  501 -0.37245402474E+02 -0.22241155931E+01  0.92368752466E+02  0.99707700443E+02  0.41800000000E+01 0.  1.
</event>
<event>
11    1  0.9238666E-009  0.2424705E+03  0.7561462E-02  0.1027988E+00
         22   -1    0    0    0    0  0.00000000000E+00  0.00000000000E+00  0.88521258290E+03  0.88521258290E+03  0.00000000000E+00 0. -1.
         22   -1    0    0    0    0 -0.00000000000E+00 -0.00000000000E+00 -0.27084927663E+03  0.27084927663E+03  0.00000000000E+00 0. -1.
        -24    2    1    2    0    0 -0.84704755998E+02  0.17682194731E+03 -0.12207551907E+03  0.24449531479E+03  0.80216144644E+02 0.  0.
         25    2    1    2    0    0  0.15870996884E+03 -0.20661778059E+03  0.17320953103E+03  0.33693985237E+03  0.12508861263E+03 0.  0.
         24    2    1    2    0    0 -0.74005212845E+02  0.29795833283E+02  0.56322929431E+03  0.57462669238E+03  0.81265210346E+02 0.  0.
        -13    1    5    5    0    0  0.13814055778E+02  0.20760092586E+02  0.10018981171E+03  0.10324634595E+03  0.00000000000E+00 0.  1.
         14    1    5    5    0    0 -0.87819268624E+02  0.90357406966E+01  0.46303948260E+03  0.47138034643E+03  0.00000000000E+00 0. -1.
         11    1    3    3    0    0 -0.67031186513E+02  0.52398699352E+02 -0.37273526471E+02  0.92887671059E+02  0.00000000000E+00 0. -1.
        -12    1    3    3    0    0 -0.17673569485E+02  0.12442324795E+03 -0.84801992599E+02  0.15160764373E+03  0.00000000000E+00 0.  1.
          5    1    4    4  501    0  0.77688533627E+02 -0.15955753534E+03  0.54586950711E+02  0.18571839685E+03  0.41800000000E+01 0.  1.
         -5    1    4    4    0  501  0.81021435217E+02 -0.47060245248E+02  0.11862258032E+03  0.15122145552E+03  0.41800000000E+01 0.  1.
</event>
<event>
11    1  0.9238666E-009  0.1831005E+03  0.7561462E-02  0.1067162E+00
         22   -1    0    0    0    0  0.00000000000E+00  0.00000000000E+00  0.23958049949E+04  0.23958049949E+04  0.00000000000E+00 0.  1.
         22   -1    0    0    0    0 -0.00000000000E+00 -0.00000000000E+00 -0.20534732291E+03  0.20534732291E+03  0.00000000000E+00 0. -1.
        -24    2    1    2    0    0 -0.25008007867E+01  0.62598652646E+02 -0.17023331336E+03  0.19828524954E+03  0.80080046758E+02 0.  0.
         25    2    1    2    0    0  0.93080213814E+02  0.45056748089E+02  0.35103250466E+03  0.38672752935E+03  0.12506128848E+03 0.  0.
         24    2    1    2    0    0 -0.90579413027E+02 -0.10765540074E+03  0.20096584807E+04  0.20161395390E+04  0.79354369897E+02 0.  0.
        -11    1    5    5    0    0 -0.80264890859E+02 -0.12064290445E+03  0.17893574968E+04  0.17952151443E+04  0.00000000000E+00 0.  1.
         12    1    5    5    0    0 -0.10314522168E+02  0.12987503711E+02  0.22030098391E+03  0.22092439461E+03  0.00000000000E+00 0. -1.
         13    1    3    3    0    0  0.96993286822E+01  0.79901446958E+02 -0.13339057265E+03  0.15579269262E+03  0.00000000000E+00 0. -1.
        -14    1    3    3    0    0 -0.12200129469E+02 -0.17302794312E+02 -0.36842740717E+02  0.42492556920E+02  0.00000000000E+00 0.  1.
          5    1    4    4  501    0  0.10485716005E+03  0.30054268263E+02  0.35059668977E+03  0.36719721450E+03  0.41800000000E+01 0. -1.
         -5    1    4    4    0  501 -0.11776946239E+02  0.15002479827E+02  0.43581489178E+00  0.19530314854E+02  0.41800000000E+01 0. -1.
</event>
<event>
11    1  0.9238666E-009  0.1384426E+03  0.7561462E-02  0.1109310E+00
         22   -1    0    0    0    0  0.00000000000E+00  0.00000000000E+00  0.15219803589E+03  0.15219803589E+03  0.00000000000E+00 0.  1.
         22   -1    0    0    0    0 -0.00000000000E+00 -0.00000000000E+00 -0.10483520265E+04  0.10483520265E+04  0.00000000000E+00 0. -1.
         24    2    1    2    0    0 -0.46140161345E+02  0.56799884947E+01 -0.66498587667E+03  0.67129976136E+03  0.79221062109E+02 0.  0.
         25    2    1    2    0    0  0.80871993260E+02 -0.51811292987E+02 -0.34452969165E+03  0.37890749106E+03  0.12508192907E+03 0.  0.
        -24    2    1    2    0    0 -0.34731831915E+02  0.46131304493E+02  0.11336157767E+03  0.15034280999E+03  0.80110647375E+02 0.  0.
        -11    1    3    3    0    0 -0.60373503772E+02  0.20054167579E+02 -0.35504365468E+03  0.36069810968E+03  0.00000000000E+00 0.  1.
         12    1    3    3    0    0  0.14233342426E+02 -0.14374179085E+02 -0.30994222198E+03  0.31060165169E+03  0.00000000000E+00 0. -1.
         13    1    5    5    0    0 -0.51213291227E+02  0.36880109627E+02  0.40309262555E+02  0.74885114223E+02  0.00000000000E+00 0. -1.
        -14    1    5    5    0    0  0.16481459312E+02  0.92511948653E+01  0.73052315116E+02  0.75457695772E+02  0.00000000000E+00 0.  1.
          5    1    4    4  501    0 -0.31101414520E+02 -0.12783427476E+02 -0.42152496837E+02  0.54083448418E+02  0.41800000000E+01 0. -1.
         -5    1    4    4    0  501  0.11197340778E+03 -0.39027865511E+02 -0.30237719481E+03  0.32482404264E+03  0.41800000000E+01 0. -1.
</event>
<event>
11    1  0.9238666E-009  0.1338690E+03  0.7561462E-02  0.1114605E+00
         22   -1    0    0    0    0  0.00000000000E+00  0.00000000000E+00  0.66036131335E+02  0.66036131335E+02  0.00000000000E+00 0.  1.
         22   -1    0    0    0    0 -0.00000000000E+00 -0.00000000000E+00 -0.10771728803E+04  0.10771728803E+04  0.00000000000E+00 0. -1.
         24    2    1    2    0    0 -0.28209195803E+01 -0.57114457087E+02 -0.73230141453E+03  0.73892884685E+03  0.80501305583E+02 0.  0.
         25    2    1    2    0    0 -0.52248111083E-01  0.97739175664E+01 -0.28453980845E+03  0.31097610148E+03  0.12509077065E+03 0.  0.
        -24    2    1    2    0    0  0.28731676914E+01  0.47340539520E+02  0.57044740605E+01  0.93304063256E+02  0.80148146710E+02 0.  0.
        -13    1    3    3    0    0 -0.18819787735E+02  0.15491007531E+02 -0.17417733937E+03  0.17587467491E+03  0.00000000000E+00 0.  1.
         14    1    3    3    0    0  0.15998868155E+02 -0.72605464618E+02 -0.55812407516E+03  0.56305417195E+03  0.00000000000E+00 0. -1.
         11    1    5    5    0    0 -0.13769047202E+02  0.22979523725E+02 -0.34347358072E+02  0.43558996522E+02  0.00000000000E+00 0. -1.
        -12    1    5    5    0    0  0.16642214894E+02  0.24361015796E+02  0.40051832133E+02  0.49745066734E+02  0.00000000000E+00 0.  1.
          5    1    4    4  501    0  0.13326946596E+02  0.64693280940E+02 -0.12137376773E+03  0.13824576666E+03  0.41800000000E+01 0.  1.
         -5    1    4    4    0  501 -0.13379194708E+02 -0.54919363373E+02 -0.16316604072E+03  0.17273033482E+03  0.41800000000E+01 0.  1.
</event>
<event>
11    1  0.9238666E-009  0.1773288E+03  0.7561462E-02  0.1071824E+00
         22   -1    0    0    0    0  0.00000000000E+00  0.00000000000E+00  0.15062496396E+04  0.15062496396E+04  0.00000000000E+00 0.  1.
         22   -1    0    0    0    0 -0.00000000000E+00 -0.00000000000E+00 -0.27354811611E+03  0.27354811611E+03  0.00000000000E+00 0.  1.
        -24    2    1    2    0    0  0.16385759746E+02  0.11438863807E+03 -0.79742582671E+02  0.16079042878E+03  0.78367269018E+02 0.  0.
         25    2    1    2    0    0 -0.37302193621E+02 -0.13587040431E+03 -0.93558628903E+02  0.21036362897E+03  0.12508964360E+03 0.  0.
         24    2    1    2    0    0  0.20916433875E+02  0.21481766240E+02  0.14060027351E+04  0.14086436980E+04  0.80835718128E+02 0.  0.
        -11    1    5    5    0    0  0.28838021218E+02  0.23342542405E+02  0.13916522076E+04  0.13921466779E+04  0.00000000000E+00 0.  1.
         12    1    5    5    0    0 -0.79215873428E+01 -0.18607761645E+01  0.14350527469E+02  0.16497020113E+02  0.00000000000E+00 0. -1.
         13    1    3    3    0    0 -0.27455213099E+02  0.71245674528E+02 -0.56715529079E+02  0.95112491840E+02  0.00000000000E+00 0. -1.
        -14    1    3    3    0    0  0.43840972845E+02  0.43142963540E+02 -0.23027053592E+02  0.65677936936E+02  0.00000000000E+00 0.  1.
          5    1    4    4  501    0 -0.36776711013E+02 -0.90018342720E+02 -0.12213336053E+03  0.15617252849E+03  0.41800000000E+01 0.  1.
         -5    1    4    4    0  501 -0.52548260784E+00 -0.45852061588E+02  0.28574731632E+02  0.54191100484E+02  0.41800000000E+01 0.  1.
</event>
<event>
11    1  0.9238666E-009  0.1436974E+03  0.7561462E-02  0.1103499E+00
         22   -1    0    0    0    0  0.00000000000E+00  0.00000000000E+00  0.94061705758E+03  0.94061705758E+03  0.00000000000E+00 0.  1.
         22   -1    0    0    0    0 -0.00000000000E+00 -0.00000000000E+00 -0.58054068648E+03  0.58054068648E+03  0.00000000000E+00 0.  1.
         24    2    1    2    0    0 -0.28674968954E+02  0.35737844554E+02 -0.53621599819E+03  0.54437863098E+03  0.81982008883E+02 0.  0.
         25    2    1    2    0    0 -0.44638694677E+02 -0.30919528753E+02  0.90518034636E+02  0.16367584051E+03  0.12509051063E+03 0.  0.
        -24    2    1    2    0    0  0.73313663631E+02 -0.48183158002E+01  0.80577433465E+03  0.81310327258E+03  0.80414824881E+02 0.  0.
        -11    1    3    3    0    0 -0.26833590950E+02  0.40695600025E+02 -0.53684422916E+03  0.53905278021E+03  0.00000000000E+00 0.  1.
         12    1    3    3    0    0 -0.18413780041E+01 -0.49577554718E+01  0.62823097886E+00  0.53258507710E+01  0.00000000000E+00 0. -1.
         11    1    5    5    0    0 -0.72675268656E+01 -0.58613440030E+01  0.35884604546E+03  0.35896748689E+03  0.00000000000E+00 0. -1.
        -12    1    5    5    0    0  0.80581190497E+02  0.10430282028E+01  0.44692828919E+03  0.45413578570E+03  0.00000000000E+00 0.  1.
          5    1    4    4  501    0 -0.24540441930E+02  0.46109015060E+02  0.16611513163E+02  0.54969894756E+02  0.41800000000E+01 0. -1.
         -5    1    4    4    0  501 -0.20098252747E+02 -0.77028543813E+02  0.73906521472E+02  0.10870594575E+03  0.41800000000E+01 0. -1.
</event>
<event>
11    1  0.9238666E-009  0.1286658E+03  0.7561462E-02  0.1120919E+00
         22   -1    0    0    0    0  0.00000000000E+00  0.00000000000E+00  0.28436116105E+04  0.28436116105E+04  0.00000000000E+00 0. -1.
         22   -1    0    0    0    0 -0.00000000000E+00 -0.00000000000E+00 -0.16263962419E+03  0.16263962419E+03  0.00000000000E+00 0. -1.
        -24    2    1    2    0    0 -0.26407738811E+02  0.15280720407E+02 -0.14257381158E+03  0.17433097331E+03  0.95567397269E+02 0.  0.
         25    2    1    2    0    0 -0.77232138885E+01 -0.29948069607E+01  0.13898267628E+04  0.13954696196E+04  0.12509361247E+03 0.  0.
         24    2    1    2    0    0  0.34130952699E+02 -0.12285913446E+02  0.14337190351E+04  0.14364506418E+04  0.80773194307E+02 0.  0.
        -13    1    5    5    0    0 -0.13517890000E+02  0.17295756434E+02  0.16016912337E+03  0.16166639917E+03  0.00000000000E+00 0.  1.
         14    1    5    5    0    0  0.47648842699E+02 -0.29581669880E+02  0.12735499118E+04  0.12747842426E+04  0.00000000000E+00 0. -1.
         11    1    3    3    0    0  0.31074309798E+02  0.11982595107E+02 -0.91475894943E+02  0.97350062509E+02  0.00000000000E+00 0. -1.
        -12    1    3    3    0    0 -0.57482048609E+02  0.32981252994E+01 -0.51097916640E+02  0.76980910801E+02  0.00000000000E+00 0.  1.
          5    1    4    4  501    0 -0.45384080462E+02 -0.20120460492E+01  0.12427453196E+04  0.12435823917E+04  0.41800000000E+01 0.  1.
         -5    1    4    4    0  501  0.37660866574E+02 -0.98276091151E+00  0.14708144317E+03  0.15188722795E+03  0.41800000000E+01 0.  1.
</event>
<event>
11    1  0.9238666E-009  0.1414486E+03  0.7561462E-02  0.1105951E+00
         22   -1    0    0    0    0  0.00000000000E+00  0.00000000000E+00  0.33885542240E+04  0.33885542240E+04  0.00000000000E+00 0.  1.
         22   -1    0    0    0    0 -0.00000000000E+00 -0.00000000000E+00 -0.15181236360E+03  0.15181236360E+03  0.00000000000E+00 0.  1.
        -24    2    1    2    0    0  0.45921719714E+01  0.65232531086E+01 -0.12836184021E+03  0.15068291689E+03  0.78517122629E+02 0.  0.
         25    2    1    2    0    0 -0.53722687272E+02  0.37695788046E+02  0.42749218845E+03  0.45022696861E+03  0.12509057724E+03 0.  0.
         24    2    1    2    0    0  0.49130515300E+02 -0.44219041155E+02  0.29376115122E+04  0.29394567021E+04  0.80468478571E+02 0.  0.
        -11    1    5    5    0    0  0.69502110634E+01 -0.23091560555E+02  0.22908576231E+04  0.22909845427E+04  0.00000000000E+00 0.  1.
         12    1    5    5    0    0  0.42180304237E+02 -0.21127480600E+02  0.64675388909E+03  0.64847215943E+03  0.00000000000E+00 0. -1.
         13    1    3    3    0    0  0.67533599573E+01  0.36002235287E+02 -0.28134295703E+02  0.46187740918E+02  0.00000000000E+00 0. -1.
        -14    1    3    3    0    0 -0.21611879859E+01 -0.29478982178E+02 -0.10022754451E+03  0.10449517597E+03  0.00000000000E+00 0.  1.
          5    1    4    4  501    0 -0.66351290851E+01  0.47568228428E+02  0.49265997014E+02  0.68930197704E+02  0.41800000000E+01 0.  1.
         -5    1    4    4    0  501 -0.47087558187E+02 -0.98724403818E+01  0.37822619144E+03  0.38129677091E+03  0.41800000000E+01 0.  1.
</event>
<event>
11    1  0.9238666E-009  0.1632967E+03  0.7561462E-02  0.1084017E+00
         22   -1    0    0    0    0  0.00000000000E+00  0.00000000000E+00  0.15410218200E+03  0.15410218200E+03  0.00000000000E+00 0. -1.
         22   -1    0    0    0    0 -0.00000000000E+00 -0.00000000000E+00 -0.97928736044E+03  0.97928736044E+03  0.00000000000E+00 0. -1.
         24    2    1    2    0    0  0.55452532191E+01 -0.68379787894E+02 -0.76002532396E+03  0.76746416383E+03  0.81585565446E+02 0.  0.
         25    2    1    2    0    0 -0.26152006741E+02  0.15831736969E+03 -0.11622453204E+03  0.23431544468E+03  0.12508904335E+03 0.  0.
        -24    2    1    2    0    0  0.20606753522E+02 -0.89937581792E+02  0.51064677555E+02  0.13160993392E+03  0.78741136032E+02 0.  0.
        -11    1    3    3    0    0  0.23518307814E+02  0.58025648431E+01 -0.31591471293E+03  0.31684205278E+03  0.00000000000E+00 0.  1.
         12    1    3    3    0    0 -0.17973054595E+02 -0.74182352737E+02 -0.44411061103E+03  0.45062211106E+03  0.00000000000E+00 0. -1.
         11    1    5    5    0    0  0.13809909915E+02 -0.74689029771E+02  0.72119412035E+02  0.10473955496E+03  0.00000000000E+00 0. -1.
        -12    1    5    5    0    0  0.67968436073E+01 -0.15248552022E+02 -0.21054734480E+02  0.26870378966E+02  0.00000000000E+00 0.  1.
          5    1    4    4  501    0 -0.64719176050E+02  0.47069521866E+02 -0.74245004560E+02  0.10924241273E+03  0.41800000000E+01 0. -1.
         -5    1    4    4    0  501  0.38567169309E+02  0.11124784782E+03 -0.41979527478E+02  0.12507303195E+03  0.41800000000E+01 0. -1.
</event>
<event>
11    1  0.9238666E-009  0.3776353E+03  0.7561462E-02  0.9718153E-01
         22   -1    0    0    0    0  0.00000000000E+00  0.00000000000E+00  0.15078448024E+03  0.15078448024E+03  0.00000000000E+00 0. -1.
         22   -1    0    0    0    0 -0.00000000000E+00 -0.00000000000E+00 -0.75913242379E+03  0.75913242379E+03  0.00000000000E+00 0.  1.
        -24    2    1    2    0    0  0.42702961772E+02  0.15153148805E+03 -0.47906506570E+03  0.51076469067E+03  0.81190499729E+02 0.  0.
         25    2    1    2    0    0  0.14888244410E+02  0.32551752106E+02  0.32897534430E+02  0.13420092623E+03  0.12508542858E+03 0.  0.
         24    2    1    2    0    0 -0.57591206182E+02 -0.18408324016E+03 -0.16218041228E+03  0.26495128713E+03  0.81812664603E+02 0.  0.
        -11    1    5    5    0    0 -0.59304661239E+00 -0.10587377490E+03 -0.11809741329E+03  0.15860834449E+03  0.00000000000E+00 0.  1.
         12    1    5    5    0    0 -0.56998159570E+02 -0.78209465253E+02 -0.44082998993E+02  0.10634294264E+03  0.00000000000E+00 0. -1.
         11    1    3    3    0    0  0.45664662202E+02  0.57999749781E+02 -0.13129067268E+03  0.15062029439E+03  0.00000000000E+00 0. -1.
        -12    1    3    3    0    0 -0.29617004300E+01  0.93531738270E+02 -0.34777439302E+03  0.36014439628E+03  0.00000000000E+00 0.  1.
          5    1    4    4  501    0  0.40339660733E+02 -0.21719658348E+02 -0.23615304041E+02  0.51712539792E+02  0.41800000000E+01 0.  1.
         -5    1    4    4    0  501 -0.25451416322E+02  0.54271410454E+02  0.56512838471E+02  0.82488386441E+02  0.41800000000E+01 0.  1.
</event>
<event>
11    1  0.9238666E-009  0.1619591E+03  0.7561462E-02  0.1085249E+00
         22   -1    0    0    0    0  0.00000000000E+00  0.00000000000E+00  0.25752714338E+03  0.25752714338E+03  0.00000000000E+00 0.  1.
         22   -1    0    0    0    0 -0.00000000000E+00 -0.00000000000E+00 -0.23975034173E+03  0.23975034173E+03  0.00000000000E+00 0.  1.
        -24    2    1    2    0    0  0.27777795502E+02 -0.93509474016E+01 -0.10977486678E+03  0.13938004697E+03  0.80729362539E+02 0.  0.
         25    2    1    2    0    0 -0.19165253980E+02 -0.95559776574E+02 -0.19700927733E+02  0.15979457255E+03  0.12508877249E+03 0.  0.
         24    2    1    2    0    0 -0.86125415224E+01  0.10491072398E+03  0.14725259616E+03  0.19810286560E+03  0.80504548964E+02 0.  0.
        -13    1    5    5    0    0 -0.15968859937E+02  0.89079358236E+02  0.15461774751E+03  0.17915575457E+03  0.00000000000E+00 0.  1.
         14    1    5    5    0    0  0.73563184144E+01  0.15831365740E+02 -0.73651513462E+01  0.18947111024E+02  0.00000000000E+00 0. -1.
         13    1    3    3    0    0 -0.21006136859E+02  0.15279769634E+01 -0.27258800865E+01  0.21237300242E+02  0.00000000000E+00 0. -1.
        -14    1    3    3    0    0  0.48783932361E+02 -0.10878924365E+02 -0.10704898669E+03  0.11814274672E+03  0.00000000000E+00 0.  1.
          5    1    4    4  501    0 -0.43177599566E+02 -0.29687747244E+01 -0.43109523158E+02  0.61229258648E+02  0.41800000000E+01 0.  1.
         -5    1    4    4    0  501  0.24012345586E+02 -0.92591001850E+02  0.23408595426E+02  0.98565313899E+02  0.41800000000E+01 0.  1.
</event>
<event>
11    1  0.9238666E-009  0.1905014E+03  0.7561462E-02  0.1061451E+00
         22   -1    0    0    0    0  0.00000000000E+00  0.00000000000E+00  0.85208723807E+03  0.85208723807E+03  0.00000000000E+00 0. -1.
         22   -1    0    0    0    0 -0.00000000000E+00 -0.00000000000E+00 -0.66254304007E+03  0.66254304007E+03  0.00000000000E+00 0. -1.
        -24    2    1    2    0    0 -0.14281067400E+03  0.38196942968E+02 -0.60368503814E+03  0.62677412525E+03  0.80970882046E+02 0.  0.
         25    2    1    2    0    0  0.83698853357E+02 -0.45530846490E+02  0.98055024912E+02  0.18531034698E+03  0.12508629322E+03 0.  0.
         24    2    1    2    0    0  0.59111820647E+02  0.73339035229E+01  0.69517421123E+03  0.70254580592E+03  0.82191434933E+02 0.  0.
        -13    1    5    5    0    0  0.64921633542E+01  0.33280933567E+02  0.13055105348E+03  0.13488271309E+03  0.00000000000E+00 0.  1.
         14    1    5    5    0    0  0.52619657292E+02 -0.25947030044E+02  0.56462315775E+03  0.56766309283E+03  0.00000000000E+00 0. -1.
         11    1    3    3    0    0 -0.36333390425E+02 -0.65830208360E+01 -0.29287934170E+03  0.29519783234E+03  0.00000000000E+00 0. -1.
        -12    1    3    3    0    0 -0.10647728358E+03  0.44779963804E+02 -0.31080569644E+03  0.33157629290E+03  0.00000000000E+00 0.  1.
          5    1    4    4  501    0  0.19331580400E+02  0.43209699328E+02  0.28476982951E+02  0.55400352660E+02  0.41800000000E+01 0. -1.
         -5    1    4    4    0  501  0.64367272957E+02 -0.88740545819E+02  0.69578041961E+02  0.12990999432E+03  0.41800000000E+01 0. -1.
</event>
<event>
11    1  0.9238666E-009  0.1631681E+03  0.7561462E-02  0.1084135E+00
         22   -1    0    0    0    0  0.00000000000E+00  0.00000000000E+00  0.31215033857E+03  0.31215033857E+03  0.00000000000E+00 0.  1.
         22   -1    0    0    0    0 -0.00000000000E+00 -0.00000000000E+00 -0.53252923759E+03  0.53252923759E+03  0.00000000000E+00 0. -1.
         24    2    1    2    0    0  0.10415669682E+02 -0.10168146391E+03 -0.37819681059E+03  0.40010466004E+03  0.81260723372E+02 0.  0.
         25    2    1    2    0    0  0.13460785216E+02  0.11910176818E+03 -0.80608824200E+02  0.19108254418E+03  0.12509329410E+03 0.  0.
        -24    2    1    2    0    0 -0.23876454898E+02 -0.17420304270E+02  0.23842673577E+03  0.25349237195E+03  0.80854945462E+02 0.  0.
        -11    1    3    3    0    0  0.17805076352E+01 -0.62406153240E+02 -0.92535055741E+02  0.11162631729E+03  0.00000000000E+00 0.  1.
         12    1    3    3    0    0  0.86351620466E+01 -0.39275310669E+02 -0.28566175485E+03  0.28847834275E+03  0.00000000000E+00 0. -1.
         11    1    5    5    0    0 -0.23277971158E+01  0.21942478495E+02  0.17805739406E+02  0.28353753855E+02  0.00000000000E+00 0. -1.
        -12    1    5    5    0    0 -0.21548657782E+02 -0.39362782765E+02  0.22062099637E+03  0.22513861809E+03  0.00000000000E+00 0.  1.
          5    1    4    4  501    0  0.41337620159E+02  0.31132495177E+01 -0.55003300974E+02  0.69002367213E+02  0.41800000000E+01 0.  1.
         -5    1    4    4    0  501 -0.27876834943E+02  0.11598851866E+03 -0.25605523226E+02  0.12208017696E+03  0.41800000000E+01 0.  1.
</event>
<event>
11    1  0.9238666E-009  0.1495507E+03  0.7561462E-02  0.1097339E+00
         22   -1    0    0    0    0  0.00000000000E+00  0.00000000000E+00  0.27873452429E+04  0.27873452429E+04  0.00000000000E+00 0. -1.
         22   -1    0    0    0    0 -0.00000000000E+00 -0.00000000000E+00 -0.70534868051E+02  0.70534868051E+02  0.00000000000E+00 0. -1.
        -24    2    1    2    0    0 -0.79297884153E+02 -0.67833154743E+01 -0.32640289433E+01  0.11570148063E+03  0.83916690439E+02 0.  0.
         25    2    1    2    0    0  0.10992013085E+03  0.39581256303E+02  0.72227287980E+03  0.74227369672E+03  0.12507204698E+03 0.  0.
         24    2    1    2    0    0 -0.30622246699E+02 -0.32797940828E+02  0.19978015240E+04  0.19999049336E+04  0.79971165153E+02 0.  0.
        -13    1    5    5    0    0  0.73237635432E+00  0.13728821933E+01 -0.91621708125E-02  0.15560413190E+01  0.00000000000E+00 0.  1.
         14    1    5    5    0    0 -0.31354623053E+02 -0.34170823022E+02  0.19978106862E+04  0.19983488923E+04  0.00000000000E+00 0. -1.
         11    1    3    3    0    0 -0.96823208428E+02 -0.70072158550E+01 -0.83959840402E+01  0.97438838829E+02  0.00000000000E+00 0. -1.
        -12    1    3    3    0    0  0.17525324275E+02  0.22390038075E+00  0.51319550969E+01  0.18262641798E+02  0.00000000000E+00 0.  1.
          5    1    4    4  501    0  0.39518546078E+01 -0.16293582544E+02  0.99578870534E+01  0.19943166788E+02  0.41800000000E+01 0. -1.
         -5    1    4    4    0  501  0.10596827624E+03  0.55874838847E+02  0.71231499275E+03  0.72233052994E+03  0.41800000000E+01 0. -1.
</event>
<event>
11    1  0.9238666E-009  0.1407964E+03  0.7561462E-02  0.1106672E+00
         22   -1    0    0    0    0  0.00000000000E+00  0.00000000000E+00  0.11012952678E+04  0.11012952678E+04  0.00000000000E+00 0. -1.
         22   -1    0    0    0    0 -0.00000000000E+00 -0.00000000000E+00 -0.45975456483E+03  0.45975456483E+03  0.00000000000E+00 0. -1.
        -24    2    1    2    0    0 -0.61720569727E+02 -0.57141422368E+01 -0.35042968902E+03  0.36521705904E+03  0.82100262614E+02 0.  0.
         25    2    1    2    0    0  0.86820177176E+02 -0.16315025001E+02 -0.41572092170E+02  0.15868380982E+03  0.12509352280E+03 0.  0.
         24    2    1    2    0    0 -0.25099607449E+02  0.22029167238E+02  0.10335424842E+04  0.10371489638E+04  0.79703399988E+02 0.  0.
        -13    1    5    5    0    0  0.26073467816E+02  0.23388684871E+02  0.45491753845E+03  0.45626398400E+03  0.00000000000E+00 0.  1.
         14    1    5    5    0    0 -0.51173075265E+02 -0.13595176331E+01  0.57862494571E+03  0.58088497976E+03  0.00000000000E+00 0. -1.
         11    1    3    3    0    0 -0.72215336960E+02  0.69012777032E+01 -0.33474964309E+03  0.34252008127E+03  0.00000000000E+00 0. -1.
        -12    1    3    3    0    0  0.10494767234E+02 -0.12615419940E+02 -0.15680045927E+02  0.22696977769E+02  0.00000000000E+00 0.  1.
          5    1    4    4  501    0  0.12889514457E+02  0.51155733563E+02 -0.12562658535E+02  0.54390637510E+02  0.41800000000E+01 0. -1.
         -5    1    4    4    0  501  0.73930662719E+02 -0.67470758565E+02 -0.29009433635E+02  0.10429317231E+03  0.41800000000E+01 0. -1.
</event>
<event>
11    1  0.9238666E-009  0.1324776E+03  0.7561462E-02  0.1116262E+00
         22   -1    0    0    0    0  0.00000000000E+00  0.00000000000E+00  0.76799205876E+02  0.76799205876E+02  0.00000000000E+00 0.  1.
         22   -1    0    0    0    0 -0.00000000000E+00 -0.00000000000E+00 -0.17646400378E+04  0.17646400378E+04  0.00000000000E+00 0.  1.
         24    2    1    2    0    0 -0.21625448997E+02 -0.38753548737E+02 -0.15078942977E+04  0.15106219017E+04  0.79144294308E+02 0.  0.
         25    2    1    2    0    0  0.28641549443E+02  0.21924261248E+02 -0.20602333805E+03  0.24370778556E+03  0.12508739879E+03 0.  0.
        -24    2    1    2    0    0 -0.70161004468E+01  0.16829287490E+02  0.26076803797E+02  0.87109556430E+02  0.81090224702E+02 0.  0.
        -13    1    3    3    0    0 -0.51274541328E+02 -0.23074111611E+02 -0.83375424178E+03  0.83564802931E+03  0.00000000000E+00 0.  1.
         14    1    3    3    0    0  0.29649092331E+02 -0.15679437126E+02 -0.67414005590E+03  0.67497387238E+03  0.00000000000E+00 0. -1.
         11    1    5    5    0    0 -0.37570397535E+02  0.29824771273E+02  0.60883887080E+01  0.48354112850E+02  0.00000000000E+00 0. -1.
        -12    1    5    5    0    0  0.30554297088E+02 -0.12995483783E+02  0.19988415089E+02  0.38755443580E+02  0.00000000000E+00 0.  1.
          5    1    4    4  501    0 -0.37048490446E+02 -0.50085897982E+01 -0.16125381642E+02  0.40928925581E+02  0.41800000000E+01 0. -1.
         -5    1    4    4    0  501  0.65690039890E+02  0.26932851046E+02 -0.18989795641E+03  0.20277885998E+03  0.41800000000E+01 0. -1.
</event>
<event>
11    1  0.9238666E-009  0.1489211E+03  0.7561462E-02  0.1097986E+00
         22   -1    0    0    0    0  0.00000000000E+00  0.00000000000E+00  0.18834179924E+04  0.18834179924E+04  0.00000000000E+00 0.  1.
         22   -1    0    0    0    0 -0.00000000000E+00 -0.00000000000E+00 -0.91922896471E+03  0.91922896471E+03  0.00000000000E+00 0. -1.
        -24    2    1    2    0    0  0.48518849838E+02 -0.10359429458E+01 -0.87337356446E+03  0.87848237458E+03  0.81208049961E+02 0.  0.
         25    2    1    2    0    0  0.30176174976E+02 -0.24725971794E+02  0.62155514256E+02  0.14502762051E+03  0.12509087713E+03 0.  0.
         24    2    1    2    0    0 -0.78695024815E+02  0.25761914740E+02  0.17754070779E+04  0.17791369620E+04  0.80009088256E+02 0.  0.
        -11    1    5    5    0    0 -0.90628498474E+02  0.83633890767E+01  0.15736636541E+04  0.15762933633E+04  0.00000000000E+00 0.  1.
         12    1    5    5    0    0  0.11933473659E+02  0.17398525663E+02  0.20174342383E+03  0.20284359874E+03  0.00000000000E+00 0. -1.
         11    1    3    3    0    0  0.58515483040E+02 -0.24041577160E+02 -0.45751292956E+03  0.46186593283E+03  0.00000000000E+00 0. -1.
        -12    1    3    3    0    0 -0.99966332017E+01  0.23005634214E+02 -0.41586063490E+03  0.41661644175E+03  0.00000000000E+00 0.  1.
          5    1    4    4  501    0 -0.44895240979E+01 -0.38582737294E+02  0.90101759974E+02  0.98206837817E+02  0.41800000000E+01 0.  1.
         -5    1    4    4    0  501  0.34665699074E+02  0.13856765500E+02 -0.27946245718E+02  0.46820782695E+02  0.41800000000E+01 0.  1.
</event>
<event>
11    1  0.9238666E-009  0.1338463E+03  0.7561462E-02  0.1114631E+00
         22   -1    0    0    0    0  0.00000000000E+00  0.00000000000E+00  0.75182685371E+03  0.75182685371E+03  0.00000000000E+00 0.  1.
         22   -1    0    0    0    0 -0.00000000000E+00 -0.00000000000E+00 -0.62800709584E+03  0.62800709584E+03  0.00000000000E+00 0.  1.
        -24    2    1    2    0    0 -0.47396605926E+02  0.66313620902E+01 -0.60740294207E+03  0.61464223747E+03  0.80971185152E+02 0.  0.
         25    2    1    2    0    0  0.27803545007E+02  0.94395057359E+01  0.30954055535E+03  0.33514895429E+03  0.12508926722E+03 0.  0.
         24    2    1    2    0    0  0.19593060919E+02 -0.16070867826E+02  0.42168214460E+03  0.43004275780E+03  0.80490879201E+02 0.  0.
        -11    1    5    5    0    0  0.37131222452E+02 -0.13154344654E+02  0.40030484123E+03  0.40223839993E+03  0.00000000000E+00 0.  1.
         12    1    5    5    0    0 -0.17538161532E+02 -0.29165231726E+01  0.21377303362E+02  0.27804357867E+02  0.00000000000E+00 0. -1.
         11    1    3    3    0    0 -0.38488745495E+01  0.31512090532E+02 -0.10375226905E+03  0.10850050238E+03  0.00000000000E+00 0. -1.
        -12    1    3    3    0    0 -0.43547731377E+02 -0.24880728442E+02 -0.50365067303E+03  0.50614173509E+03  0.00000000000E+00 0.  1.
          5    1    4    4  501    0  0.47993802938E+02  0.57187999992E+02  0.15505884374E+03  0.17214700081E+03  0.41800000000E+01 0. -1.
         -5    1    4    4    0  501 -0.20190257931E+02 -0.47748494256E+02  0.15448171160E+03  0.16300195348E+03  0.41800000000E+01 0. -1.
</event>
<event>
11    1  0.9238666E-009  0.1521929E+03  0.7561462E-02  0.1094659E+00
         22   -1    0    0    0    0  0.00000000000E+00  0.00000000000E+00  0.11794099395E+04  0.11794099395E+04  0.00000000000E+00 0.  1.
         22   -1    0    0    0    0 -0.00000000000E+00 -0.00000000000E+00 -0.14270654354E+03  0.14270654354E+03  0.00000000000E+00 0.  1.
         24    2    1    2    0    0  0.53685621038E+01  0.39738678989E+02 -0.11080337600E+03  0.14253510662E+03  0.80192795305E+02 0.  0.
         25    2    1    2    0    0  0.65446948039E+02 -0.74434256867E+02  0.74167848481E+03  0.75865570642E+03  0.12509094474E+03 0.  0.
        -24    2    1    2    0    0 -0.70815510143E+02  0.34695577878E+02  0.40582828712E+03  0.42092566997E+03  0.79140390546E+02 0.  0.
        -11    1    3    3    0    0 -0.23133451172E+02  0.23988785072E+02 -0.10407850847E+03  0.10928382450E+03  0.00000000000E+00 0.  1.
         12    1    3    3    0    0  0.28502013276E+02  0.15749893917E+02 -0.67248675309E+01  0.33251282118E+02  0.00000000000E+00 0. -1.
         13    1    5    5    0    0 -0.30125269076E+01  0.12890845155E+02  0.55403020136E+01  0.14350754461E+02  0.00000000000E+00 0. -1.
        -14    1    5    5    0    0 -0.67802983236E+02  0.21804732723E+02  0.40028798510E+03  0.40657491551E+03  0.00000000000E+00 0.  1.
          5    1    4    4  501    0  0.85390475088E+02 -0.96447230169E+02  0.57137814387E+03  0.58573377667E+03  0.41800000000E+01 0.  1.
         -5    1    4    4    0  501 -0.19943527049E+02  0.22012973301E+02  0.17030034094E+03  0.17292192975E+03  0.41800000000E+01 0.  1.
</event>
<event>
11    1  0.9238666E-009  0.1306149E+03  0.7561462E-02  0.1118516E+00
         22   -1    0    0    0    0  0.00000000000E+00  0.00000000000E+00  0.39057381672E+03  0.39057381672E+03  0.00000000000E+00 0.  1.
         22   -1    0    0    0    0 -0.00000000000E+00 -0.00000000000E+00 -0.63691749384E+03  0.63691749384E+03  0.00000000000E+00 0.  1.
         24    2    1    2    0    0 -0.88993381144E+01  0.14832712514E+02 -0.47001130275E+03  0.47635123836E+03  0.75502781396E+02 0.  0.
         25    2    1    2    0    0 -0.21487965996E+02 -0.36845070416E+02 -0.12988783068E+03  0.18530471654E+03  0.12509075713E+03 0.  0.
        -24    2    1    2    0    0  0.30387304111E+02  0.22012357903E+02  0.35355545630E+03  0.36583535565E+03  0.86174907126E+02 0.  0.
        -11    1    3    3    0    0 -0.23116080687E+02  0.32734279638E+02 -0.41281964403E+03  0.41476010506E+03  0.00000000000E+00 0.  1.
         12    1    3    3    0    0  0.14216742572E+02 -0.17901567124E+02 -0.57191658717E+02  0.61591133304E+02  0.00000000000E+00 0. -1.
         13    1    5    5    0    0  0.35266783046E+02  0.39124054405E+02  0.11355940803E+03  0.12518057665E+03  0.00000000000E+00 0. -1.
        -14    1    5    5    0    0 -0.48794789355E+01 -0.17111696502E+02  0.23999604827E+03  0.24065477900E+03  0.00000000000E+00 0.  1.
          5    1    4    4  501    0 -0.11856107077E+02  0.35946930571E+02 -0.24411095477E+01  0.38159933285E+02  0.41800000000E+01 0.  1.
         -5    1    4    4    0  501 -0.96318589190E+01 -0.72792000988E+02 -0.12744672113E+03  0.14714478326E+03  0.41800000000E+01 0.  1.
</event>
<event>
11    1  0.9238666E-009  0.1395118E+03  0.7561462E-02  0.1108105E+00
         22   -1    0    0    0    0  0.00000000000E+00  0.00000000000E+00  0.16567990465E+04  0.16567990465E+04  0.00000000000E+00 0.  1.
         22   -1    0    0    0    0 -0.00000000000E+00 -0.00000000000E+00 -0.10884884448E+04  0.10884884448E+04  0.00000000000E+00 0. -1.
        -24    2    1    2    0    0 -0.96077324434E+01 -0.41264405361E+02 -0.10232021115E+04  0.10271569635E+04  0.79459467702E+02 0.  0.
         25    2    1    2    0    0 -0.14564861625E+02  0.97024439028E+02  0.41350611557E+02  0.16426590156E+03  0.12509011302E+03 0.  0.
         24    2    1    2    0    0  0.24172594069E+02 -0.55760033667E+02  0.15501621017E+04  0.15538646262E+04  0.88313302078E+02 0.  0.
        -13    1    5    5    0    0  0.49868401878E+02 -0.48888409222E+02  0.13668480442E+04  0.13686308889E+04  0.00000000000E+00 0.  1.
         14    1    5    5    0    0 -0.25695807809E+02 -0.68716244452E+01  0.18331405752E+03  0.18523373733E+03  0.00000000000E+00 0. -1.
         13    1    3    3    0    0  0.19778042528E+00 -0.29393885543E+02 -0.99128041425E+03  0.99171613847E+03  0.00000000000E+00 0. -1.
        -14    1    3    3    0    0 -0.98055128687E+01 -0.11870519817E+02 -0.31921697265E+02  0.35440825042E+02  0.00000000000E+00 0.  1.
          5    1    4    4  501    0 -0.35747548155E+02  0.45303073550E+02  0.78135221308E+02  0.97225721294E+02  0.41800000000E+01 0.  1.
         -5    1    4    4    0  501  0.21182686530E+02  0.51721365478E+02 -0.36784609751E+02  0.67040180266E+02  0.41800000000E+01 0.  1.
</event>
<event>
11    1  0.9238666E-009  0.1419263E+03  0.7561462E-02  0.1105426E+00
         22   -1    0    0    0    0  0.00000000000E+00  0.00000000000E+00  0.15091330005E+03  0.15091330005E+03  0.00000000000E+00 0.  1.
         22   -1    0    0    0    0 -0.00000000000E+00 -0.00000000000E+00 -0.27720882995E+04  0.27720882995E+04  0.00000000000E+00 0. -1.
        -24    2    1    2    0    0 -0.86573353406E+01 -0.68939662719E+02 -0.24832828127E+04  0.24854856310E+04  0.78215520163E+02 0.  0.
         25    2    1    2    0    0  0.57326362607E+02  0.19021658319E+02 -0.24986542967E+03  0.28588161767E+03  0.12508969197E+03 0.  0.
         24    2    1    2    0    0 -0.48669027267E+02  0.49918004399E+02  0.11197324294E+03  0.15163435085E+03  0.74796309027E+02 0.  0.
        -13    1    5    5    0    0 -0.24396969307E+02  0.51778023752E+02  0.11363304869E+03  0.12723460854E+03  0.00000000000E+00 0.  1.
         14    1    5    5    0    0 -0.24272057960E+02 -0.18600193523E+01 -0.16598057516E+01  0.24399742309E+02  0.00000000000E+00 0. -1.
         13    1    3    3    0    0 -0.40663728571E+02 -0.28542416583E+02 -0.15344480397E+04  0.15352520949E+04  0.00000000000E+00 0. -1.
        -14    1    3    3    0    0  0.32006393231E+02 -0.40397246136E+02 -0.94883477300E+03  0.95023353612E+03  0.00000000000E+00 0.  1.
          5    1    4    4  501    0  0.43948413624E+02 -0.30020157382E+02 -0.22082852780E+03  0.22719019345E+03  0.41800000000E+01 0. -1.
         -5    1    4    4    0  501  0.13377948984E+02  0.49041815701E+02 -0.29036901879E+02  0.58691424220E+02  0.41800000000E+01 0. -1.
</event>
<event>
11    1  0.9238666E-009  0.1636400E+03  0.7561462E-02  0.1083703E+00
         22   -1    0    0    0    0  0.00000000000E+00  0.00000000000E+00  0.21184546442E+04  0.21184546442E+04  0.00000000000E+00 0. -1.
         22   -1    0    0    0    0 -0.00000000000E+00 -0.00000000000E+00 -0.25241876747E+03  0.25241876747E+03  0.00000000000E+00 0.  1.
        -24    2    1    2    0    0 -0.10502829186E+03 -0.44888015949E+01 -0.22021560106E+03  0.25708653138E+03  0.80916513986E+02 0.  0.
         25    2    1    2    0    0  0.11720588693E+03  0.68755605375E+02  0.72235677334E+03  0.74559468515E+03  0.12509026072E+03 0.  0.
         24    2    1    2    0    0 -0.12177595069E+02 -0.64266803780E+02  0.13638947044E+04  0.13681921951E+04  0.86386353838E+02 0.  0.
        -11    1    5    5    0    0  0.25758848635E+02 -0.20128318493E+02  0.90922993778E+03  0.90981742523E+03  0.00000000000E+00 0.  1.
         12    1    5    5    0    0 -0.37936443704E+02 -0.44138485287E+02  0.45466476663E+03  0.45837476988E+03  0.00000000000E+00 0. -1.
         11    1    3    3    0    0 -0.10073599252E+03 -0.28768382438E+02 -0.19748024194E+03  0.22354821845E+03  0.00000000000E+00 0. -1.
        -12    1    3    3    0    0 -0.42922993356E+01  0.24279580843E+02 -0.22735359122E+02  0.33538312926E+02  0.00000000000E+00 0.  1.
          5    1    4    4  501    0  0.11847159145E+03  0.14608347057E+02  0.59921214859E+03  0.61100048543E+03  0.41800000000E+01 0.  1.
         -5    1    4    4    0  501 -0.12657045199E+01  0.54147258318E+02  0.12314462475E+03  0.13459419971E+03  0.41800000000E+01 0.  1.
</event>
<event>
11    1  0.9238666E-009  0.1640263E+03  0.7561462E-02  0.1083350E+00
         22   -1    0    0    0    0  0.00000000000E+00  0.00000000000E+00  0.81359198071E+03  0.81359198071E+03  0.00000000000E+00 0.  1.
         22   -1    0    0    0    0 -0.00000000000E+00 -0.00000000000E+00 -0.70461122960E+03  0.70461122960E+03  0.00000000000E+00 0. -1.
         24    2    1    2    0    0 -0.43234787408E+02  0.42463160126E+02 -0.60783449329E+03  0.61602736143E+03  0.79715569285E+02 0.  0.
         25    2    1    2    0    0  0.10240561761E+03  0.46506954427E+02 -0.33835548070E+01  0.16825418349E+03  0.12509282349E+03 0.  0.
        -24    2    1    2    0    0 -0.59170830202E+02 -0.88970114553E+02  0.72019879921E+03  0.73392166540E+03  0.92400390311E+02 0.  0.
        -11    1    3    3    0    0  0.12789074342E+02 -0.18790554948E+01 -0.19658152373E+02  0.23527308108E+02  0.00000000000E+00 0.  1.
         12    1    3    3    0    0 -0.56023861750E+02  0.44342215621E+02 -0.58817634092E+03  0.59250005332E+03  0.00000000000E+00 0. -1.
         11    1    5    5    0    0 -0.44907454581E+02 -0.67643097215E+02  0.24647846727E+03  0.25950703825E+03  0.00000000000E+00 0. -1.
        -12    1    5    5    0    0 -0.14263375621E+02 -0.21327017338E+02  0.47372033194E+03  0.47441462714E+03  0.00000000000E+00 0.  1.
          5    1    4    4  501    0 -0.20691356994E+02  0.37836968898E+02  0.86988011060E+01  0.44191741426E+02  0.41800000000E+01 0.  1.
         -5    1    4    4    0  501  0.12309697460E+03  0.86699855296E+01 -0.12082355913E+02  0.12406244206E+03  0.41800000000E+01 0.  1.
</event>
<event>
11    1  0.9238666E-009  0.1464995E+03  0.7561462E-02  0.1100510E+00
         22   -1    0    0    0    0  0.00000000000E+00  0.00000000000E+00  0.56991756323E+03  0.56991756323E+03  0.00000000000E+00 0.  1.
         22   -1    0    0    0    0 -0.00000000000E+00 -0.00000000000E+00 -0.69164843831E+03  0.69164843831E+03  0.00000000000E+00 0. -1.
         24    2    1    2    0    0 -0.36340960879E+02  0.85669926011E+01 -0.64940572037E+03  0.65540931003E+03  0.80246590079E+02 0.  0.
         25    2    1    2    0    0 -0.20373976205E+02  0.51244546497E+02  0.11775542978E+03  0.18043162300E+03  0.12509247334E+03 0.  0.
        -24    2    1    2    0    0  0.56714937083E+02 -0.59811539098E+02  0.40991941551E+03  0.42572506851E+03  0.80086843146E+02 0.  0.
        -11    1    3    3    0    0 -0.13237019474E+02 -0.97899353500E+01 -0.22873657143E+02  0.28182720057E+02  0.00000000000E+00 0.  1.
         12    1    3    3    0    0 -0.23103941404E+02  0.18356927951E+02 -0.62653206323E+03  0.62722658997E+03  0.00000000000E+00 0. -1.
         11    1    5    5    0    0 -0.17361084580E+02  0.29122171505E+01  0.73853838526E+02  0.75922840644E+02  0.00000000000E+00 0. -1.
        -12    1    5    5    0    0  0.74076021663E+02 -0.62723756249E+02  0.33606557699E+03  0.34980222786E+03  0.00000000000E+00 0.  1.
          5    1    4    4  501    0 -0.38971383256E+02  0.44577210042E+02 -0.16004114467E+01  0.59379542646E+02  0.41800000000E+01 0.  1.
         -5    1    4    4    0  501  0.18597407051E+02  0.66673364550E+01  0.11935584123E+03  0.12105208036E+03  0.41800000000E+01 0.  1.
</event>
<event>
11    1  0.9238666E-009  0.1381023E+03  0.7561462E-02  0.1109696E+00
         22   -1    0    0    0    0  0.00000000000E+00  0.00000000000E+00  0.83902207386E+03  0.83902207386E+03  0.00000000000E+00 0. -1.
         22   -1    0    0    0    0 -0.00000000000E+00 -0.00000000000E+00 -0.65397100713E+03  0.65397100713E+03  0.00000000000E+00 0. -1.
         24    2    1    2    0    0  0.80224964318E+01  0.55056937698E+01 -0.61215502392E+03  0.61735683464E+03  0.79378932047E+02 0.  0.
         25    2    1    2    0    0 -0.56198341380E+02 -0.37246025216E+02  0.10482770460E+03  0.17658443425E+03  0.12509074626E+03 0.  0.
        -24    2    1    2    0    0  0.48175844948E+02  0.31740331447E+02  0.69237838604E+03  0.69905181210E+03  0.77183196800E+02 0.  0.
        -13    1    3    3    0    0 -0.16621287601E+02  0.28542041352E+02 -0.13389678098E+03  0.13791034509E+03  0.00000000000E+00 0.  1.
         14    1    3    3    0    0  0.24643784033E+02 -0.23036347582E+02 -0.47825824294E+03  0.47944648955E+03  0.00000000000E+00 0. -1.
         11    1    5    5    0    0  0.40210490990E+02  0.12685420368E+02  0.65493095173E+03  0.65628679326E+03  0.00000000000E+00 0. -1.
        -12    1    5    5    0    0  0.79653539586E+01  0.19054911078E+02  0.37447434314E+02  0.42765018842E+02  0.00000000000E+00 0.  1.
          5    1    4    4  501    0 -0.35951383329E+02 -0.52460875398E+02  0.12736739653E+03  0.14242391481E+03  0.41800000000E+01 0. -1.
         -5    1    4    4    0  501 -0.20246958051E+02  0.15214850182E+02 -0.22539691928E+02  0.34160519443E+02  0.41800000000E+01 0. -1.
</event>
<event>
11    1  0.9238666E-009  0.1423292E+03  0.7561462E-02  0.1104985E+00
         22   -1    0    0    0    0  0.00000000000E+00  0.00000000000E+00  0.33377765569E+03  0.33377765569E+03  0.00000000000E+00 0. -1.
         22   -1    0    0    0    0 -0.00000000000E+00 -0.00000000000E+00 -0.14304087231E+04  0.14304087231E+04  0.00000000000E+00 0.  1.
         24    2    1    2    0    0 -0.48415338399E+02  0.50110741469E+02 -0.13461860959E+04  0.13503363565E+04  0.79599871973E+02 0.  0.
         25    2    1    2    0    0  0.89959869536E+01 -0.20569372870E+02 -0.19770493648E+02  0.12861972021E+03  0.12509249828E+03 0.  0.
        -24    2    1    2    0    0  0.39419351445E+02 -0.29541368599E+02  0.26932552212E+03  0.28523030204E+03  0.79959431015E+02 0.  0.
        -13    1    3    3    0    0 -0.34284263925E+02  0.71770239337E+02 -0.96353559506E+03  0.96681291931E+03  0.00000000000E+00 0.  1.
         14    1    3    3    0    0 -0.14131074474E+02 -0.21659497868E+02 -0.38265050082E+03  0.38352343722E+03  0.00000000000E+00 0. -1.
         13    1    5    5    0    0  0.28430354899E+02 -0.38126283769E+02  0.26686531966E+03  0.27107009690E+03  0.00000000000E+00 0. -1.
        -14    1    5    5    0    0  0.10988996546E+02  0.85849151702E+01  0.24602024621E+01  0.14160205144E+02  0.00000000000E+00 0.  1.
          5    1    4    4  501    0 -0.33647253909E+02 -0.59944742168E+02 -0.12098150918E+02  0.69923869064E+02  0.41800000000E+01 0. -1.
         -5    1    4    4    0  501  0.42643240863E+02  0.39375369298E+02 -0.76723427297E+01  0.58695851145E+02  0.41800000000E+01 0. -1.
</event>
<event>
11    1  0.9238666E-009  0.1983680E+03  0.7561462E-02  0.1055684E+00
         22   -1    0    0    0    0  0.00000000000E+00  0.00000000000E+00  0.12716550390E+04  0.12716550390E+04  0.00000000000E+00 0. -1.
         22   -1    0    0    0    0 -0.00000000000E+00 -0.00000000000E+00 -0.48749601907E+03  0.48749601907E+03  0.00000000000E+00 0. -1.
        -24    2    1    2    0    0 -0.17765562092E+02 -0.15296847305E+03 -0.43971345293E+03  0.47286582443E+03  0.80865309528E+02 0.  0.
         25    2    1    2    0    0 -0.10961599519E+02  0.15528111987E+03  0.31364914997E+03  0.37182756981E+03  0.12509024559E+03 0.  0.
         24    2    1    2    0    0  0.28727161611E+02 -0.23126468240E+01  0.91022332295E+03  0.91445766388E+03  0.83040491520E+02 0.  0.
        -11    1    5    5    0    0 -0.20567384999E+02 -0.17892368945E+02  0.14846303878E+03  0.15094511611E+03  0.00000000000E+00 0.  1.
         12    1    5    5    0    0  0.49294546610E+02  0.15579722121E+02  0.76176028417E+03  0.76351254777E+03  0.00000000000E+00 0. -1.
         13    1    3    3    0    0 -0.33369256928E+02 -0.15280934095E+03 -0.41644845974E+03  0.44485224694E+03  0.00000000000E+00 0. -1.
        -14    1    3    3    0    0  0.15603694836E+02 -0.15913209267E+00 -0.23264993191E+02  0.28013577489E+02  0.00000000000E+00 0.  1.
          5    1    4    4  501    0 -0.58891093110E+02  0.33521143158E+02  0.12415861441E+03  0.14150852207E+03  0.41800000000E+01 0.  1.
         -5    1    4    4    0  501  0.47929493591E+02  0.12175997671E+03  0.18949053556E+03  0.23031904774E+03  0.41800000000E+01 0.  1.
</event>
<event>
11    1  0.9238666E-009  0.1428457E+03  0.7561462E-02  0.1104422E+00
         22   -1    0    0    0    0  0.00000000000E+00  0.00000000000E+00  0.15270370150E+03  0.15270370150E+03  0.00000000000E+00 0. -1.
         22   -1    0    0    0    0 -0.00000000000E+00 -0.00000000000E+00 -0.13494779853E+04  0.13494779853E+04  0.00000000000E+00 0.  1.
        -24    2    1    2    0    0 -0.68835358425E+02  0.68055144566E+02 -0.49622535168E+03  0.51266770112E+03  0.84963302935E+02 0.  0.
         25    2    1    2    0    0  0.62933919740E+02  0.11969856993E+02 -0.81604751360E+03  0.82806157837E+03  0.12509387430E+03 0.  0.
         24    2    1    2    0    0  0.59014386844E+01 -0.80025001559E+02  0.11549858147E+03  0.16145240734E+03  0.79297727972E+02 0.  0.
        -11    1    5    5    0    0 -0.16639683726E+02 -0.16319032786E+02 -0.44977814543E+01  0.23736468642E+02  0.00000000000E+00 0.  1.
         12    1    5    5    0    0  0.22541122411E+02 -0.63705968773E+02  0.11999636292E+03  0.13771593870E+03  0.00000000000E+00 0. -1.
         13    1    3    3    0    0 -0.51599458838E+02  0.52264909841E+02 -0.16487033612E+03  0.18048920379E+03  0.00000000000E+00 0. -1.
        -14    1    3    3    0    0 -0.17235899586E+02  0.15790234724E+02 -0.33135501556E+03  0.33217849733E+03  0.00000000000E+00 0.  1.
          5    1    4    4  501    0  0.52026596861E+02  0.34225175552E+02 -0.16316167523E+03  0.17469211227E+03  0.41800000000E+01 0. -1.
         -5    1    4    4    0  501  0.10907322879E+02 -0.22255318558E+02 -0.65288583837E+03  0.65336946610E+03  0.41800000000E+01 0. -1.
</event>
<event>
11    1  0.9238666E-009  0.2295841E+03  0.7561462E-02  0.1035375E+00
         22   -1    0    0    0    0  0.00000000000E+00  0.00000000000E+00  0.10384594487E+04  0.10384594487E+04  0.00000000000E+00 0. -1.
         22   -1    0    0    0    0 -0.00000000000E+00 -0.00000000000E+00 -0.27169345420E+04  0.27169345420E+04  0.00000000000E+00 0. -1.
         24    2    1    2    0    0  0.13918825810E+03  0.99935388178E+02 -0.23927663171E+04  0.24002783777E+04  0.81518030926E+02 0.  0.
         25    2    1    2    0    0 -0.22799361600E+03  0.71747367789E+02 -0.25036930230E+03  0.36804967704E+03  0.12508798307E+03 0.  0.
        -24    2    1    2    0    0  0.88805357902E+02 -0.17168275597E+03  0.96466052617E+03  0.98706593595E+03  0.79798940310E+02 0.  0.
        -11    1    3    3    0    0  0.81998790133E+02  0.10303221598E+03 -0.17647443383E+04  0.17696502532E+04  0.00000000000E+00 0.  1.
         12    1    3    3    0    0  0.57189467967E+02 -0.30968278037E+01 -0.62802197883E+03  0.63062812456E+03  0.00000000000E+00 0. -1.
         11    1    5    5    0    0  0.64975923508E+02 -0.15974498000E+03  0.91067273633E+03  0.92685768161E+03  0.00000000000E+00 0. -1.
        -12    1    5    5    0    0  0.23829434394E+02 -0.11937775965E+02  0.53987789845E+02  0.60208254342E+02  0.00000000000E+00 0.  1.
          5    1    4    4  501    0 -0.21701851349E+03  0.33882588882E+02 -0.24325241780E+03  0.32777168302E+03  0.41800000000E+01 0.  1.
         -5    1    4    4    0  501 -0.10975102514E+02  0.37864778907E+02 -0.71168845058E+01  0.40277994015E+02  0.41800000000E+01 0.  1.
</event>
<event>
11    1  0.9238666E-009  0.1815317E+03  0.7561462E-02  0.1068411E+00
         22   -1    0    0    0    0  0.00000000000E+00  0.00000000000E+00  0.98485382526E+03  0.98485382526E+03  0.00000000000E+00 0.  1.
         22   -1    0    0    0    0 -0.00000000000E+00 -0.00000000000E+00 -0.76492639864E+03  0.76492639864E+03  0.00000000000E+00 0.  1.
        -24    2    1    2    0    0 -0.52338280551E+02 -0.12099405390E+03 -0.70116965777E+03  0.71794897162E+03  0.80205861257E+02 0.  0.
         25    2    1    2    0    0  0.81214606169E+02  0.10238902949E+03  0.10347531385E+03  0.20840782803E+03  0.12508939440E+03 0.  0.
         24    2    1    2    0    0 -0.28876325618E+02  0.18605024411E+02  0.81762177054E+03  0.82342342426E+03  0.91327908355E+02 0.  0.
        -13    1    5    5    0    0  0.31888888797E+02 -0.42377889374E+01  0.31104557999E+03  0.31270467364E+03  0.00000000000E+00 0.  1.
         14    1    5    5    0    0 -0.60765214415E+02  0.22842813348E+02  0.50657619055E+03  0.51071875062E+03  0.00000000000E+00 0. -1.
         11    1    3    3    0    0  0.11719211321E+02 -0.80187906977E+01 -0.20116075995E+02  0.24623107677E+02  0.00000000000E+00 0. -1.
        -12    1    3    3    0    0 -0.64057491872E+02 -0.11297526320E+03 -0.68105358177E+03  0.69332586394E+03  0.00000000000E+00 0.  1.
          5    1    4    4  501    0  0.94464085317E+02  0.47305220975E+02  0.10835227194E+03  0.15139000820E+03  0.41800000000E+01 0. -1.
         -5    1    4    4    0  501 -0.13249479149E+02  0.55083808514E+02 -0.48769580877E+01  0.57017819832E+02  0.41800000000E+01 0. -1.
</event>
<event>
11    1  0.9238666E-009  0.1465391E+03  0.7561462E-02  0.1100468E+00
         22   -1    0    0    0    0  0.00000000000E+00  0.00000000000E+00  0.24174670181E+03  0.24174670181E+03  0.00000000000E+00 0. -1.
         22   -1    0    0    0    0 -0.00000000000E+00 -0.00000000000E+00 -0.13378682828E+03  0.13378682828E+03  0.00000000000E+00 0.  1.
        -24    2    1    2    0    0 -0.31541102934E+02  0.68244487203E+02  0.29805294850E+02  0.11366093932E+03  0.79864274358E+02 0.  0.
         25    2    1    2    0    0 -0.96972836350E+01 -0.83540834606E+02  0.16308682739E+02  0.15161342003E+03  0.12509015806E+03 0.  0.
         24    2    1    2    0    0  0.41238386569E+02  0.15296347402E+02  0.61845895943E+02  0.11025917074E+03  0.79984918060E+02 0.  0.
        -11    1    5    5    0    0 -0.66656386541E+01 -0.96298174024E+00 -0.16034170251E+02  0.17391166957E+02  0.00000000000E+00 0.  1.
         12    1    5    5    0    0  0.47904025223E+02  0.16259329142E+02  0.77880066193E+02  0.92868003785E+02  0.00000000000E+00 0. -1.
         11    1    3    3    0    0 -0.55641246935E+02  0.59491412353E+02  0.32868796508E+02  0.87838114097E+02  0.00000000000E+00 0. -1.
        -12    1    3    3    0    0  0.24100144001E+02  0.87530748504E+01 -0.30635016579E+01  0.25822825225E+02  0.00000000000E+00 0.  1.
          5    1    4    4  501    0 -0.42795252798E+02 -0.30661908176E+02 -0.40954155865E+02  0.66830393966E+02  0.41800000000E+01 0. -1.
         -5    1    4    4    0  501  0.33097969162E+02 -0.52878926429E+02  0.57262838604E+02  0.84783026061E+02  0.41800000000E+01 0. -1.
</event>
<event>
11    1  0.9238666E-009  0.1784489E+03  0.7561462E-02  0.1070904E+00
         22   -1    0    0    0    0  0.00000000000E+00  0.00000000000E+00  0.17586095080E+03  0.17586095080E+03  0.00000000000E+00 0.  1.
         22   -1    0    0    0    0 -0.00000000000E+00 -0.00000000000E+00 -0.67716591377E+03  0.67716591377E+03  0.00000000000E+00 0.  1.
        -24    2    1    2    0    0 -0.97034350130E+02 -0.81911530880E+02 -0.36078345865E+03  0.39121732982E+03  0.82226097559E+02 0.  0.
         25    2    1    2    0    0  0.72063460749E+02  0.10978042386E+03 -0.25739398070E+03  0.31487248673E+03  0.12509251682E+03 0.  0.
         24    2    1    2    0    0  0.24970889381E+02 -0.27868892985E+02  0.11687247639E+03  0.14693704801E+03  0.80815220283E+02 0.  0.
        -11    1    5    5    0    0  0.29148988086E+02 -0.50628778184E+02  0.52545584999E+02  0.78574647246E+02  0.00000000000E+00 0.  1.
         12    1    5    5    0    0 -0.41780987053E+01  0.22759885200E+02  0.64326891387E+02  0.68362400767E+02  0.00000000000E+00 0. -1.
         11    1    3    3    0    0 -0.13252913515E+02  0.12269737880E+02 -0.16053850097E+02  0.24164277088E+02  0.00000000000E+00 0. -1.
        -12    1    3    3    0    0 -0.83781436615E+02 -0.94181268760E+02 -0.34472960856E+03  0.36705305273E+03  0.00000000000E+00 0.  1.
          5    1    4    4  501    0 -0.20923436384E+02  0.28122623055E+02 -0.76532415524E+01  0.36120861339E+02  0.41800000000E+01 0. -1.
         -5    1    4    4    0  501  0.92986897133E+02  0.81657800810E+02 -0.24974073915E+03  0.27875162539E+03  0.41800000000E+01 0. -1.
</event>
<event>
11    1  0.9238666E-009  0.1711661E+03  0.7561462E-02  0.1077021E+00
         22   -1    0    0    0    0  0.00000000000E+00  0.00000000000E+00  0.18049150499E+03  0.18049150499E+03  0.00000000000E+00 0. -1.
         22   -1    0    0    0    0 -0.00000000000E+00 -0.00000000000E+00 -0.10113297586E+04  0.10113297586E+04  0.00000000000E+00 0.  1.
         24    2    1    2    0    0  0.26258716267E+01  0.11943669057E+03 -0.83846832458E+03  0.85043490667E+03  0.77060890892E+02 0.  0.
         25    2    1    2    0    0 -0.12875921534E+02 -0.98202410339E+02 -0.11206707266E+03  0.19498317081E+03  0.12509958183E+03 0.  0.
        -24    2    1    2    0    0  0.10250049908E+02 -0.21234280236E+02  0.11969714364E+03  0.14640318610E+03  0.80935335456E+02 0.  0.
        -13    1    3    3    0    0 -0.14460718950E+02  0.70590534896E+02 -0.67824929570E+03  0.68206615745E+03  0.00000000000E+00 0.  1.
         14    1    3    3    0    0  0.17086590577E+02  0.48846155679E+02 -0.16021902888E+03  0.16836874923E+03  0.00000000000E+00 0. -1.
         11    1    5    5    0    0  0.42848710852E+02 -0.15772937812E+02  0.94117225333E+02  0.10460807662E+03  0.00000000000E+00 0. -1.
        -12    1    5    5    0    0 -0.32598660944E+02 -0.54613424240E+01  0.25579918304E+02  0.41795109485E+02  0.00000000000E+00 0.  1.
          5    1    4    4  501    0  0.10516955322E+02 -0.10884407088E+03 -0.36980768985E+02  0.11551055272E+03  0.41800000000E+01 0.  1.
         -5    1    4    4    0  501 -0.23392876856E+02  0.10641660543E+02 -0.75086303673E+02  0.79472618089E+02  0.41800000000E+01 0.  1.
</event>
<event>
11    1  0.9238666E-009  0.2098879E+03  0.7561462E-02  0.1047744E+00
         22   -1    0    0    0    0  0.00000000000E+00  0.00000000000E+00  0.78025163927E+03  0.78025163927E+03  0.00000000000E+00 0. -1.
         22   -1    0    0    0    0 -0.00000000000E+00 -0.00000000000E+00 -0.16212041440E+04  0.16212041440E+04  0.00000000000E+00 0. -1.
         24    2    1    2    0    0  0.56972556802E+02 -0.24355406618E+02 -0.14319405033E+04  0.14355602267E+04  0.80873367057E+02 0.  0.
         25    2    1    2    0    0 -0.19531368604E+03  0.11345124654E+03 -0.80088604139E+02  0.27033324417E+03  0.12508899670E+03 0.  0.
        -24    2    1    2    0    0  0.13834112924E+03 -0.89095839917E+02  0.67107660266E+03  0.69556231242E+03  0.79917376645E+02 0.  0.
        -13    1    3    3    0    0  0.20720183541E+02 -0.52204222729E+02 -0.78924526689E+03  0.79124123893E+03  0.00000000000E+00 0.  1.
         14    1    3    3    0    0  0.36252373261E+02  0.27848816111E+02 -0.64269523640E+03  0.64431898778E+03  0.00000000000E+00 0. -1.
         11    1    5    5    0    0  0.50326270143E+02 -0.72317441938E+02  0.41539339477E+03  0.42463421705E+03  0.00000000000E+00 0. -1.
        -12    1    5    5    0    0  0.88014859100E+02 -0.16778397979E+02  0.25568320789E+03  0.27092809537E+03  0.00000000000E+00 0.  1.
          5    1    4    4  501    0 -0.73696519248E+02  0.61188512045E+02  0.27453628606E+02  0.99731565109E+02  0.41800000000E+01 0.  1.
         -5    1    4    4    0  501 -0.12161716680E+03  0.52262734491E+02 -0.10754223274E+03  0.17060167907E+03  0.41800000000E+01 0.  1.
</event>
<event>
11    1  0.9238666E-009  0.3720733E+03  0.7561462E-02  0.9735952E-01
         22   -1    0    0    0    0  0.00000000000E+00  0.00000000000E+00  0.23443477279E+04  0.23443477279E+04  0.00000000000E+00 0. -1.
         22   -1    0    0    0    0 -0.00000000000E+00 -0.00000000000E+00 -0.17846137729E+04  0.17846137729E+04  0.00000000000E+00 0. -1.
        -24    2    1    2    0    0  0.47328259910E+02  0.19550809775E+02 -0.70954443592E+03  0.71589153518E+03  0.80157253210E+02 0.  0.
         25    2    1    2    0    0  0.29050485723E+03 -0.11454693306E+03 -0.10312215343E+04  0.10847036237E+04  0.12510006660E+03 0.  0.
         24    2    1    2    0    0 -0.33783311714E+03  0.94996123283E+02  0.23004999251E+04  0.23283663419E+04  0.76383492905E+02 0.  0.
        -11    1    5    5    0    0 -0.13284613348E+03  0.58244662200E+02  0.74525472877E+03  0.75923984788E+03  0.00000000000E+00 0.  1.
         12    1    5    5    0    0 -0.20498698365E+03  0.36751461083E+02  0.15552451964E+04  0.15691264940E+04  0.00000000000E+00 0. -1.
         11    1    3    3    0    0  0.15656296465E+02  0.38696558494E+02 -0.56988049124E+03  0.57140731318E+03  0.00000000000E+00 0. -1.
        -12    1    3    3    0    0  0.31671963445E+02 -0.19145748719E+02 -0.13966394468E+03  0.14448422200E+03  0.00000000000E+00 0.  1.
          5    1    4    4  501    0  0.29382348892E+03 -0.11076547963E+03 -0.10314116116E+04  0.10781598301E+04  0.41800000000E+01 0. -1.
         -5    1    4    4    0  501 -0.33186316912E+01 -0.37814534317E+01  0.19007737075E+00  0.65437936829E+01  0.41800000000E+01 0. -1.
</event>
<event>
11    1  0.9238666E-009  0.1645857E+03  0.7561462E-02  0.1082842E+00
         22   -1    0    0    0    0  0.00000000000E+00  0.00000000000E+00  0.17083480646E+04  0.17083480646E+04  0.00000000000E+00 0.  1.
         22   -1    0    0    0    0 -0.00000000000E+00 -0.00000000000E+00 -0.15286228448E+04  0.15286228448E+04  0.00000000000E+00 0. -1.
        -24    2    1    2    0    0 -0.90809369071E+01  0.47904403536E+01 -0.14407293147E+04  0.14429937523E+04  0.80153596301E+02 0.  0.
         25    2    1    2    0    0  0.11452316536E+03  0.11545612904E+02  0.19613326103E+01  0.17000161276E+03  0.12509134636E+03 0.  0.
         24    2    1    2    0    0 -0.10544222845E+03 -0.16336053258E+02  0.16184932019E+04  0.16239755443E+04  0.79946192295E+02 0.  0.
        -11    1    5    5    0    0 -0.10642121467E+03  0.23453329118E+01  0.10983684722E+04  0.11035145112E+04  0.00000000000E+00 0.  1.
         12    1    5    5    0    0  0.97898621560E+00 -0.18681386169E+02  0.52012472970E+03  0.52046103317E+03  0.00000000000E+00 0. -1.
         13    1    3    3    0    0 -0.14367314104E+02 -0.29935005363E+02 -0.32081798512E+03  0.32253170982E+03  0.00000000000E+00 0. -1.
        -14    1    3    3    0    0  0.52863771969E+01  0.34725445717E+02 -0.11199113296E+04  0.11204620424E+04  0.00000000000E+00 0.  1.
          5    1    4    4  501    0  0.43950872329E+02 -0.56423267177E+02 -0.39661880483E+01  0.71752820886E+02  0.41800000000E+01 0.  1.
         -5    1    4    4    0  501  0.70572293033E+02  0.67968880081E+02  0.59275206585E+01  0.98248791873E+02  0.41800000000E+01 0.  1.
</event>
<event>
11    1  0.9238666E-009  0.2369929E+03  0.7561462E-02  0.1031066E+00
         22   -1    0    0    0    0  0.00000000000E+00  0.00000000000E+00  0.11896478340E+04  0.11896478340E+04  0.00000000000E+00 0. -1.
         22   -1    0    0    0    0 -0.00000000000E+00 -0.00000000000E+00 -0.13610909447E+03  0.13610909447E+03  0.00000000000E+00 0.  1.
         24    2    1    2    0    0 -0.18642915560E+03  0.42090908298E+02  0.27702882161E+02  0.20963828988E+03  0.81567691435E+02 0.  0.
         25    2    1    2    0    0  0.24370644358E+03 -0.97313532028E+01  0.42116048876E+03  0.50250577865E+03  0.12509344671E+03 0.  0.
        -24    2    1    2    0    0 -0.57277287986E+02 -0.32359555095E+02  0.60467536862E+03  0.61361285995E+03  0.80997604633E+02 0.  0.
        -11    1    3    3    0    0 -0.69573864502E+02  0.56600881950E+02  0.58923397326E+01  0.89882713169E+02  0.00000000000E+00 0.  1.
         12    1    3    3    0    0 -0.11685529110E+03 -0.14509973652E+02  0.21810542429E+02  0.11975557671E+03  0.00000000000E+00 0. -1.
         11    1    5    5    0    0 -0.68147710259E+02 -0.13745822294E+02  0.55661838827E+03  0.56094303472E+03  0.00000000000E+00 0. -1.
        -12    1    5    5    0    0  0.10870422273E+02 -0.18613732802E+02  0.48056980356E+02  0.52669825234E+02  0.00000000000E+00 0.  1.
          5    1    4    4  501    0  0.27240803560E+02 -0.21296811906E+02  0.77366751354E+01  0.35678342424E+02  0.41800000000E+01 0. -1.
         -5    1    4    4    0  501  0.21646564003E+03  0.11565458704E+02  0.41342381362E+03  0.46682743623E+03  0.41800000000E+01 0. -1.
</event>
<event>
11    1  0.9238666E-009  0.1390873E+03  0.7561462E-02  0.1108582E+00
         22   -1    0    0    0    0  0.00000000000E+00  0.00000000000E+00  0.82646546833E+03  0.82646546833E+03  0.00000000000E+00 0.  1.
         22   -1    0    0    0    0 -0.00000000000E+00 -0.00000000000E+00 -0.14116733200E+04  0.14116733200E+04  0.00000000000E+00 0. -1.
         24    2    1    2    0    0  0.13154712500E+02  0.73770119385E+02 -0.13764371996E+04  0.13807173226E+04  0.78650387809E+02 0.  0.
         25    2    1    2    0    0 -0.19905967757E+02 -0.27213191447E+00  0.12097386713E+03  0.17515511463E+03  0.12509322942E+03 0.  0.
        -24    2    1    2    0    0  0.67512552566E+01 -0.73497987470E+02  0.67025548079E+03  0.68226635111E+03  0.10391068628E+03 0.  0.
        -13    1    3    3    0    0 -0.67966264201E+01 -0.15188044437E+02 -0.15786785771E+03  0.15874234256E+03  0.00000000000E+00 0.  1.
         14    1    3    3    0    0  0.19951338920E+02  0.88958163821E+02 -0.12185693419E+04  0.12219749800E+04  0.00000000000E+00 0. -1.
         13    1    5    5    0    0 -0.36296257450E+02 -0.27741149311E+02  0.11941802002E+03  0.12785794138E+03  0.00000000000E+00 0. -1.
        -14    1    5    5    0    0  0.43047512707E+02 -0.45756838159E+02  0.55083746077E+03  0.55440840973E+03  0.00000000000E+00 0.  1.
          5    1    4    4  501    0  0.41427579989E+02  0.16131771300E+02  0.97672500480E+02  0.10739584805E+03  0.41800000000E+01 0.  1.
         -5    1    4    4    0  501 -0.61333547746E+02 -0.16403903215E+02  0.23301366651E+02  0.67759266581E+02  0.41800000000E+01 0.  1.
</event>
<event>
11    1  0.9238666E-009  0.1768692E+03  0.7561462E-02  0.1072204E+00
         22   -1    0    0    0    0  0.00000000000E+00  0.00000000000E+00  0.17837577035E+04  0.17837577035E+04  0.00000000000E+00 0. -1.
         22   -1    0    0    0    0 -0.00000000000E+00 -0.00000000000E+00 -0.36342967453E+03  0.36342967453E+03  0.00000000000E+00 0.  1.
         24    2    1    2    0    0 -0.10653643358E+03 -0.75054985011E+02 -0.27761182305E+03  0.31717876631E+03  0.80936907785E+02 0.  0.
         25    2    1    2    0    0  0.87255653012E+02  0.47448165798E+02  0.33823462592E+02  0.16326775916E+03  0.12508979631E+03 0.  0.
        -24    2    1    2    0    0  0.19280780566E+02  0.27606819213E+02  0.16641163894E+04  0.16667408525E+04  0.87222858483E+02 0.  0.
        -11    1    3    3    0    0 -0.77847035815E+02 -0.31519881403E+02 -0.92839178191E+02  0.12519096180E+03  0.00000000000E+00 0.  1.
         12    1    3    3    0    0 -0.28689397763E+02 -0.43535103608E+02 -0.18477264486E+03  0.19198780451E+03  0.00000000000E+00 0. -1.
         11    1    5    5    0    0  0.38617042656E+02  0.30523854967E+02  0.49094564848E+03  0.49340714574E+03  0.00000000000E+00 0. -1.
        -12    1    5    5    0    0 -0.19336262090E+02 -0.29170357539E+01  0.11731707409E+04  0.11733337068E+04  0.00000000000E+00 0.  1.
          5    1    4    4  501    0  0.29066755160E+02 -0.16908464773E+02  0.63083861715E+02  0.71608787487E+02  0.41800000000E+01 0. -1.
         -5    1    4    4    0  501  0.58188897852E+02  0.64356630571E+02 -0.29260399123E+02  0.91658971675E+02  0.41800000000E+01 0. -1.
</event>
<event>
11    1  0.9238666E-009  0.1328861E+03  0.7561462E-02  0.1115773E+00
         22   -1    0    0    0    0  0.00000000000E+00  0.00000000000E+00  0.91584996797E+03  0.91584996797E+03  0.00000000000E+00 0. -1.
         22   -1    0    0    0    0 -0.00000000000E+00 -0.00000000000E+00 -0.13320389860E+03  0.13320389860E+03  0.00000000000E+00 0. -1.
         24    2    1    2    0    0  0.33952644149E+02  0.16359290784E+01 -0.91588727638E+02  0.12720902640E+03  0.81475045624E+02 0.  0.
         25    2    1    2    0    0 -0.12410453242E+02  0.40081177474E+02  0.19041572895E+03  0.23165966249E+03  0.12509008457E+03 0.  0.
        -24    2    1    2    0    0 -0.21542190907E+02 -0.41717106552E+02  0.68381906806E+03  0.69018517768E+03  0.80886826361E+02 0.  0.
        -11    1    3    3    0    0  0.12983153967E+01  0.91801548410E+01  0.13796841240E+02  0.16622686124E+02  0.00000000000E+00 0.  1.
         12    1    3    3    0    0  0.32654328752E+02 -0.75442257626E+01 -0.10538556888E+03  0.11058634028E+03  0.00000000000E+00 0. -1.
         11    1    5    5    0    0 -0.29679067221E+02  0.47019615434E+01  0.48204406275E+03  0.48297974482E+03  0.00000000000E+00 0. -1.
        -12    1    5    5    0    0  0.81368763141E+01 -0.46419068096E+02  0.20177500531E+03  0.20720543286E+03  0.00000000000E+00 0.  1.
          5    1    4    4  501    0 -0.46677358595E+02  0.46571914845E+02  0.40082664036E+02  0.77277496168E+02  0.41800000000E+01 0. -1.
         -5    1    4    4    0  501  0.34266905353E+02 -0.64907373710E+01  0.15033306491E+03  0.15438216632E+03  0.41800000000E+01 0. -1.
</event>
<event>
11    1  0.9238666E-009  0.1461646E+03  0.7561462E-02  0.1100863E+00
         22   -1    0    0    0    0  0.00000000000E+00  0.00000000000E+00  0.97361850444E+03  0.97361850444E+03  0.00000000000E+00 0.  1.
         22   -1    0    0    0    0 -0.00000000000E+00 -0.00000000000E+00 -0.93835134641E+02  0.93835134641E+02  0.00000000000E+00 0.  1.
        -24    2    1    2    0    0 -0.68671801913E+01 -0.28288127501E+01 -0.53702080065E+02  0.95602127039E+02  0.78744478827E+02 0.  0.
         25    2    1    2    0    0  0.19346344767E+02 -0.72163094561E+02  0.36280258048E+03  0.39096729526E+03  0.12509164754E+03 0.  0.
         24    2    1    2    0    0 -0.12479164575E+02  0.74991907311E+02  0.57068286938E+03  0.58088421678E+03  0.77252962335E+02 0.  0.
        -11    1    5    5    0    0 -0.17537595101E+02  0.63884785862E+02  0.56203567717E+03  0.56592661673E+03  0.00000000000E+00 0.  1.
         12    1    5    5    0    0  0.50584305257E+01  0.11107121449E+02  0.86471922105E+01  0.14957600055E+02  0.00000000000E+00 0. -1.
         13    1    3    3    0    0 -0.46092883517E+01 -0.29031106777E+02  0.63241522843E+01  0.30067351096E+02  0.00000000000E+00 0. -1.
        -14    1    3    3    0    0 -0.22578918396E+01  0.26202294027E+02 -0.60026232350E+02  0.65534775943E+02  0.00000000000E+00 0.  1.
          5    1    4    4  501    0  0.43718431577E+02  0.68984332397E+01  0.47899695164E+02  0.65350920709E+02  0.41800000000E+01 0.  1.
         -5    1    4    4    0  501 -0.24372086810E+02 -0.79061527801E+02  0.31490288532E+03  0.32561637455E+03  0.41800000000E+01 0.  1.
</event>
<event>
11    1  0.9238666E-009  0.1581305E+03  0.7561462E-02  0.1088849E+00
         22   -1    0    0    0    0  0.00000000000E+00  0.00000000000E+00  0.38140452924E+03  0.38140452924E+03  0.00000000000E+00 0.  1.
         22   -1    0    0    0    0 -0.00000000000E+00 -0.00000000000E+00 -0.44355472452E+03  0.44355472452E+03  0.00000000000E+00 0.  1.
         24    2    1    2    0    0 -0.52197059112E+02  0.40305295792E+01 -0.32259106051E+03  0.33677110452E+03  0.81295795532E+02 0.  0.
         25    2    1    2    0    0  0.15499832125E+02 -0.95253084107E+02 -0.39532989892E+02  0.16286165876E+03  0.12509063825E+03 0.  0.
        -24    2    1    2    0    0  0.36697226987E+02  0.91222554527E+02  0.29997385512E+03  0.32532649047E+03  0.78643313299E+02 0.  0.
        -13    1    3    3    0    0 -0.50583565848E+02 -0.23401307617E+01 -0.32562072282E+03  0.32953456340E+03  0.00000000000E+00 0.  1.
         14    1    3    3    0    0 -0.16134932632E+01  0.63706603408E+01  0.30296623096E+01  0.72365411212E+01  0.00000000000E+00 0. -1.
         11    1    5    5    0    0 -0.22048934120E+02  0.15973038795E+02  0.40072312308E+02  0.48446709670E+02  0.00000000000E+00 0. -1.
        -12    1    5    5    0    0  0.58746161107E+02  0.75249515733E+02  0.25990154281E+03  0.27687978080E+03  0.00000000000E+00 0.  1.
          5    1    4    4  501    0  0.58443491565E+02 -0.18331321139E+02 -0.42411700615E+02  0.74618387748E+02  0.41800000000E+01 0. -1.
         -5    1    4    4    0  501 -0.42943659440E+02 -0.76921762968E+02  0.28787107229E+01  0.88243271016E+02  0.41800000000E+01 0. -1.
</event>
<event>
11    1  0.9238666E-009  0.2271373E+03  0.7561462E-02  0.1036836E+00
         22   -1    0    0    0    0  0.00000000000E+00  0.00000000000E+00  0.51082081027E+03  0.51082081027E+03  0.00000000000E+00 0.  1.
         22   -1    0    0    0    0 -0.00000000000E+00 -0.00000000000E+00 -0.19981840556E+04  0.19981840556E+04  0.00000000000E+00 0. -1.
        -24    2    1    2    0    0  0.38797837339E+02  0.38543356180E+02 -0.16877017246E+04  0.16904738459E+04  0.79836395733E+02 0.  0.
         25    2    1    2    0    0 -0.19837491182E+03  0.62064475792E+02 -0.23490034712E+03  0.33768280994E+03  0.12508757835E+03 0.  0.
         24    2    1    2    0    0  0.15957707448E+03 -0.10060783197E+03  0.43523882641E+03  0.48084820997E+03  0.78710777307E+02 0.  0.
        -13    1    5    5    0    0  0.88667774890E+02 -0.91671717611E+02  0.32852449347E+03  0.35241172076E+03  0.00000000000E+00 0.  1.
         14    1    5    5    0    0  0.70909299588E+02 -0.89361143613E+01  0.10671433294E+03  0.12843648921E+03  0.00000000000E+00 0. -1.
         13    1    3    3    0    0  0.76924968198E+01  0.47866076365E+02 -0.14173594783E+04  0.14181883607E+04  0.00000000000E+00 0. -1.
        -14    1    3    3    0    0  0.31105340520E+02 -0.93227201855E+01 -0.27034224633E+03  0.27228548523E+03  0.00000000000E+00 0.  1.
          5    1    4    4  501    0  0.17310395106E+02 -0.79556294104E+00 -0.15204589535E+02  0.23429354282E+02  0.41800000000E+01 0.  1.
         -5    1    4    4    0  501 -0.21568530692E+03  0.62860038733E+02 -0.21969575759E+03  0.31425345566E+03  0.41800000000E+01 0.  1.
</event>
<event>
11    1  0.9238666E-009  0.2095923E+03  0.7561462E-02  0.1047940E+00
         22   -1    0    0    0    0  0.00000000000E+00  0.00000000000E+00  0.23178149905E+03  0.23178149905E+03  0.00000000000E+00 0. -1.
         22   -1    0    0    0    0 -0.00000000000E+00 -0.00000000000E+00 -0.85597175743E+03  0.85597175743E+03  0.00000000000E+00 0. -1.
         24    2    1    2    0    0  0.42080875344E+02  0.15319745077E+03 -0.60479612684E+03  0.63038326473E+03  0.79777480631E+02 0.  0.
         25    2    1    2    0    0 -0.67557609253E+02 -0.21110525527E+03 -0.14733600725E+03  0.29408355096E+03  0.12509107299E+03 0.  0.
        -24    2    1    2    0    0  0.25476733908E+02  0.57907804502E+02  0.12794187572E+03  0.16328644079E+03  0.79315574712E+02 0.  0.
        -11    1    3    3    0    0  0.83605440557E+01  0.26013640346E+01 -0.32225077771E+01  0.93300776054E+01  0.00000000000E+00 0.  1.
         12    1    3    3    0    0  0.33720331289E+02  0.15059608674E+03 -0.60157361906E+03  0.62105318712E+03  0.00000000000E+00 0. -1.
         13    1    5    5    0    0  0.12131636874E+02  0.72737123682E+02  0.12185122218E+03  0.14242747671E+03  0.00000000000E+00 0. -1.
        -14    1    5    5    0    0  0.13345097035E+02 -0.14829319181E+02  0.60906535404E+01  0.20858964087E+02  0.00000000000E+00 0.  1.
          5    1    4    4  501    0 -0.31432848470E+02  0.22151601722E+01  0.87073478721E+00  0.31798765332E+02  0.41800000000E+01 0.  1.
         -5    1    4    4    0  501 -0.36124760782E+02 -0.21332041544E+03 -0.14820674203E+03  0.26228478563E+03  0.41800000000E+01 0.  1.
</event>
<event>
11    1  0.9238666E-009  0.1830087E+03  0.7561462E-02  0.1067235E+00
         22   -1    0    0    0    0  0.00000000000E+00  0.00000000000E+00  0.31322110760E+04  0.31322110760E+04  0.00000000000E+00 0.  1.
         22   -1    0    0    0    0 -0.00000000000E+00 -0.00000000000E+00 -0.14506527433E+04  0.14506527433E+04  0.00000000000E+00 0.  1.
        -24    2    1    2    0    0 -0.97898141495E+01  0.70057123506E+02 -0.12268886539E+04  0.12315748632E+04  0.80728146971E+02 0.  0.
         25    2    1    2    0    0 -0.92840434492E+02  0.16178052546E+02 -0.19151708622E+03  0.24740058854E+03  0.12508869347E+03 0.  0.
         24    2    1    2    0    0  0.10263024864E+03 -0.86235176052E+02  0.30999640728E+04  0.31038883675E+04  0.79851559862E+02 0.  0.
        -13    1    5    5    0    0  0.21135224693E+02 -0.44617885317E+02  0.18144554513E+04  0.18151270033E+04  0.00000000000E+00 0.  1.
         14    1    5    5    0    0  0.81495023948E+02 -0.41617290735E+02  0.12855086215E+04  0.12887613642E+04  0.00000000000E+00 0. -1.
         11    1    3    3    0    0  0.65306366121E+01  0.84645032423E+02 -0.10220541952E+04  0.10255740873E+04  0.00000000000E+00 0. -1.
        -12    1    3    3    0    0 -0.16320450762E+02 -0.14587908917E+02 -0.20483445870E+03  0.20600077589E+03  0.00000000000E+00 0.  1.
          5    1    4    4  501    0 -0.11075676981E+03 -0.22825498931E+02 -0.13132660256E+03  0.17335574522E+03  0.41800000000E+01 0. -1.
         -5    1    4    4    0  501  0.17916335320E+02  0.39003551477E+02 -0.60190483662E+02  0.74044843322E+02  0.41800000000E+01 0. -1.
</event>
<event>
11    1  0.9238666E-009  0.1503395E+03  0.7561462E-02  0.1096532E+00
         22   -1    0    0    0    0  0.00000000000E+00  0.00000000000E+00  0.16503533202E+04  0.16503533202E+04  0.00000000000E+00 0.  1.
         22   -1    0    0    0    0 -0.00000000000E+00 -0.00000000000E+00 -0.55686374048E+03  0.55686374048E+03  0.00000000000E+00 0. -1.
         24    2    1    2    0    0  0.32801629813E+01  0.30702191147E+02 -0.51539532213E+03  0.52173964842E+03  0.75010256977E+02 0.  0.
         25    2    1    2    0    0 -0.69836264594E+02  0.21106749858E+02  0.10944124947E+03  0.18151245330E+03  0.12508710915E+03 0.  0.
        -24    2    1    2    0    0  0.66556101613E+02 -0.51808941005E+02  0.14994436523E+04  0.15039649589E+04  0.80408022534E+02 0.  0.
        -11    1    3    3    0    0  0.16514224580E+02  0.34030963518E+02 -0.11398603334E+03  0.12009846747E+03  0.00000000000E+00 0.  1.
         12    1    3    3    0    0 -0.13234061599E+02 -0.33287723713E+01 -0.40140928878E+03  0.40164118095E+03  0.00000000000E+00 0. -1.
         11    1    5    5    0    0 -0.17082236990E+02 -0.97339613644E+01  0.15094573959E+03  0.15222079071E+03  0.00000000000E+00 0. -1.
        -12    1    5    5    0    0  0.83638338603E+02 -0.42074979640E+02  0.13484979128E+04  0.13517441682E+04  0.00000000000E+00 0.  1.
          5    1    4    4  501    0 -0.90452737484E+02  0.43444514112E+02  0.11234497433E+03  0.15069170243E+03  0.41800000000E+01 0. -1.
         -5    1    4    4    0  501  0.20616472889E+02 -0.22337764254E+02 -0.29037248594E+01  0.30820750872E+02  0.41800000000E+01 0. -1.
</event>
<event>
11    1  0.9238666E-009  0.1517919E+03  0.7561462E-02  0.1095062E+00
         22   -1    0    0    0    0  0.00000000000E+00  0.00000000000E+00  0.28206685415E+04  0.28206685415E+04  0.00000000000E+00 0.  1.
         22   -1    0    0    0    0 -0.00000000000E+00 -0.00000000000E+00 -0.16147652903E+03  0.16147652903E+03  0.00000000000E+00 0. -1.
         24    2    1    2    0    0  0.43022409006E+02  0.76397696681E+02 -0.12798053340E+03  0.17591472174E+03  0.82942369519E+02 0.  0.
         25    2    1    2    0    0 -0.44151441263E+02 -0.29731200356E+02  0.53229080234E+03  0.54937652340E+03  0.12509105549E+03 0.  0.
        -24    2    1    2    0    0  0.11290322565E+01 -0.46666496325E+02  0.22548817435E+04  0.22568538254E+04  0.81966305463E+02 0.  0.
        -13    1    3    3    0    0  0.83746479258E+01  0.31270150428E+01  0.11517965914E+02  0.14580003078E+02  0.00000000000E+00 0.  1.
         14    1    3    3    0    0  0.34647761080E+02  0.73270681638E+02 -0.13949849932E+03  0.16133471867E+03  0.00000000000E+00 0. -1.
         11    1    5    5    0    0 -0.74988037293E+01 -0.51668477348E+02  0.70154773549E+03  0.70348780286E+03  0.00000000000E+00 0. -1.
        -12    1    5    5    0    0  0.86278359858E+01  0.50019810231E+01  0.15533340081E+04  0.15533660225E+04  0.00000000000E+00 0.  1.
          5    1    4    4  501    0  0.49265978312E+01 -0.88225623386E+01 -0.30621727969E+01  0.11355979687E+02  0.41800000000E+01 0. -1.
         -5    1    4    4    0  501 -0.49078039094E+02 -0.20908638018E+02  0.53535297514E+03  0.53802054371E+03  0.41800000000E+01 0. -1.
</event>
<event>
11    1  0.9238666E-009  0.1750485E+03  0.7561462E-02  0.1073720E+00
         22   -1    0    0    0    0  0.00000000000E+00  0.00000000000E+00  0.31567264594E+03  0.31567264594E+03  0.00000000000E+00 0.  1.
         22   -1    0    0    0    0 -0.00000000000E+00 -0.00000000000E+00 -0.26760030369E+04  0.26760030369E+04  0.00000000000E+00 0.  1.
        -24    2    1    2    0    0  0.91405840975E+01  0.98012430921E+01 -0.21713155237E+04  0.21728846881E+04  0.81468703363E+02 0.  0.
         25    2    1    2    0    0  0.10309951775E+03 -0.59155728174E+02 -0.47058516268E+03  0.50122459246E+03  0.12508711374E+03 0.  0.
         24    2    1    2    0    0 -0.11224010185E+03  0.49354485082E+02  0.28157029546E+03  0.31756640225E+03  0.80826251244E+02 0.  0.
        -13    1    5    5    0    0 -0.91066537323E+02  0.11291153501E+01  0.20821157372E+03  0.22725855001E+03  0.00000000000E+00 0.  1.
         14    1    5    5    0    0 -0.21173564526E+02  0.48225369732E+02  0.73358721743E+02  0.90307852241E+02  0.00000000000E+00 0. -1.
         11    1    3    3    0    0  0.29675301386E+02  0.37493149317E+02 -0.11733959275E+04  0.11743697725E+04  0.00000000000E+00 0. -1.
        -12    1    3    3    0    0 -0.20534717288E+02 -0.27691906225E+02 -0.99791959622E+03  0.99851491567E+03  0.00000000000E+00 0.  1.
          5    1    4    4  501    0 -0.24254456484E+02 -0.34025741133E+02 -0.96731225526E+02  0.10545345945E+03  0.41800000000E+01 0.  1.
         -5    1    4    4    0  501  0.12735397424E+03 -0.25129987041E+02 -0.37385393715E+03  0.39577113301E+03  0.41800000000E+01 0.  1.
</event>
<event>
11    1  0.9238666E-009  0.1458641E+03  0.7561462E-02  0.1101181E+00
         22   -1    0    0    0    0  0.00000000000E+00  0.00000000000E+00  0.25127937706E+03  0.25127937706E+03  0.00000000000E+00 0.  1.
         22   -1    0    0    0    0 -0.00000000000E+00 -0.00000000000E+00 -0.55404727842E+03  0.55404727842E+03  0.00000000000E+00 0.  1.
        -24    2    1    2    0    0  0.69381414995E+01  0.25431150268E+02 -0.32681746368E+03  0.33780906333E+03  0.81304535518E+02 0.  0.
         25    2    1    2    0    0  0.64015068541E+02 -0.49645930833E+02 -0.18006745461E+03  0.23371542790E+03  0.12504385462E+03 0.  0.
         24    2    1    2    0    0 -0.70953210040E+02  0.24214780565E+02  0.20411701692E+03  0.23380216425E+03  0.85900999999E+02 0.  0.
        -13    1    5    5    0    0 -0.35527252501E+02  0.15917312864E+02  0.19130768992E+03  0.19522852952E+03  0.00000000000E+00 0.  1.
         14    1    5    5    0    0 -0.35425957540E+02  0.82974677005E+01  0.12809327000E+02  0.38573634727E+02  0.00000000000E+00 0. -1.
         13    1    3    3    0    0 -0.24628687572E+02 -0.79809489028E+01 -0.42236214178E+02  0.49539535576E+02  0.00000000000E+00 0. -1.
        -14    1    3    3    0    0  0.31566829072E+02  0.33412099171E+02 -0.28458124950E+03  0.28826952776E+03  0.00000000000E+00 0.  1.
          5    1    4    4  501    0  0.58704486804E+02 -0.67044766650E+02 -0.19189484506E+03  0.21161833915E+03  0.41800000000E+01 0.  1.
         -5    1    4    4    0  501  0.53105817373E+01  0.17398835818E+02  0.11827390448E+02  0.22097088745E+02  0.41800000000E+01 0.  1.
</event>
<event>
11    1  0.9238666E-009  0.1326410E+03  0.7561462E-02  0.1116066E+00
         22   -1    0    0    0    0  0.00000000000E+00  0.00000000000E+00  0.33725877957E+03  0.33725877957E+03  0.00000000000E+00 0. -1.
         22   -1    0    0    0    0 -0.00000000000E+00 -0.00000000000E+00 -0.52579344501E+03  0.52579344501E+03  0.00000000000E+00 0.  1.
        -24    2    1    2    0    0  0.47774916602E+01 -0.21916561064E+02 -0.44139496826E+03  0.44908100862E+03  0.79630862253E+02 0.  0.
         25    2    1    2    0    0 -0.39136841035E+02  0.46913509616E+02 -0.66517866232E+01  0.13938211870E+03  0.12510219437E+03 0.  0.
         24    2    1    2    0    0  0.34359349374E+02 -0.24996948553E+02  0.25951208944E+03  0.27458909727E+03  0.79039455006E+02 0.  0.
        -13    1    5    5    0    0 -0.63471783635E+01  0.38875642338E+01 -0.25102937781E+01  0.78550241058E+01  0.00000000000E+00 0.  1.
         14    1    5    5    0    0  0.40706527738E+02 -0.28884512787E+02  0.26202238322E+03  0.26673407316E+03  0.00000000000E+00 0. -1.
         13    1    3    3    0    0 -0.33196018594E+01  0.26073472302E+02 -0.75093352460E+02  0.79560400314E+02  0.00000000000E+00 0. -1.
        -14    1    3    3    0    0  0.80970935197E+01 -0.47990033366E+02 -0.36630161580E+03  0.36952060831E+03  0.00000000000E+00 0.  1.
          5    1    4    4  501    0 -0.92315287659E+01 -0.43074286987E+00 -0.60641363123E+02  0.61483770088E+02  0.41800000000E+01 0. -1.
         -5    1    4    4    0  501 -0.29905312269E+02  0.47344252486E+02  0.53989576500E+02  0.77898348609E+02  0.41800000000E+01 0. -1.
</event>
<event>
11    1  0.9238666E-009  0.1425601E+03  0.7561462E-02  0.1104733E+00
         22   -1    0    0    0    0  0.00000000000E+00  0.00000000000E+00  0.18664135972E+04  0.18664135972E+04  0.00000000000E+00 0.  1.
         22   -1    0    0    0    0 -0.00000000000E+00 -0.00000000000E+00 -0.11317466753E+03  0.11317466753E+03  0.00000000000E+00 0.  1.
         24    2    1    2    0    0 -0.33734856775E+02  0.11087601350E+02 -0.82871944171E+02  0.11961476774E+03  0.78606348756E+02 0.  0.
         25    2    1    2    0    0  0.54454307257E+02  0.53852284146E+02  0.53445333491E+03  0.55421347915E+03  0.12508746214E+03 0.  0.
        -24    2    1    2    0    0 -0.20719450482E+02 -0.64939885496E+02  0.13016575389E+04  0.13057600178E+04  0.77784260672E+02 0.  0.
        -11    1    3    3    0    0 -0.58503552365E+02 -0.83940078073E-01 -0.62836974673E+02  0.85855448699E+02  0.00000000000E+00 0.  1.
         12    1    3    3    0    0  0.24768695590E+02  0.11171541428E+02 -0.20034969498E+02  0.33759319037E+02  0.00000000000E+00 0. -1.
         13    1    5    5    0    0  0.23568839138E+01 -0.33813308009E+01  0.22602968567E+01  0.47007703250E+01  0.00000000000E+00 0. -1.
        -14    1    5    5    0    0 -0.23076334395E+02 -0.61558554695E+02  0.12993972420E+04  0.13010592475E+04  0.00000000000E+00 0.  1.
          5    1    4    4  501    0  0.47067946219E+02 -0.33030102532E+02  0.17239250979E+03  0.18177741628E+03  0.41800000000E+01 0. -1.
         -5    1    4    4    0  501  0.73863610380E+01  0.86882386678E+02  0.36206082511E+03  0.37243606287E+03  0.41800000000E+01 0. -1.
</event>
<event>
11    1  0.9238666E-009  0.1315602E+03  0.7561462E-02  0.1117367E+00
         22   -1    0    0    0    0  0.00000000000E+00  0.00000000000E+00  0.10366354784E+04  0.10366354784E+04  0.00000000000E+00 0.  1.
         22   -1    0    0    0    0 -0.00000000000E+00 -0.00000000000E+00 -0.83451304948E+02  0.83451304948E+02  0.00000000000E+00 0.  1.
        -24    2    1    2    0    0  0.82206845888E+00 -0.35984371566E+02 -0.40898891393E+02  0.98621510641E+02  0.82206643591E+02 0.  0.
         25    2    1    2    0    0 -0.60293023380E+01 -0.13853236378E+02  0.38299218236E+03  0.40318553526E+03  0.12508916599E+03 0.  0.
         24    2    1    2    0    0  0.52072338791E+01  0.49837607944E+02  0.61109088244E+03  0.61827973741E+03  0.79541590579E+02 0.  0.
        -13    1    5    5    0    0 -0.52598526732E+01 -0.19719746188E+02  0.80511017114E+02  0.83057560262E+02  0.00000000000E+00 0.  1.
         14    1    5    5    0    0  0.10467086552E+02  0.69557354132E+02  0.53057986533E+03  0.53522217715E+03  0.00000000000E+00 0. -1.
         11    1    3    3    0    0  0.28800580543E+02  0.29867432219E+01  0.80802127448E+01  0.30061335843E+02  0.00000000000E+00 0. -1.
        -12    1    3    3    0    0 -0.27978512084E+02 -0.38971114788E+02 -0.48979104137E+02  0.68560174798E+02  0.00000000000E+00 0.  1.
          5    1    4    4  501    0 -0.41441182663E+02 -0.53873130533E+02  0.26464811025E+03  0.27326869647E+03  0.41800000000E+01 0. -1.
         -5    1    4    4    0  501  0.35411880325E+02  0.40019894155E+02  0.11834407212E+03  0.12991683879E+03  0.41800000000E+01 0. -1.
</event>
<event>
11    1  0.9238666E-009  0.1274454E+03  0.7561462E-02  0.1122448E+00
         22   -1    0    0    0    0  0.00000000000E+00  0.00000000000E+00  0.14318831465E+04  0.14318831465E+04  0.00000000000E+00 0. -1.
         22   -1    0    0    0    0 -0.00000000000E+00 -0.00000000000E+00 -0.35318259225E+02  0.35318259225E+02  0.00000000000E+00 0.  1.
        -24    2    1    2    0    0  0.26205003574E+02 -0.43320438122E+01  0.41422047222E+02  0.97329589756E+02  0.83974961924E+02 0.  0.
         25    2    1    2    0    0  0.57203317364E+01  0.12902288721E+02  0.87833444246E+03  0.88730949380E+03  0.12509018238E+03 0.  0.
         24    2    1    2    0    0 -0.31925335311E+02 -0.85702449084E+01  0.47680839756E+03  0.48256232214E+03  0.66539241254E+02 0.  0.
        -13    1    5    5    0    0 -0.12399726528E+02 -0.25741103317E+02  0.80831740905E+02  0.85732887247E+02  0.00000000000E+00 0.  1.
         14    1    5    5    0    0 -0.19525608782E+02  0.17170858408E+02  0.39597665666E+03  0.39682943489E+03  0.00000000000E+00 0. -1.
         13    1    3    3    0    0 -0.12032094831E+02  0.17265553764E+02  0.48480397141E+02  0.52850918249E+02  0.00000000000E+00 0. -1.
        -14    1    3    3    0    0  0.38237098405E+02 -0.21597597576E+02 -0.70583499193E+01  0.44478671507E+02  0.00000000000E+00 0.  1.
          5    1    4    4  501    0  0.44660483071E+02 -0.38540225381E+02  0.33979218614E+03  0.34490014480E+03  0.41800000000E+01 0.  1.
         -5    1    4    4    0  501 -0.38940151334E+02  0.51442514101E+02  0.53854225632E+03  0.54240934900E+03  0.41800000000E+01 0.  1.
</event>
<event>
11    1  0.9238666E-009  0.1336557E+03  0.7561462E-02  0.1114857E+00
         22   -1    0    0    0    0  0.00000000000E+00  0.00000000000E+00  0.53830449066E+03  0.53830449066E+03  0.00000000000E+00 0.  1.
         22   -1    0    0    0    0 -0.00000000000E+00 -0.00000000000E+00 -0.10340773140E+04  0.10340773140E+04  0.00000000000E+00 0.  1.
        -24    2    1    2    0    0 -0.46466991137E+02  0.11363499226E+02 -0.96035498018E+03  0.96477720674E+03  0.78899051283E+02 0.  0.
         25    2    1    2    0    0  0.29976020249E+02  0.14229537521E+02 -0.55161497711E+01  0.12953262577E+03  0.12508889520E+03 0.  0.
         24    2    1    2    0    0  0.16490970888E+02 -0.25593036748E+02  0.47009830666E+03  0.47807197211E+03  0.81445914222E+02 0.  0.
        -13    1    5    5    0    0  0.49304006051E+02 -0.10703881491E+02  0.24947619039E+03  0.25452667378E+03  0.00000000000E+00 0.  1.
         14    1    5    5    0    0 -0.32813035163E+02 -0.14889155257E+02  0.22062211627E+03  0.22354529833E+03  0.00000000000E+00 0. -1.
         11    1    3    3    0    0 -0.40286529277E+02 -0.76564061683E+01 -0.20007567810E+03  0.20423491857E+03  0.00000000000E+00 0. -1.
        -12    1    3    3    0    0 -0.61804618603E+01  0.19019905395E+02 -0.76027930208E+03  0.76054228816E+03  0.00000000000E+00 0.  1.
          5    1    4    4  501    0 -0.13384548401E+01  0.29844228865E+01  0.57715560230E+02  0.57959093627E+02  0.41800000000E+01 0.  1.
         -5    1    4    4    0  501  0.31314475089E+02  0.11245114635E+02 -0.63231710001E+02  0.71573532140E+02  0.41800000000E+01 0.  1.
</event>
<event>
11    1  0.9238666E-009  0.1681840E+03  0.7561462E-02  0.1079623E+00
         22   -1    0    0    0    0  0.00000000000E+00  0.00000000000E+00  0.27787143255E+04  0.27787143255E+04  0.00000000000E+00 0. -1.
         22   -1    0    0    0    0 -0.00000000000E+00 -0.00000000000E+00 -0.47337546620E+03  0.47337546620E+03  0.00000000000E+00 0.  1.
         24    2    1    2    0    0 -0.11247620715E+03  0.11293044418E+02 -0.44562278626E+03  0.46716453511E+03  0.82973521123E+02 0.  0.
         25    2    1    2    0    0  0.93187155665E+02  0.38679261940E+02  0.38899843922E+03  0.42088820236E+03  0.12508861615E+03 0.  0.
        -24    2    1    2    0    0  0.19289051484E+02 -0.49972306358E+02  0.23619632064E+04  0.23640370543E+04  0.83256871808E+02 0.  0.
        -13    1    3    3    0    0 -0.11274154599E+03 -0.87960316949E+01 -0.30840804956E+03  0.32848675986E+03  0.00000000000E+00 0.  1.
         14    1    3    3    0    0  0.26533883947E+00  0.20089076113E+02 -0.13721473670E+03  0.13867777526E+03  0.00000000000E+00 0. -1.
         11    1    5    5    0    0 -0.10910900822E+02 -0.42749812478E+02  0.20617971465E+04  0.20622691550E+04  0.00000000000E+00 0. -1.
        -12    1    5    5    0    0  0.30199952307E+02 -0.72224938793E+01  0.30016605988E+03  0.30176789929E+03  0.00000000000E+00 0.  1.
          5    1    4    4  501    0 -0.75950078518E+01  0.55971025263E+02  0.16930225150E+03  0.17852496905E+03  0.41800000000E+01 0. -1.
         -5    1    4    4    0  501  0.10078216352E+03 -0.17291763323E+02  0.21969618772E+03  0.24236323331E+03  0.41800000000E+01 0. -1.
</event>
<event>
11    1  0.9238666E-009  0.1597803E+03  0.7561462E-02  0.1087284E+00
         22   -1    0    0    0    0  0.00000000000E+00  0.00000000000E+00  0.38172870070E+03  0.38172870070E+03  0.00000000000E+00 0.  1.
         22   -1    0    0    0    0 -0.00000000000E+00 -0.00000000000E+00 -0.69708993733E+03  0.69708993733E+03  0.00000000000E+00 0.  1.
        -24    2    1    2    0    0  0.87441264980E+02 -0.66819839355E+02 -0.52106441209E+03  0.53862005005E+03  0.80576491759E+02 0.  0.
         25    2    1    2    0    0 -0.81465735257E+02 -0.23100355167E+02 -0.11998663957E+03  0.19291083442E+03  0.12508998334E+03 0.  0.
         24    2    1    2    0    0 -0.59755297232E+01  0.89920194522E+02  0.32568981502E+03  0.34728775355E+03  0.80084828880E+02 0.  0.
        -11    1    5    5    0    0  0.17546069440E+02  0.39910303795E+02  0.24883677737E+03  0.25262707431E+03  0.00000000000E+00 0.  1.
         12    1    5    5    0    0 -0.23521599163E+02  0.50009890727E+02  0.76853037653E+02  0.94660679241E+02  0.00000000000E+00 0. -1.
         13    1    3    3    0    0  0.41807941080E+02 -0.57263725048E+02 -0.16600034340E+03  0.18050803902E+03  0.00000000000E+00 0. -1.
        -14    1    3    3    0    0  0.45633323900E+02 -0.95561143072E+01 -0.35506406869E+03  0.35811201103E+03  0.00000000000E+00 0.  1.
          5    1    4    4  501    0  0.11396390993E+02  0.25792825510E+02 -0.71999187362E+02  0.77437090313E+02  0.41800000000E+01 0. -1.
         -5    1    4    4    0  501 -0.92862126250E+02 -0.48893180677E+02 -0.47987452206E+02  0.11547374410E+03  0.41800000000E+01 0. -1.
</event>
<event>
11    1  0.9238666E-009  0.1615484E+03  0.7561462E-02  0.1085630E+00
         22   -1    0    0    0    0  0.00000000000E+00  0.00000000000E+00  0.52731910517E+03  0.52731910517E+03  0.00000000000E+00 0. -1.
         22   -1    0    0    0    0 -0.00000000000E+00 -0.00000000000E+00 -0.17510365527E+03  0.17510365527E+03  0.00000000000E+00 0.  1.
        -24    2    1    2    0    0 -0.40891816141E+01 -0.40989802625E+02 -0.11519209595E+03  0.14676815761E+03  0.81085065168E+02 0.  0.
         25    2    1    2    0    0  0.70131941550E+02  0.10357620295E+03  0.24266589889E+03  0.30030171155E+03  0.12509140830E+03 0.  0.
         24    2    1    2    0    0 -0.66042759936E+02 -0.62586400328E+02  0.22474164696E+03  0.25535289128E+03  0.80109846833E+02 0.  0.
        -13    1    5    5    0    0 -0.45980135718E+02  0.79736350793E+01  0.10539300532E+03  0.11526247138E+03  0.00000000000E+00 0.  1.
         14    1    5    5    0    0 -0.20062624217E+02 -0.70560035407E+02  0.11934864164E+03  0.14009041990E+03  0.00000000000E+00 0. -1.
         13    1    3    3    0    0 -0.69827207840E+01 -0.26438865790E+02  0.31260401137E+01  0.27523519771E+02  0.00000000000E+00 0. -1.
        -14    1    3    3    0    0  0.28935391699E+01 -0.14550936835E+02 -0.11831813606E+03  0.11924463784E+03  0.00000000000E+00 0.  1.
          5    1    4    4  501    0  0.10312302019E+03  0.75785635128E+02  0.14494589451E+03  0.19340270039E+03  0.41800000000E+01 0.  1.
         -5    1    4    4    0  501 -0.32991078636E+02  0.27790567825E+02  0.97720004379E+02  0.10689901115E+03  0.41800000000E+01 0.  1.
</event>
<event>
11    1  0.9238666E-009  0.1543971E+03  0.7561462E-02  0.1092469E+00
         22   -1    0    0    0    0  0.00000000000E+00  0.00000000000E+00  0.13079054998E+04  0.13079054998E+04  0.00000000000E+00 0. -1.
         22   -1    0    0    0    0 -0.00000000000E+00 -0.00000000000E+00 -0.24843697451E+03  0.24843697451E+03  0.00000000000E+00 0. -1.
        -24    2    1    2    0    0  0.26461176228E+02  0.19685617953E+02 -0.18135785539E+03  0.19887837326E+03  0.74660687357E+02 0.  0.
         25    2    1    2    0    0 -0.28841566974E+02  0.71788364898E+02  0.42746924478E+02  0.15316714332E+03  0.12508984339E+03 0.  0.
         24    2    1    2    0    0  0.23803907462E+01 -0.91473982851E+02  0.11980794562E+04  0.12042969577E+04  0.81016191136E+02 0.  0.
        -13    1    5    5    0    0 -0.89060698639E+01 -0.25340883756E+02  0.81112874060E+03  0.81157335608E+03  0.00000000000E+00 0.  1.
         14    1    5    5    0    0  0.11286460610E+02 -0.66133099095E+02  0.38695071560E+03  0.39272360165E+03  0.00000000000E+00 0. -1.
         13    1    3    3    0    0  0.36257267026E+02 -0.12392450714E+02 -0.14243067786E+03  0.14749461089E+03  0.00000000000E+00 0. -1.
        -14    1    3    3    0    0 -0.97960907985E+01  0.32078068666E+02 -0.38927177529E+02  0.51383762364E+02  0.00000000000E+00 0.  1.
          5    1    4    4  501    0  0.25776437452E+02  0.42607172625E+01 -0.29853843800E+02  0.39891137223E+02  0.41800000000E+01 0. -1.
         -5    1    4    4    0  501 -0.54618004425E+02  0.67527647636E+02  0.72600768278E+02  0.11327600610E+03  0.41800000000E+01 0. -1.
</event>
<event>
11    1  0.9238666E-009  0.2308319E+03  0.7561462E-02  0.1034637E+00
         22   -1    0    0    0    0  0.00000000000E+00  0.00000000000E+00  0.14939013670E+04  0.14939013670E+04  0.00000000000E+00 0. -1.
         22   -1    0    0    0    0 -0.00000000000E+00 -0.00000000000E+00 -0.51746462304E+03  0.51746462304E+03  0.00000000000E+00 0. -1.
        -24    2    1    2    0    0  0.10399692153E+03  0.27672521129E+02 -0.43508878669E+03  0.45533437064E+03  0.80287039259E+02 0.  0.
         25    2    1    2    0    0 -0.98882736917E+01  0.15187258792E+03  0.89771685442E+02  0.21649277351E+03  0.12508838697E+03 0.  0.
         24    2    1    2    0    0 -0.94108647836E+02 -0.17954510905E+03  0.13217538452E+04  0.13395388459E+04  0.78982330642E+02 0.  0.
        -11    1    5    5    0    0  0.13494192311E+02 -0.33176842557E+02  0.20482321364E+03  0.20793110626E+03  0.00000000000E+00 0.  1.
         12    1    5    5    0    0 -0.10760284015E+03 -0.14636826649E+03  0.11169306316E+04  0.11316077397E+04  0.00000000000E+00 0. -1.
         13    1    3    3    0    0  0.77515158649E+01  0.32539908651E+02 -0.17030667232E+03  0.17356063577E+03  0.00000000000E+00 0. -1.
        -14    1    3    3    0    0  0.96245405663E+02 -0.48673875225E+01 -0.26478211437E+03  0.28177373487E+03  0.00000000000E+00 0.  1.
          5    1    4    4  501    0 -0.94705133648E+01  0.12706244910E+03  0.44751554676E+01  0.12756196929E+03  0.41800000000E+01 0.  1.
         -5    1    4    4    0  501 -0.41776032685E+00  0.24810138825E+02  0.85296529974E+02  0.88930804212E+02  0.41800000000E+01 0.  1.
</event>
<event>
11    1  0.9238666E-009  0.2430140E+03  0.7561462E-02  0.1027688E+00
         22   -1    0    0    0    0  0.00000000000E+00  0.00000000000E+00  0.39215820700E+03  0.39215820700E+03  0.00000000000E+00 0. -1.
         22   -1    0    0    0    0 -0.00000000000E+00 -0.00000000000E+00 -0.74620269852E+03  0.74620269852E+03  0.00000000000E+00 0.  1.
        -24    2    1    2    0    0  0.23317895957E+02 -0.41344233059E+01 -0.47046442854E+03  0.47849466455E+03  0.84021114949E+02 0.  0.
         25    2    1    2    0    0  0.15052741797E+03  0.12323160818E+03 -0.17589956044E+03  0.29057227344E+03  0.12508820054E+03 0.  0.
         24    2    1    2    0    0 -0.17384531393E+03 -0.11909718487E+03  0.29231949745E+03  0.36929396753E+03  0.80752790925E+02 0.  0.
        -13    1    5    5    0    0 -0.50879117211E+02 -0.11081608275E+02  0.29981329102E+02  0.60086327104E+02  0.00000000000E+00 0.  1.
         14    1    5    5    0    0 -0.12296619671E+03 -0.10801557659E+03  0.26233816835E+03  0.30920764042E+03  0.00000000000E+00 0. -1.
         11    1    3    3    0    0  0.71047849388E+01 -0.37648684276E+02 -0.35763934716E+03  0.35968570174E+03  0.00000000000E+00 0. -1.
        -12    1    3    3    0    0  0.16213111018E+02  0.33514260970E+02 -0.11282508138E+03  0.11880896281E+03  0.00000000000E+00 0.  1.
          5    1    4    4  501    0  0.99353292132E+02  0.51106705539E+02 -0.23387239270E+02  0.11422524839E+03  0.41800000000E+01 0. -1.
         -5    1    4    4    0  501  0.51174125837E+02  0.72124902637E+02 -0.15251232117E+03  0.17634702505E+03  0.41800000000E+01 0. -1.
</event>
<event>
11    1  0.9238666E-009  0.1650568E+03  0.7561462E-02  0.1082415E+00
         22   -1    0    0    0    0  0.00000000000E+00  0.00000000000E+00  0.47445077017E+02  0.47445077017E+02  0.00000000000E+00 0.  1.
         22   -1    0    0    0    0 -0.00000000000E+00 -0.00000000000E+00 -0.19537008783E+04  0.19537008783E+04  0.00000000000E+00 0. -1.
        -24    2    1    2    0    0  0.26180421670E+01 -0.43357272494E+02 -0.14133409490E+04  0.14163536956E+04  0.81476657152E+02 0.  0.
         25    2    1    2    0    0 -0.84626602060E+02  0.98748371599E+02 -0.35002492557E+03  0.39379984621E+03  0.12509183703E+03 0.  0.
         24    2    1    2    0    0  0.82008559893E+02 -0.55391099105E+02 -0.14288992667E+03  0.19099241347E+03  0.79164342370E+02 0.  0.
        -13    1    5    5    0    0  0.65227864897E+02 -0.75991931228E+02 -0.11181595248E+03  0.15010747883E+03  0.00000000000E+00 0.  1.
         14    1    5    5    0    0  0.16780694996E+02  0.20600832122E+02 -0.31073974186E+02  0.40884934639E+02  0.00000000000E+00 0. -1.
         11    1    3    3    0    0 -0.23997305385E+02 -0.46335228729E+02 -0.12258036121E+04  0.12269137376E+04  0.00000000000E+00 0. -1.
        -12    1    3    3    0    0  0.26615347552E+02  0.29779562353E+01 -0.18753733689E+03  0.18943995797E+03  0.00000000000E+00 0.  1.
          5    1    4    4  501    0 -0.22794822741E+02 -0.18716847671E+02 -0.15507092871E+03  0.15790626859E+03  0.41800000000E+01 0.  1.
         -5    1    4    4    0  501 -0.61831779319E+02  0.11746521927E+03 -0.19495399686E+03  0.23589357762E+03  0.41800000000E+01 0.  1.
</event>
<event>
11    1  0.9238666E-009  0.1398842E+03  0.7561462E-02  0.1107688E+00
         22   -1    0    0    0    0  0.00000000000E+00  0.00000000000E+00  0.20674300871E+04  0.20674300871E+04  0.00000000000E+00 0.  1.
         22   -1    0    0    0    0 -0.00000000000E+00 -0.00000000000E+00 -0.20845489676E+03  0.20845489676E+03  0.00000000000E+00 0.  1.
        -24    2    1    2    0    0 -0.52463196033E+02 -0.34268131460E+02 -0.17999939425E+03  0.20832318497E+03  0.84095634229E+02 0.  0.
         25    2    1    2    0    0  0.19356762481E+02  0.84633098324E+02  0.44363621973E+03  0.46902964184E+03  0.12505304425E+03 0.  0.
         24    2    1    2    0    0  0.33106433552E+02 -0.50364966865E+02  0.15953383649E+04  0.15985321571E+04  0.81042537764E+02 0.  0.
        -11    1    5    5    0    0  0.42298092736E+02 -0.57882690544E+02  0.15502379235E+04  0.15518946981E+04  0.00000000000E+00 0.  1.
         12    1    5    5    0    0 -0.91916591846E+01  0.75177236793E+01  0.45100441370E+02  0.46637458975E+02  0.00000000000E+00 0. -1.
         13    1    3    3    0    0 -0.78541846968E+01 -0.34057856898E+02 -0.16137008500E+02  0.38497128167E+02  0.00000000000E+00 0. -1.
        -14    1    3    3    0    0 -0.44609011336E+02 -0.21027456127E+00 -0.16386238575E+03  0.16982605681E+03  0.00000000000E+00 0.  1.
          5    1    4    4  501    0 -0.45011978136E+02 -0.76559625324E+00  0.13083609343E+03  0.13842767085E+03  0.41800000000E+01 0.  1.
         -5    1    4    4    0  501  0.64368740617E+02  0.85398694578E+02  0.31280012631E+03  0.33060197099E+03  0.41800000000E+01 0.  1.
</event>
<event>
11    1  0.9238666E-009  0.1599642E+03  0.7561462E-02  0.1087111E+00
         22   -1    0    0    0    0  0.00000000000E+00  0.00000000000E+00  0.23994423550E+04  0.23994423550E+04  0.00000000000E+00 0. -1.
         22   -1    0    0    0    0 -0.00000000000E+00 -0.00000000000E+00 -0.98633080921E+02  0.98633080921E+02  0.00000000000E+00 0. -1.
         24    2    1    2    0    0 -0.41894220410E+02 -0.86455164755E+02 -0.34387058100E+02  0.12929835382E+03  0.79410158785E+02 0.  0.
         25    2    1    2    0    0  0.94658357653E+02  0.11744805824E+03  0.60736560384E+03  0.63819660481E+03  0.12509068152E+03 0.  0.
        -24    2    1    2    0    0 -0.52764137242E+02 -0.30992893481E+02  0.17278307283E+04  0.17305804773E+04  0.75928578149E+02 0.  0.
        -11    1    3    3    0    0 -0.46804927114E+02 -0.30706240056E+02  0.11234534700E+02  0.57094563230E+02  0.00000000000E+00 0.  1.
         12    1    3    3    0    0  0.49107067034E+01 -0.55748924699E+02 -0.45621592800E+02  0.72203790586E+02  0.00000000000E+00 0. -1.
         13    1    5    5    0    0 -0.38582837262E+02 -0.37652081793E+02  0.16633616328E+04  0.16642350302E+04  0.00000000000E+00 0. -1.
        -14    1    5    5    0    0 -0.14181299981E+02  0.66591883123E+01  0.64469095587E+02  0.66345447047E+02  0.00000000000E+00 0.  1.
          5    1    4    4  501    0 -0.12097436459E+02  0.80862224396E+02  0.22150526098E+03  0.23615058828E+03  0.41800000000E+01 0. -1.
         -5    1    4    4    0  501  0.10675579411E+03  0.36585833840E+02  0.38586034286E+03  0.40204601653E+03  0.41800000000E+01 0. -1.
</event>
<event>
11    1  0.9238666E-009  0.1544527E+03  0.7561462E-02  0.1092414E+00
         22   -1    0    0    0    0  0.00000000000E+00  0.00000000000E+00  0.13266589718E+04  0.13266589718E+04  0.00000000000E+00 0. -1.
         22   -1    0    0    0    0 -0.00000000000E+00 -0.00000000000E+00 -0.91523419304E+02  0.91523419304E+02  0.00000000000E+00 0. -1.
        -24    2    1    2    0    0  0.26111065751E+02 -0.33766478916E+02 -0.33722034106E+01  0.90718362283E+02  0.79978038526E+02 0.  0.
         25    2    1    2    0    0  0.64861334247E+02  0.14183661210E+02  0.80708601193E+02  0.16298468627E+03  0.12506782451E+03 0.  0.
         24    2    1    2    0    0 -0.90972399998E+02  0.19582817706E+02  0.11577991547E+04  0.11644793425E+04  0.82787633505E+02 0.  0.
        -13    1    5    5    0    0 -0.87570208199E+02 -0.10281653245E+02  0.67329820270E+03  0.67904692291E+03  0.00000000000E+00 0.  1.
         14    1    5    5    0    0 -0.34021917986E+01  0.29864470951E+02  0.48450095199E+03  0.48543241962E+03  0.00000000000E+00 0. -1.
         13    1    3    3    0    0  0.30826069496E+01 -0.23365066735E+02 -0.39877375536E+02  0.46320987563E+02  0.00000000000E+00 0. -1.
        -14    1    3    3    0    0  0.23028458801E+02 -0.10401412181E+02  0.36505172126E+02  0.44397374720E+02  0.00000000000E+00 0.  1.
          5    1    4    4  501    0  0.49341026046E+02 -0.24916912276E+00  0.11343455437E+03  0.12377184438E+03  0.41800000000E+01 0.  1.
         -5    1    4    4    0  501  0.15520308200E+02  0.14432830333E+02 -0.32725953174E+02  0.39212841891E+02  0.41800000000E+01 0.  1.
</event>
<event>
11    1  0.9238666E-009  0.2937546E+03  0.7561462E-02  0.1002870E+00
         22   -1    0    0    0    0  0.00000000000E+00  0.00000000000E+00  0.14019325509E+04  0.14019325509E+04  0.00000000000E+00 0. -1.
         22   -1    0    0    0    0 -0.00000000000E+00 -0.00000000000E+00 -0.36857096475E+03  0.36857096475E+03  0.00000000000E+00 0. -1.
        -24    2    1    2    0    0  0.37871212314E+02  0.70565675147E+02 -0.22344192293E+03  0.25020995565E+03  0.79151662975E+02 0.  0.
         25    2    1    2    0    0 -0.29853980091E+03 -0.77508529501E+02  0.12417326964E+03  0.35524854413E+03  0.12509573271E+03 0.  0.
         24    2    1    2    0    0  0.26066858859E+03  0.69428543539E+01  0.11326302395E+04  0.11650450159E+04  0.80512815112E+02 0.  0.
        -13    1    5    5    0    0  0.44661372285E+02 -0.12419454979E+02  0.10497106002E+03  0.11475105436E+03  0.00000000000E+00 0.  1.
         14    1    5    5    0    0  0.21600721631E+03  0.19362309333E+02  0.10276591794E+04  0.10502939615E+04  0.00000000000E+00 0. -1.
         13    1    3    3    0    0  0.42810722487E+02  0.10475115640E+02 -0.14327317424E+03  0.14989892750E+03  0.00000000000E+00 0. -1.
        -14    1    3    3    0    0 -0.49395101731E+01  0.60090559507E+02 -0.80168748694E+02  0.10031102816E+03  0.00000000000E+00 0.  1.
          5    1    4    4  501    0 -0.23818476276E+03 -0.10331924920E+03  0.12772942314E+03  0.28937713524E+03  0.41800000000E+01 0.  1.
         -5    1    4    4    0  501 -0.60355038145E+02  0.25810719696E+02 -0.35561534993E+01  0.65871408884E+02  0.41800000000E+01 0.  1.
</event>
<event>
11    1  0.9238666E-009  0.1317333E+03  0.7561462E-02  0.1117157E+00
         22   -1    0    0    0    0  0.00000000000E+00  0.00000000000E+00  0.14719765096E+04  0.14719765096E+04  0.00000000000E+00 0. -1.
         22   -1    0    0    0    0 -0.00000000000E+00 -0.00000000000E+00 -0.21347181493E+03  0.21347181493E+03  0.00000000000E+00 0. -1.
        -24    2    1    2    0    0 -0.38251684037E+02 -0.12747097423E+02 -0.15839418336E+03  0.18184122004E+03  0.79698382410E+02 0.  0.
         25    2    1    2    0    0  0.55860446814E+02 -0.96649950961E+01  0.70321445807E+02  0.15429294037E+03  0.12508958413E+03 0.  0.
         24    2    1    2    0    0 -0.17608762777E+02  0.22412092519E+02  0.13465774322E+04  0.13493141641E+04  0.81028156267E+02 0.  0.
        -11    1    5    5    0    0  0.13518191666E+02 -0.90067792336E+01  0.65871625636E+02  0.67844930850E+02  0.00000000000E+00 0.  1.
         12    1    5    5    0    0 -0.31126954444E+02  0.31418871753E+02  0.12807058066E+04  0.12814692333E+04  0.00000000000E+00 0. -1.
         13    1    3    3    0    0 -0.63575016163E+01 -0.22303551940E+02 -0.14350783208E+03  0.14536974969E+03  0.00000000000E+00 0. -1.
        -14    1    3    3    0    0 -0.31894182421E+02  0.95564545171E+01 -0.14886351281E+02  0.36471470353E+02  0.00000000000E+00 0.  1.
          5    1    4    4  501    0  0.81005842787E+02 -0.74396838895E+01  0.90462018212E+02  0.12172980161E+03  0.41800000000E+01 0.  1.
         -5    1    4    4    0  501 -0.25145395973E+02 -0.22253112066E+01 -0.20140572405E+02  0.32563138752E+02  0.41800000000E+01 0.  1.
</event>
<event>
11    1  0.9238666E-009  0.1487576E+03  0.7561462E-02  0.1098155E+00
         22   -1    0    0    0    0  0.00000000000E+00  0.00000000000E+00  0.27279848501E+04  0.27279848501E+04  0.00000000000E+00 0.  1.
         22   -1    0    0    0    0 -0.00000000000E+00 -0.00000000000E+00 -0.26322258529E+03  0.26322258529E+03  0.00000000000E+00 0. -1.
         24    2    1    2    0    0  0.66077358751E+02  0.45510043809E+02 -0.23924324273E+03  0.26479678898E+03  0.80265988047E+02 0.  0.
         25    2    1    2    0    0 -0.97079457541E+02 -0.24056426759E+02  0.61434588436E+03  0.63487943643E+03  0.12509156818E+03 0.  0.
        -24    2    1    2    0    0  0.31002098789E+02 -0.21453617050E+02  0.20896596232E+04  0.20915312100E+04  0.80025456589E+02 0.  0.
        -13    1    3    3    0    0  0.15944608365E+02 -0.23108815771E+02 -0.69866945280E+02  0.75296998247E+02  0.00000000000E+00 0.  1.
         14    1    3    3    0    0  0.50132750386E+02  0.68618859580E+02 -0.16937629745E+03  0.18949979074E+03  0.00000000000E+00 0. -1.
         11    1    5    5    0    0 -0.10102303753E+01  0.27750288080E+02  0.48096840897E+03  0.48176935299E+03  0.00000000000E+00 0. -1.
        -12    1    5    5    0    0  0.32012329165E+02 -0.49203905130E+02  0.16086912143E+04  0.16097618570E+04  0.00000000000E+00 0.  1.
          5    1    4    4  501    0 -0.85533402755E+02 -0.50362507778E+02  0.24474246687E+03  0.26413763962E+03  0.41800000000E+01 0.  1.
         -5    1    4    4    0  501 -0.11546054786E+02  0.26306081019E+02  0.36960341750E+03  0.37074179681E+03  0.41800000000E+01 0.  1.
</event>
<event>
11    1  0.9238666E-009  0.1332587E+03  0.7561462E-02  0.1115329E+00
         22   -1    0    0    0    0  0.00000000000E+00  0.00000000000E+00  0.25061808939E+03  0.25061808939E+03  0.00000000000E+00 0.  1.
         22   -1    0    0    0    0 -0.00000000000E+00 -0.00000000000E+00 -0.20327119519E+03  0.20327119519E+03  0.00000000000E+00 0.  1.
        -24    2    1    2    0    0 -0.63865168965E+02 -0.15100200472E+02 -0.12397166732E+03  0.16299202218E+03  0.83009933957E+02 0.  0.
         25    2    1    2    0    0 -0.89959745686E+01  0.42879877842E+01  0.80095462289E+02  0.14886967085E+03  0.12509029307E+03 0.  0.
         24    2    1    2    0    0  0.72861143533E+02  0.10812212688E+02  0.91223099236E+02  0.14202759156E+03  0.80153183023E+02 0.  0.
        -13    1    5    5    0    0  0.23982036088E+01 -0.19980630828E+02  0.51887548571E+02  0.55653343885E+02  0.00000000000E+00 0.  1.
         14    1    5    5    0    0  0.70462939924E+02  0.30792843516E+02  0.39335550665E+02  0.86374247671E+02  0.00000000000E+00 0. -1.
         11    1    3    3    0    0 -0.17199132966E+02 -0.40551040318E+02 -0.24995692804E+02  0.50645648425E+02  0.00000000000E+00 0. -1.
        -12    1    3    3    0    0 -0.46666035999E+02  0.25450839846E+02 -0.98975974520E+02  0.11234637376E+03  0.00000000000E+00 0.  1.
          5    1    4    4  501    0  0.85614408898E+01 -0.31308109553E+01  0.11147093275E+03  0.11192113963E+03  0.41800000000E+01 0. -1.
         -5    1    4    4    0  501 -0.17557415458E+02  0.74187987395E+01 -0.31375470464E+02  0.36948531217E+02  0.41800000000E+01 0. -1.
</event>
<event>
11    1  0.9238666E-009  0.1800679E+03  0.7561462E-02  0.1069588E+00
         22   -1    0    0    0    0  0.00000000000E+00  0.00000000000E+00  0.38212066296E+03  0.38212066296E+03  0.00000000000E+00 0. -1.
         22   -1    0    0    0    0 -0.00000000000E+00 -0.00000000000E+00 -0.16956273086E+04  0.16956273086E+04  0.00000000000E+00 0. -1.
        -24    2    1    2    0    0  0.85953452172E+01  0.29007521126E+02 -0.14376375082E+04  0.14397620798E+04  0.72096638533E+02 0.  0.
         25    2    1    2    0    0 -0.13331359878E+03  0.57807249288E+01 -0.20529583455E+03  0.27495412163E+03  0.12508979543E+03 0.  0.
         24    2    1    2    0    0  0.12471825356E+03 -0.34788246054E+02  0.32942669703E+03  0.36303177018E+03  0.80655146203E+02 0.  0.
        -11    1    5    5    0    0  0.93140308896E+02 -0.17625085011E+02  0.13288229870E+03  0.16322826370E+03  0.00000000000E+00 0.  1.
         12    1    5    5    0    0  0.31577944665E+02 -0.17163161044E+02  0.19654439834E+03  0.19980350648E+03  0.00000000000E+00 0. -1.
         13    1    3    3    0    0  0.17233546269E+02  0.19798851388E+02 -0.13961293047E+04  0.13963760328E+04  0.00000000000E+00 0. -1.
        -14    1    3    3    0    0 -0.86382010515E+01  0.92086697377E+01 -0.41508203441E+02  0.43386046935E+02  0.00000000000E+00 0.  1.
          5    1    4    4  501    0 -0.79830869011E+02  0.64624231346E+02 -0.12550170561E+03  0.16222641411E+03  0.41800000000E+01 0.  1.
         -5    1    4    4    0  501 -0.53482729767E+02 -0.58843506417E+02 -0.79794128931E+02  0.11272770752E+03  0.41800000000E+01 0.  1.
</event>
<event>
11    1  0.9238666E-009  0.1563974E+03  0.7561462E-02  0.1090515E+00
         22   -1    0    0    0    0  0.00000000000E+00  0.00000000000E+00  0.63732736841E+02  0.63732736841E+02  0.00000000000E+00 0. -1.
         22   -1    0    0    0    0 -0.00000000000E+00 -0.00000000000E+00 -0.20971039882E+04  0.20971039882E+04  0.00000000000E+00 0.  1.
        -24    2    1    2    0    0  0.81994650641E+02  0.18960606954E+02 -0.12197813053E+04  0.12253308366E+04  0.80539424352E+02 0.  0.
         25    2    1    2    0    0 -0.13481737785E+03  0.16086351460E+02 -0.81288705341E+03  0.83358706433E+03  0.12509011210E+03 0.  0.
         24    2    1    2    0    0  0.52822727204E+02 -0.35046958414E+02 -0.70289263999E+00  0.10191882416E+03  0.79802398814E+02 0.  0.
        -13    1    5    5    0    0  0.61515505997E+01 -0.79193188241E+01 -0.36033276982E+02  0.37402596641E+02  0.00000000000E+00 0.  1.
         14    1    5    5    0    0  0.46671176604E+02 -0.27127639590E+02  0.35330384342E+02  0.64516227517E+02  0.00000000000E+00 0. -1.
         13    1    3    3    0    0  0.27207473459E+02 -0.26823237922E+02 -0.24751117528E+03  0.25044263733E+03  0.00000000000E+00 0. -1.
        -14    1    3    3    0    0  0.54787177183E+02  0.45783844876E+02 -0.97227013003E+03  0.97488819923E+03  0.00000000000E+00 0.  1.
          5    1    4    4  501    0 -0.97539216431E+02  0.19639814000E+02 -0.24520082148E+03  0.26465172641E+03  0.41800000000E+01 0.  1.
         -5    1    4    4    0  501 -0.37278161414E+02 -0.35534625405E+01 -0.56768623193E+03  0.56893533792E+03  0.41800000000E+01 0.  1.
</event>
<event>
11    1  0.9238666E-009  0.1685129E+03  0.7561462E-02  0.1079333E+00
         22   -1    0    0    0    0  0.00000000000E+00  0.00000000000E+00  0.11863607435E+04  0.11863607435E+04  0.00000000000E+00 0.  1.
         22   -1    0    0    0    0 -0.00000000000E+00 -0.00000000000E+00 -0.33411262050E+03  0.33411262050E+03  0.00000000000E+00 0.  1.
        -24    2    1    2    0    0 -0.93333629245E+02  0.59704395879E+02 -0.25822047044E+03  0.29329608692E+03  0.84077357330E+02 0.  0.
         25    2    1    2    0    0  0.11854385533E+03 -0.56527786246E+02  0.88816573913E+02  0.20195052856E+03  0.12509035107E+03 0.  0.
         24    2    1    2    0    0 -0.25210226087E+02 -0.31766096335E+01  0.10216520195E+04  0.10252267485E+04  0.81678580529E+02 0.  0.
        -11    1    5    5    0    0 -0.22347469910E+02 -0.10904374672E+02  0.10129010227E+04  0.10132061965E+04  0.00000000000E+00 0.  1.
         12    1    5    5    0    0 -0.28627561768E+01  0.77277650388E+01  0.87509967772E+01  0.12020551985E+02  0.00000000000E+00 0. -1.
         13    1    3    3    0    0 -0.88275821270E+02  0.54262965000E+02 -0.13662771619E+03  0.17147659555E+03  0.00000000000E+00 0. -1.
        -14    1    3    3    0    0 -0.50578079744E+01  0.54414308798E+01 -0.12159275425E+03  0.12181949137E+03  0.00000000000E+00 0.  1.
          5    1    4    4  501    0 -0.26480097132E+02 -0.11560449175E+02  0.10252014158E+02  0.30942135084E+02  0.41800000000E+01 0.  1.
         -5    1    4    4    0  501  0.14502395246E+03 -0.44967337071E+02  0.78564559755E+02  0.17100839348E+03  0.41800000000E+01 0.  1.
</event>
<event>
11    1  0.9238666E-009  0.1841152E+03  0.7561462E-02  0.1066362E+00
         22   -1    0    0    0    0  0.00000000000E+00  0.00000000000E+00  0.30157500805E+03  0.30157500805E+03  0.00000000000E+00 0.  1.
         22   -1    0    0    0    0 -0.00000000000E+00 -0.00000000000E+00 -0.82399017943E+03  0.82399017943E+03  0.00000000000E+00 0. -1.
        -24    2    1    2    0    0  0.71415673698E+02 -0.20093433186E+02 -0.65498315776E+03  0.66413159706E+03  0.81017879174E+02 0.  0.
         25    2    1    2    0    0  0.60468504246E+02 -0.44928937722E+02 -0.98686768111E+02  0.17624184760E+03  0.12508821365E+03 0.  0.
         24    2    1    2    0    0 -0.13188417794E+03  0.65022370908E+02  0.23125475450E+03  0.28519174283E+03  0.78957099684E+02 0.  0.
        -13    1    5    5    0    0 -0.12718848671E+03  0.71059777733E+02  0.23513656705E+03  0.27661454830E+03  0.00000000000E+00 0.  1.
         14    1    5    5    0    0 -0.46956912356E+01 -0.60374068247E+01 -0.38818125577E+01  0.85771945344E+01  0.00000000000E+00 0. -1.
         11    1    3    3    0    0  0.24414981504E+02 -0.44874307880E+02 -0.42666315176E+03  0.42971064672E+03  0.00000000000E+00 0. -1.
        -12    1    3    3    0    0  0.47000692194E+02  0.24780874694E+02 -0.22832000600E+03  0.23442095034E+03  0.00000000000E+00 0.  1.
          5    1    4    4  501    0  0.56221682466E+02 -0.58316683490E+02 -0.48384710873E+01  0.81256361936E+02  0.41800000000E+01 0.  1.
         -5    1    4    4    0  501  0.42468217803E+01  0.13387745768E+02 -0.93848297024E+02  0.94985485661E+02  0.41800000000E+01 0.  1.
</event>
<event>
11    1  0.9238666E-009  0.1784312E+03  0.7561462E-02  0.1070919E+00
         22   -1    0    0    0    0  0.00000000000E+00  0.00000000000E+00  0.22471287266E+03  0.22471287266E+03  0.00000000000E+00 0. -1.
         22   -1    0    0    0    0 -0.00000000000E+00 -0.00000000000E+00 -0.13533066836E+04  0.13533066836E+04  0.00000000000E+00 0. -1.
         24    2    1    2    0    0 -0.74324732552E+02 -0.10839653443E+03 -0.12107368266E+04  0.12206065719E+04  0.81992472138E+02 0.  0.
         25    2    1    2    0    0  0.31669449660E+02  0.83594811420E+02 -0.77161619275E+02  0.17202131040E+03  0.12508544761E+03 0.  0.
        -24    2    1    2    0    0  0.42655282892E+02  0.24801723008E+02  0.15930463492E+03  0.18539167401E+03  0.80978438269E+02 0.  0.
        -11    1    3    3    0    0 -0.30229857603E+02 -0.39661380172E+02 -0.18434173699E+03  0.19096791711E+03  0.00000000000E+00 0.  1.
         12    1    3    3    0    0 -0.44094874948E+02 -0.68735154256E+02 -0.10263950896E+04  0.10296386547E+04  0.00000000000E+00 0. -1.
         13    1    5    5    0    0 -0.11546447937E+02  0.16588583733E+02  0.10942244639E+03  0.11127341706E+03  0.00000000000E+00 0. -1.
        -14    1    5    5    0    0  0.54201730829E+02  0.82131392751E+01  0.49882188529E+02  0.74118256955E+02  0.00000000000E+00 0.  1.
          5    1    4    4  501    0  0.15983122157E+02 -0.19064161560E+02 -0.62065298088E+02  0.66996090010E+02  0.41800000000E+01 0.  1.
         -5    1    4    4    0  501  0.15686327503E+02  0.10265897298E+03 -0.15096321187E+02  0.10502522039E+03  0.41800000000E+01 0.  1.
</event>
<event>
11    1  0.9238666E-009  0.1505964E+03  0.7561462E-02  0.1096271E+00
         22   -1    0    0    0    0  0.00000000000E+00  0.00000000000E+00  0.11359079455E+04  0.11359079455E+04  0.00000000000E+00 0. -1.
         22   -1    0    0    0    0 -0.00000000000E+00 -0.00000000000E+00 -0.50404451532E+03  0.50404451532E+03  0.00000000000E+00 0.  1.
         24    2    1    2    0    0  0.51928021558E+02  0.62423770541E+02 -0.44249039952E+03  0.45730222299E+03  0.82062920571E+02 0.  0.
         25    2    1    2    0    0 -0.76965529488E+02 -0.13957278891E+03  0.15230010034E+03  0.25346924287E+03  0.12508829036E+03 0.  0.
        -24    2    1    2    0    0  0.25037507930E+02  0.77149018366E+02  0.92205372939E+03  0.92918099499E+03  0.81335070711E+02 0.  0.
        -11    1    3    3    0    0  0.39399958475E+02  0.82690115037E+02 -0.35472300266E+03  0.36635832251E+03  0.00000000000E+00 0.  1.
         12    1    3    3    0    0  0.12528063083E+02 -0.20266344495E+02 -0.87767396854E+02  0.90943900479E+02  0.00000000000E+00 0. -1.
         11    1    5    5    0    0 -0.17994567267E+02  0.38992474414E+02  0.63336413767E+03  0.63481835858E+03  0.00000000000E+00 0. -1.
        -12    1    5    5    0    0  0.43032075196E+02  0.38156543953E+02  0.28868959172E+03  0.29436263641E+03  0.00000000000E+00 0.  1.
          5    1    4    4  501    0 -0.64916273394E+02 -0.57666713917E+02  0.83152620268E+01  0.87328050637E+02  0.41800000000E+01 0.  1.
         -5    1    4    4    0  501 -0.12049256093E+02 -0.81906074991E+02  0.14398483831E+03  0.16614119223E+03  0.41800000000E+01 0.  1.
</event>
<event>
11    1  0.9238666E-009  0.1958718E+03  0.7561462E-02  0.1057482E+00
         22   -1    0    0    0    0  0.00000000000E+00  0.00000000000E+00  0.31310762836E+03  0.31310762836E+03  0.00000000000E+00 0. -1.
         22   -1    0    0    0    0 -0.00000000000E+00 -0.00000000000E+00 -0.11452038724E+04  0.11452038724E+04  0.00000000000E+00 0. -1.
        -24    2    1    2    0    0 -0.86773249068E+02  0.12366288524E+03 -0.10277643325E+04  0.10418111418E+04  0.79049517080E+02 0.  0.
         25    2    1    2    0    0  0.29352262390E+02 -0.15601160522E+03  0.98733941295E+01  0.20235495446E+03  0.12509543322E+03 0.  0.
         24    2    1    2    0    0  0.57420986677E+02  0.32348719982E+02  0.18579469431E+03  0.21414540448E+03  0.83635975699E+02 0.  0.
        -11    1    5    5    0    0 -0.10998730215E+02 -0.52302858828E+00  0.95723747397E+02  0.96354976212E+02  0.00000000000E+00 0.  1.
         12    1    5    5    0    0  0.68419716893E+02  0.32871748571E+02  0.90070946912E+02  0.11779042827E+03  0.00000000000E+00 0. -1.
         13    1    3    3    0    0 -0.89288651266E+02  0.12911376492E+03 -0.10199363974E+04  0.10319462594E+04  0.00000000000E+00 0. -1.
        -14    1    3    3    0    0  0.25154021980E+01 -0.54508796819E+01 -0.78279350770E+01  0.98648824166E+01  0.00000000000E+00 0.  1.
          5    1    4    4  501    0 -0.39149884802E+01  0.19763035124E+02  0.11157347268E+02  0.23406483934E+02  0.41800000000E+01 0.  1.
         -5    1    4    4    0  501  0.33267250871E+02 -0.17577464034E+03 -0.12839531380E+01  0.17894847053E+03  0.41800000000E+01 0.  1.
</event>
<event>
11    1  0.9238666E-009  0.1329047E+03  0.7561462E-02  0.1115751E+00
         22   -1    0    0    0    0  0.00000000000E+00  0.00000000000E+00  0.14188446663E+04  0.14188446663E+04  0.00000000000E+00 0.  1.
         22   -1    0    0    0    0 -0.00000000000E+00 -0.00000000000E+00 -0.22373650443E+03  0.22373650443E+03  0.00000000000E+00 0.  1.
        -24    2    1    2    0    0 -0.22408871758E+02  0.19994430882E+02 -0.11657622727E+03  0.14606479577E+03  0.82722264228E+02 0.  0.
         25    2    1    2    0    0 -0.13753496531E+02  0.74771106593E+01 -0.47136976920E+02  0.13458706003E+03  0.12508683497E+03 0.  0.
         24    2    1    2    0    0  0.36162368289E+02 -0.27471541541E+02  0.13588213661E+04  0.13619293149E+04  0.79959686858E+02 0.  0.
        -13    1    5    5    0    0  0.24594877930E+02 -0.40237190407E+02  0.12939644672E+04  0.12948235331E+04  0.00000000000E+00 0.  1.
         14    1    5    5    0    0  0.11567490359E+02  0.12765648866E+02  0.64856898915E+02  0.67105781875E+02  0.00000000000E+00 0. -1.
         13    1    3    3    0    0  0.30864838445E+02  0.55594880905E+01 -0.30058035026E+02  0.43439977322E+02  0.00000000000E+00 0. -1.
        -14    1    3    3    0    0 -0.53273710204E+02  0.14434942791E+02 -0.86518192248E+02  0.10262481845E+03  0.00000000000E+00 0.  1.
          5    1    4    4  501    0 -0.44900084219E+02  0.13353658464E+02 -0.77397843889E+02  0.90566198970E+02  0.41800000000E+01 0. -1.
         -5    1    4    4    0  501  0.31146587688E+02 -0.58765478045E+01  0.30260866969E+02  0.44020861059E+02  0.41800000000E+01 0. -1.
</event>
<event>
11    1  0.9238666E-009  0.1576370E+03  0.7561462E-02  0.1089321E+00
         22   -1    0    0    0    0  0.00000000000E+00  0.00000000000E+00  0.88390672726E+03  0.88390672726E+03  0.00000000000E+00 0. -1.
         22   -1    0    0    0    0 -0.00000000000E+00 -0.00000000000E+00 -0.16700613831E+03  0.16700613831E+03  0.00000000000E+00 0. -1.
         24    2    1    2    0    0 -0.10841780860E+03 -0.17722629737E+02 -0.98391038422E+02  0.16789234282E+03  0.80240448087E+02 0.  0.
         25    2    1    2    0    0  0.37244931357E+02  0.92592273741E+01  0.11412032475E+03  0.17361928945E+03  0.12508913200E+03 0.  0.
        -24    2    1    2    0    0  0.71172877245E+02  0.84634023631E+01  0.70117130262E+03  0.70940123329E+03  0.80446917537E+02 0.  0.
        -11    1    3    3    0    0 -0.10100831716E+02 -0.31602312513E+02 -0.42614991158E+02  0.54007133130E+02  0.00000000000E+00 0.  1.
         12    1    3    3    0    0 -0.98316976886E+02  0.13879682776E+02 -0.55776047265E+02  0.11388520969E+03  0.00000000000E+00 0. -1.
         13    1    5    5    0    0  0.18075061541E+02 -0.34746571935E+02  0.27149360629E+03  0.27430422958E+03  0.00000000000E+00 0. -1.
        -14    1    5    5    0    0  0.53097815704E+02  0.43209974298E+02  0.42967769633E+03  0.43509700371E+03  0.00000000000E+00 0.  1.
          5    1    4    4  501    0  0.22614444810E+02  0.23384204111E+02  0.13807659919E+03  0.14191847575E+03  0.41800000000E+01 0.  1.
         -5    1    4    4    0  501  0.14630486546E+02 -0.14124976737E+02 -0.23956274437E+02  0.31700813701E+02  0.41800000000E+01 0.  1.
</event>
<event>
11    1  0.9238666E-009  0.3144528E+03  0.7561462E-02  0.9942535E-01
         22   -1    0    0    0    0  0.00000000000E+00  0.00000000000E+00  0.11933525890E+03  0.11933525890E+03  0.00000000000E+00 0. -1.
         22   -1    0    0    0    0 -0.00000000000E+00 -0.00000000000E+00 -0.12784202865E+04  0.12784202865E+04  0.00000000000E+00 0.  1.
         24    2    1    2    0    0  0.19063938130E+03  0.20263033872E+03 -0.46407431876E+03  0.54681825183E+03  0.79011387361E+02 0.  0.
         25    2    1    2    0    0 -0.15625933122E+03 -0.25699445980E+03 -0.67264363918E+03  0.74736836850E+03  0.12508749713E+03 0.  0.
        -24    2    1    2    0    0 -0.34380050083E+02  0.54364121082E+02 -0.22367069695E+02  0.10356892509E+03  0.78030705070E+02 0.  0.
        -11    1    3    3    0    0  0.14469839263E+03  0.99733966705E+02 -0.26279619145E+03  0.31614289045E+03  0.00000000000E+00 0.  1.
         12    1    3    3    0    0  0.45940988673E+02  0.10289637202E+03 -0.20127812731E+03  0.23067536138E+03  0.00000000000E+00 0. -1.
         13    1    5    5    0    0 -0.14997764067E+02  0.42669570131E+02  0.24560410594E+02  0.51466871973E+02  0.00000000000E+00 0. -1.
        -14    1    5    5    0    0 -0.19382286016E+02  0.11694550951E+02 -0.46927480289E+02  0.52102053121E+02  0.00000000000E+00 0.  1.
          5    1    4    4  501    0 -0.68547360147E+02 -0.95451042306E+02 -0.13436395624E+03  0.17855191737E+03  0.41800000000E+01 0.  1.
         -5    1    4    4    0  501 -0.87711971068E+02 -0.16154341750E+03 -0.53827968294E+03  0.56881645113E+03  0.41800000000E+01 0.  1.
</event>
<event>
11    1  0.9238666E-009  0.1970715E+03  0.7561462E-02  0.1056614E+00
         22   -1    0    0    0    0  0.00000000000E+00  0.00000000000E+00  0.10936441102E+04  0.10936441102E+04  0.00000000000E+00 0.  1.
         22   -1    0    0    0    0 -0.00000000000E+00 -0.00000000000E+00 -0.84756596343E+03  0.84756596343E+03  0.00000000000E+00 0. -1.
         24    2    1    2    0    0 -0.37813786931E+02  0.13951345645E+03 -0.63333668236E+03  0.65466802210E+03  0.81123232942E+02 0.  0.
         25    2    1    2    0    0  0.12266681575E+03 -0.18279538471E+03 -0.11963943913E+03  0.28003995113E+03  0.12508988160E+03 0.  0.
        -24    2    1    2    0    0 -0.84853028822E+02  0.43281928255E+02  0.99905426823E+03  0.10065021004E+04  0.76574704342E+02 0.  0.
        -13    1    3    3    0    0 -0.94296183622E+01  0.61182377965E+02 -0.12434274949E+03  0.13890039750E+03  0.00000000000E+00 0.  1.
         14    1    3    3    0    0 -0.28384168569E+02  0.78331078486E+02 -0.50899393287E+03  0.51576762460E+03  0.00000000000E+00 0. -1.
         13    1    5    5    0    0 -0.32866184000E+02  0.42881751999E+02  0.25640749842E+03  0.26203785213E+03  0.00000000000E+00 0. -1.
        -14    1    5    5    0    0 -0.51986844822E+02  0.40017625630E+00  0.74264676981E+03  0.74446424823E+03  0.00000000000E+00 0.  1.
          5    1    4    4  501    0  0.13884565020E+03 -0.18894400594E+03 -0.10480540907E+03  0.25686494142E+03  0.41800000000E+01 0. -1.
         -5    1    4    4    0  501 -0.16178834448E+02  0.61486212374E+01 -0.14834030059E+02  0.23175009709E+02  0.41800000000E+01 0. -1.
</event>
<event>
11    1  0.9238666E-009  0.1488523E+03  0.7561462E-02  0.1098057E+00
         22   -1    0    0    0    0  0.00000000000E+00  0.00000000000E+00  0.58111392745E+03  0.58111392745E+03  0.00000000000E+00 0.  1.
         22   -1    0    0    0    0 -0.00000000000E+00 -0.00000000000E+00 -0.77522044600E+03  0.77522044600E+03  0.00000000000E+00 0.  1.
         24    2    1    2    0    0  0.27414977766E+02  0.49965433307E+02 -0.72761263923E+03  0.73408586493E+03  0.78827525628E+02 0.  0.
         25    2    1    2    0    0  0.58256293595E+02 -0.40720230582E+02  0.10624855615E+03  0.17885076623E+03  0.12508760121E+03 0.  0.
        -24    2    1    2    0    0 -0.85671271361E+02 -0.92452027256E+01  0.42725756453E+03  0.44339774229E+03  0.81409403080E+02 0.  0.
        -11    1    3    3    0    0  0.26718426995E+02  0.71154552892E+02 -0.57982741712E+03  0.58478772079E+03  0.00000000000E+00 0.  1.
         12    1    3    3    0    0  0.69655077066E+00 -0.21189119585E+02 -0.14778522211E+03  0.14929814414E+03  0.00000000000E+00 0. -1.
         13    1    5    5    0    0  0.67164458324E+01  0.16313535934E+02  0.30596186715E+02  0.35318107831E+02  0.00000000000E+00 0. -1.
        -14    1    5    5    0    0 -0.92387717193E+02 -0.25558738659E+02  0.39666137781E+03  0.40807963446E+03  0.00000000000E+00 0.  1.
          5    1    4    4  501    0 -0.66738031354E+01 -0.35558878664E+02 -0.16379959613E+02  0.39934308270E+02  0.41800000000E+01 0.  1.
         -5    1    4    4    0  501  0.64930096730E+02 -0.51613519183E+01  0.12262851576E+03  0.13891645796E+03  0.41800000000E+01 0.  1.
</event>
<event>
11    1  0.9238666E-009  0.1431617E+03  0.7561462E-02  0.1104078E+00
         22   -1    0    0    0    0  0.00000000000E+00  0.00000000000E+00  0.76682912744E+03  0.76682912744E+03  0.00000000000E+00 0. -1.
         22   -1    0    0    0    0 -0.00000000000E+00 -0.00000000000E+00 -0.23003534998E+04  0.23003534998E+04  0.00000000000E+00 0.  1.
        -24    2    1    2    0    0  0.69594508674E+02 -0.20516926570E+01 -0.22244375332E+04  0.22270447318E+04  0.82208839138E+02 0.  0.
         25    2    1    2    0    0 -0.69843867359E+02  0.25961295549E+02  0.16575822737E+01  0.14560245144E+03  0.12508066043E+03 0.  0.
         24    2    1    2    0    0  0.24935868486E+00 -0.23909602892E+02  0.68925557860E+03  0.69453544396E+03  0.82063993248E+02 0.  0.
        -13    1    5    5    0    0  0.16234692320E+02  0.19210847056E+00  0.26021953587E+02  0.30671553741E+02  0.00000000000E+00 0.  1.
         14    1    5    5    0    0 -0.15985333635E+02 -0.24101711362E+02  0.66323362502E+03  0.66386389022E+03  0.00000000000E+00 0. -1.
         11    1    3    3    0    0  0.63341081993E+02  0.23090614133E+02 -0.97019105431E+03  0.97253069411E+03  0.00000000000E+00 0. -1.
        -12    1    3    3    0    0  0.62534266805E+01 -0.25142306790E+02 -0.12542464789E+04  0.12545140377E+04  0.00000000000E+00 0.  1.
          5    1    4    4  501    0  0.34034996971E+02  0.22455445556E+02 -0.53903073945E+01  0.41341938364E+02  0.41800000000E+01 0.  1.
         -5    1    4    4    0  501 -0.10387886433E+03  0.35058499922E+01  0.70478896682E+01  0.10426051308E+03  0.41800000000E+01 0.  1.
</event>
<event>
11    1  0.9238666E-009  0.1663499E+03  0.7561462E-02  0.1081252E+00
         22   -1    0    0    0    0  0.00000000000E+00  0.00000000000E+00  0.71444790331E+03  0.71444790331E+03  0.00000000000E+00 0. -1.
         22   -1    0    0    0    0 -0.00000000000E+00 -0.00000000000E+00 -0.77849767317E+02  0.77849767317E+02  0.00000000000E+00 0.  1.
         24    2    1    2    0    0  0.10023090860E+03 -0.60604690743E+02  0.48989695238E+02  0.15048359839E+03  0.80784649317E+02 0.  0.
         25    2    1    2    0    0 -0.40337865754E+02  0.82757495493E+02  0.38634167478E+03  0.41639242280E+03  0.12508722403E+03 0.  0.
        -24    2    1    2    0    0 -0.59893042844E+02 -0.22152804750E+02  0.20126676598E+03  0.22542164945E+03  0.78922022360E+02 0.  0.
        -11    1    3    3    0    0  0.31125531828E+02 -0.45912390383E+01 -0.20544747076E+02  0.37576120607E+02  0.00000000000E+00 0.  1.
         12    1    3    3    0    0  0.69105376770E+02 -0.56013451705E+02  0.69534442314E+02  0.11290747778E+03  0.00000000000E+00 0. -1.
         11    1    5    5    0    0 -0.63211783011E+02 -0.10329587827E+02  0.20314099523E+03  0.21299928131E+03  0.00000000000E+00 0. -1.
        -12    1    5    5    0    0  0.33187401668E+01 -0.11823216923E+02 -0.18742292572E+01  0.12422368132E+02  0.00000000000E+00 0.  1.
          5    1    4    4  501    0  0.24783048228E+01  0.34837953954E+02  0.12942207977E+02  0.37480637372E+02  0.41800000000E+01 0.  1.
         -5    1    4    4    0  501 -0.42816170577E+02  0.47919541539E+02  0.37339946681E+03  0.37891178543E+03  0.41800000000E+01 0.  1.
</event>
<event>
11    1  0.9238666E-009  0.2011265E+03  0.7561462E-02  0.1053730E+00
         22   -1    0    0    0    0  0.00000000000E+00  0.00000000000E+00  0.12972203372E+04  0.12972203372E+04  0.00000000000E+00 0.  1.
         22   -1    0    0    0    0 -0.00000000000E+00 -0.00000000000E+00 -0.16811270563E+04  0.16811270563E+04  0.00000000000E+00 0. -1.
         24    2    1    2    0    0  0.30304145284E+02 -0.31126778997E+02 -0.16197571753E+04  0.16223547366E+04  0.80835430679E+02 0.  0.
         25    2    1    2    0    0  0.73718871811E+01  0.18120675224E+03  0.17605765266E+03  0.28202026993E+03  0.12509557872E+03 0.  0.
        -24    2    1    2    0    0 -0.37676032465E+02 -0.15007997324E+03  0.10597928036E+04  0.10739723869E+04  0.79450736878E+02 0.  0.
        -11    1    3    3    0    0  0.28774081517E+02 -0.11488049973E+02 -0.19375540880E+03  0.19621692460E+03  0.00000000000E+00 0.  1.
         12    1    3    3    0    0  0.15300637676E+01 -0.19638729024E+02 -0.14260017665E+04  0.14261378120E+04  0.00000000000E+00 0. -1.
         11    1    5    5    0    0  0.73347674293E+01  0.64530270345E+01  0.35888932197E+02  0.37194836004E+02  0.00000000000E+00 0. -1.
        -12    1    5    5    0    0 -0.45010799895E+02 -0.15653300028E+03  0.10239038714E+04  0.10367775509E+04  0.00000000000E+00 0.  1.
          5    1    4    4  501    0 -0.52001628093E+02  0.13551332253E+03  0.11943485501E+03  0.18801645379E+03  0.41800000000E+01 0.  1.
         -5    1    4    4    0  501  0.59373515274E+02  0.45693429713E+02  0.56622797650E+02  0.94003816139E+02  0.41800000000E+01 0.  1.
</event>
<event>
11    1  0.9238666E-009  0.1459416E+03  0.7561462E-02  0.1101099E+00
         22   -1    0    0    0    0  0.00000000000E+00  0.00000000000E+00  0.15484771851E+04  0.15484771851E+04  0.00000000000E+00 0. -1.
         22   -1    0    0    0    0 -0.00000000000E+00 -0.00000000000E+00 -0.33710068099E+03  0.33710068099E+03  0.00000000000E+00 0.  1.
        -24    2    1    2    0    0  0.63360952494E+01  0.77032902017E+02 -0.30166526206E+03  0.32114177777E+03  0.78459524585E+02 0.  0.
         25    2    1    2    0    0 -0.21163971680E+02 -0.34623989580E+02  0.15433329610E+03  0.20276353096E+03  0.12509016289E+03 0.  0.
         24    2    1    2    0    0  0.14827876431E+02 -0.42408912436E+02  0.13587084701E+04  0.13616725574E+04  0.77750016474E+02 0.  0.
        -13    1    5    5    0    0 -0.26717382137E+02 -0.40074867657E+02  0.74377631799E+03  0.74533416983E+03  0.00000000000E+00 0.  1.
         14    1    5    5    0    0  0.41545258568E+02 -0.23340447794E+01  0.61493215213E+03  0.61633838757E+03  0.00000000000E+00 0. -1.
         13    1    3    3    0    0  0.19906285541E+02 -0.18126334642E+01 -0.19772947341E+02  0.28116103761E+02  0.00000000000E+00 0. -1.
        -14    1    3    3    0    0 -0.13570190292E+02  0.78845535481E+02 -0.28189231472E+03  0.29302567400E+03  0.00000000000E+00 0.  1.
          5    1    4    4  501    0 -0.40674245287E+02 -0.43421425432E+01 -0.30737134337E+01  0.41233100124E+02  0.41800000000E+01 0. -1.
         -5    1    4    4    0  501  0.19510273607E+02 -0.30281847037E+02  0.15740700953E+03  0.16153043084E+03  0.41800000000E+01 0. -1.
</event>
<event>
11    1  0.9238666E-009  0.1789545E+03  0.7561462E-02  0.1070492E+00
         22   -1    0    0    0    0  0.00000000000E+00  0.00000000000E+00  0.12929709673E+04  0.12929709673E+04  0.00000000000E+00 0. -1.
         22   -1    0    0    0    0 -0.00000000000E+00 -0.00000000000E+00 -0.36964157434E+03  0.36964157434E+03  0.00000000000E+00 0. -1.
         24    2    1    2    0    0  0.21935393866E+02 -0.98291849607E+01 -0.31373378355E+03  0.32478566517E+03  0.80492651704E+02 0.  0.
         25    2    1    2    0    0 -0.13475500561E+03 -0.47175783378E+02  0.15403539668E+03  0.24445693567E+03  0.12509126227E+03 0.  0.
        -24    2    1    2    0    0  0.11281961174E+03  0.57004968338E+02  0.10830277798E+04  0.10933699408E+04  0.80813515918E+02 0.  0.
        -13    1    3    3    0    0  0.46603207915E+02 -0.19695799064E+02 -0.13656230090E+03  0.14563325690E+03  0.00000000000E+00 0.  1.
         14    1    3    3    0    0 -0.24667814049E+02  0.98666141028E+01 -0.17717148265E+03  0.17915240827E+03  0.00000000000E+00 0. -1.
         11    1    5    5    0    0  0.23511657185E+02  0.53347268143E+02  0.52531198286E+03  0.52853704542E+03  0.00000000000E+00 0. -1.
        -12    1    5    5    0    0  0.89307954557E+02  0.36577001952E+01  0.55771579695E+03  0.56483289536E+03  0.00000000000E+00 0.  1.
          5    1    4    4  501    0  0.46359479492E+01  0.48942766568E+01  0.75947821186E+02  0.76360918671E+02  0.41800000000E+01 0. -1.
         -5    1    4    4    0  501 -0.13939095356E+03 -0.52070060034E+02  0.78087575491E+02  0.16809601700E+03  0.41800000000E+01 0. -1.
</event>
<event>
11    1  0.9238666E-009  0.1323216E+03  0.7561462E-02  0.1116449E+00
         22   -1    0    0    0    0  0.00000000000E+00  0.00000000000E+00  0.80035167324E+03  0.80035167324E+03  0.00000000000E+00 0.  1.
         22   -1    0    0    0    0 -0.00000000000E+00 -0.00000000000E+00 -0.15689100952E+03  0.15689100952E+03  0.00000000000E+00 0. -1.
         24    2    1    2    0    0  0.44842946515E+02  0.70674919587E+01 -0.92661532399E+02  0.13176651296E+03  0.81947636069E+02 0.  0.
         25    2    1    2    0    0 -0.25115661759E+02 -0.32570321898E+02  0.61459300425E+02  0.14530930813E+03  0.12508368033E+03 0.  0.
        -24    2    1    2    0    0 -0.19727284756E+02  0.25502829939E+02  0.67466289569E+03  0.68016686166E+03  0.80108531285E+02 0.  0.
        -13    1    3    3    0    0  0.99876129639E+01 -0.33762276825E+02 -0.17273677651E+02  0.39217645119E+02  0.00000000000E+00 0.  1.
         14    1    3    3    0    0  0.34855333551E+02  0.40829768783E+02 -0.75387854748E+02  0.92548867844E+02  0.00000000000E+00 0. -1.
         11    1    5    5    0    0 -0.85741264700E+01 -0.24169117594E+02  0.99368617277E+02  0.10262448046E+03  0.00000000000E+00 0. -1.
        -12    1    5    5    0    0 -0.11153158286E+02  0.49671947533E+02  0.57529427842E+03  0.57754238121E+03  0.00000000000E+00 0.  1.
          5    1    4    4  501    0  0.48922707750E+01 -0.62301457520E+02 -0.87742106580E+01  0.63244486678E+02  0.41800000000E+01 0.  1.
         -5    1    4    4    0  501 -0.30007932534E+02  0.29731135623E+02  0.70233511083E+02  0.82064821449E+02  0.41800000000E+01 0.  1.
</event>
<event>
11    1  0.9238666E-009  0.1672381E+03  0.7561462E-02  0.1080460E+00
         22   -1    0    0    0    0  0.00000000000E+00  0.00000000000E+00  0.12344186851E+03  0.12344186851E+03  0.00000000000E+00 0.  1.
         22   -1    0    0    0    0 -0.00000000000E+00 -0.00000000000E+00 -0.42464195820E+04  0.42464195820E+04  0.00000000000E+00 0. -1.
        -24    2    1    2    0    0 -0.10575907166E+03 -0.41584830932E+02 -0.33780663693E+04  0.33809343739E+04  0.80439826010E+02 0.  0.
         25    2    1    2    0    0  0.93635880181E+02  0.27713979600E+02 -0.84432230296E+03  0.85910725863E+03  0.12509751326E+03 0.  0.
         24    2    1    2    0    0  0.12123191484E+02  0.13870851332E+02  0.99410958808E+02  0.12981981798E+03  0.81432635486E+02 0.  0.
        -11    1    5    5    0    0  0.15170575023E+02  0.45611029677E+02  0.77268162716E+02  0.90999348043E+02  0.00000000000E+00 0.  1.
         12    1    5    5    0    0 -0.30473835398E+01 -0.31740178344E+02  0.22142796092E+02  0.38820469942E+02  0.00000000000E+00 0. -1.
         13    1    3    3    0    0 -0.81158778237E+02  0.26798932881E+01 -0.25701208608E+04  0.25714033461E+04  0.00000000000E+00 0. -1.
        -14    1    3    3    0    0 -0.24600293427E+02 -0.44264724220E+02 -0.80794550847E+03  0.80953102776E+03  0.00000000000E+00 0.  1.
          5    1    4    4  501    0 -0.74463859297E+00  0.56044451503E+02 -0.22127361254E+03  0.22830028261E+03  0.41800000000E+01 0. -1.
         -5    1    4    4    0  501  0.94380518774E+02 -0.28330471903E+02 -0.62304869042E+03  0.63080697602E+03  0.41800000000E+01 0. -1.
</event>
<event>
11    1  0.9238666E-009  0.1671342E+03  0.7561462E-02  0.1080553E+00
         22   -1    0    0    0    0  0.00000000000E+00  0.00000000000E+00  0.30467571221E+03  0.30467571221E+03  0.00000000000E+00 0.  1.
         22   -1    0    0    0    0 -0.00000000000E+00 -0.00000000000E+00 -0.22151467103E+04  0.22151467103E+04  0.00000000000E+00 0. -1.
         24    2    1    2    0    0  0.26962375195E+02 -0.96811017931E+02 -0.15841812500E+04  0.15894286445E+04  0.80955790708E+02 0.  0.
         25    2    1    2    0    0 -0.76954731727E+02  0.18893238205E+03 -0.59024297654E+03  0.63690736663E+03  0.12508695608E+03 0.  0.
        -24    2    1    2    0    0  0.49992356531E+02 -0.92121364122E+02  0.26395322850E+03  0.29348641139E+03  0.74009360183E+02 0.  0.
        -11    1    3    3    0    0  0.44479888580E+02 -0.20936733194E+02 -0.48220997393E+03  0.48470946581E+03  0.00000000000E+00 0.  1.
         12    1    3    3    0    0 -0.17517513385E+02 -0.75874284737E+02 -0.11019712761E+04  0.11047191787E+04  0.00000000000E+00 0. -1.
         11    1    5    5    0    0  0.32326553184E+02 -0.92586958896E+02  0.15720739581E+03  0.18528765824E+03  0.00000000000E+00 0. -1.
        -12    1    5    5    0    0  0.17665803348E+02  0.46559477399E+00  0.10674583269E+03  0.10819875315E+03  0.00000000000E+00 0.  1.
          5    1    4    4  501    0  0.29240374019E+02  0.64689758906E+02 -0.24128874339E+03  0.25155018280E+03  0.41800000000E+01 0. -1.
         -5    1    4    4    0  501 -0.10619510575E+03  0.12424262315E+03 -0.34895423315E+03  0.38535718382E+03  0.41800000000E+01 0. -1.
</event>
<event>
11    1  0.9238666E-009  0.2543362E+03  0.7561462E-02  0.1021614E+00
         22   -1    0    0    0    0  0.00000000000E+00  0.00000000000E+00  0.42922773205E+03  0.42922773205E+03  0.00000000000E+00 0.  1.
         22   -1    0    0    0    0 -0.00000000000E+00 -0.00000000000E+00 -0.49640300925E+03  0.49640300925E+03  0.00000000000E+00 0. -1.
        -24    2    1    2    0    0 -0.20439085407E+03 -0.13131892055E+03 -0.25227525747E+03  0.35921793145E+03  0.79840069035E+02 0.  0.
         25    2    1    2    0    0  0.16071797812E+03  0.10627000650E+03 -0.11266361769E+03  0.25586163151E+03  0.12509396850E+03 0.  0.
         24    2    1    2    0    0  0.43672875953E+02  0.25048914051E+02  0.29776359796E+03  0.31055117834E+03  0.72416199242E+02 0.  0.
        -11    1    5    5    0    0  0.34357381749E+02  0.40356476100E+02  0.28119364732E+03  0.28614496700E+03  0.00000000000E+00 0.  1.
         12    1    5    5    0    0  0.93154942038E+01 -0.15307562049E+02  0.16569950634E+02  0.24406211344E+02  0.00000000000E+00 0. -1.
         13    1    3    3    0    0 -0.41000081127E+02 -0.66498292527E+02 -0.58525440174E+02  0.97612789680E+02  0.00000000000E+00 0. -1.
        -14    1    3    3    0    0 -0.16339077294E+03 -0.64820628027E+02 -0.19374981729E+03  0.26160514177E+03  0.00000000000E+00 0.  1.
          5    1    4    4  501    0  0.13716710265E+03  0.64109806991E+02 -0.22004193606E+02  0.15305730410E+03  0.41800000000E+01 0. -1.
         -5    1    4    4    0  501  0.23550875463E+02  0.42160199511E+02 -0.90659424086E+02  0.10280432741E+03  0.41800000000E+01 0. -1.
</event>
<event>
11    1  0.9238666E-009  0.1639334E+03  0.7561462E-02  0.1083435E+00
         22   -1    0    0    0    0  0.00000000000E+00  0.00000000000E+00  0.10533716542E+04  0.10533716542E+04  0.00000000000E+00 0.  1.
         22   -1    0    0    0    0 -0.00000000000E+00 -0.00000000000E+00 -0.12165607590E+04  0.12165607590E+04  0.00000000000E+00 0.  1.
         24    2    1    2    0    0  0.26923563030E+02  0.10094046867E+03 -0.11516289987E+04  0.11595326783E+04  0.85748614071E+02 0.  0.
         25    2    1    2    0    0 -0.45221060119E+02 -0.19001744985E+03  0.18225614415E+03  0.29498806529E+03  0.12509628714E+03 0.  0.
        -24    2    1    2    0    0  0.18297497089E+02  0.89076981179E+02  0.80618374982E+03  0.81541166966E+03  0.81819591570E+02 0.  0.
        -13    1    3    3    0    0 -0.66356947716E+01 -0.89718201565E+01 -0.29724622166E+03  0.29745561398E+03  0.00000000000E+00 0.  1.
         14    1    3    3    0    0  0.33559257801E+02  0.10991228882E+03 -0.85438277709E+03  0.86207706430E+03  0.00000000000E+00 0. -1.
         11    1    5    5    0    0  0.29425207476E+02  0.51291644207E+02  0.21699722656E+03  0.22490991961E+03  0.00000000000E+00 0. -1.
        -12    1    5    5    0    0 -0.11127710387E+02  0.37785336973E+02  0.58918652326E+03  0.59050175005E+03  0.00000000000E+00 0.  1.
          5    1    4    4  501    0 -0.51956275161E+02 -0.10658457489E+03  0.31914671846E+02  0.12286474194E+03  0.41800000000E+01 0.  1.
         -5    1    4    4    0  501  0.67352150421E+01 -0.83432874953E+02  0.15034147230E+03  0.17212332334E+03  0.41800000000E+01 0.  1.
</event>
<event>
11    1  0.9238666E-009  0.1459814E+03  0.7561462E-02  0.1101057E+00
         22   -1    0    0    0    0  0.00000000000E+00  0.00000000000E+00  0.86088700837E+03  0.86088700837E+03  0.00000000000E+00 0.  1.
         22   -1    0    0    0    0 -0.00000000000E+00 -0.00000000000E+00 -0.27668623283E+03  0.27668623283E+03  0.00000000000E+00 0. -1.
         24    2    1    2    0    0 -0.31297963125E+02  0.34643300125E+02 -0.19308512445E+03  0.21516206847E+03  0.82662746661E+02 0.  0.
         25    2    1    2    0    0  0.41187947836E+02  0.41597449642E+02  0.93142748072E+00  0.13811720406E+03  0.12509476263E+03 0.  0.
        -24    2    1    2    0    0 -0.98899847113E+01 -0.76240749767E+02  0.77635447250E+03  0.78429396867E+03  0.80500301833E+02 0.  0.
        -13    1    3    3    0    0  0.13188121940E+01 -0.11795748187E+02  0.19591309750E+01  0.12029843518E+02  0.00000000000E+00 0.  1.
         14    1    3    3    0    0 -0.32616775319E+02  0.46439048311E+02 -0.19504425542E+03  0.20313222495E+03  0.00000000000E+00 0. -1.
         11    1    5    5    0    0 -0.19030488802E+02 -0.75020080775E+01  0.42458518675E+02  0.47129241850E+02  0.00000000000E+00 0. -1.
        -12    1    5    5    0    0  0.91405040910E+01 -0.68738741690E+02  0.73389595382E+03  0.73716472682E+03  0.00000000000E+00 0.  1.
          5    1    4    4  501    0  0.81587335080E+02  0.29774461476E+01 -0.40645359905E+01  0.81849564958E+02  0.41800000000E+01 0.  1.
         -5    1    4    4    0  501 -0.40399387244E+02  0.38620003495E+02  0.49959634712E+01  0.56267639106E+02  0.41800000000E+01 0.  1.
</event>
<event>
11    1  0.9238666E-009  0.1336016E+03  0.7561462E-02  0.1114921E+00
         22   -1    0    0    0    0  0.00000000000E+00  0.00000000000E+00  0.92772361219E+03  0.92772361219E+03  0.00000000000E+00 0. -1.
         22   -1    0    0    0    0 -0.00000000000E+00 -0.00000000000E+00 -0.12062767954E+04  0.12062767954E+04  0.00000000000E+00 0. -1.
        -24    2    1    2    0    0 -0.33075113240E+02  0.33104225522E+02 -0.11567308888E+04  0.11606229442E+04  0.82640285111E+02 0.  0.
         25    2    1    2    0    0  0.67522750254E+02 -0.92819963172E+01  0.67357453548E+02  0.15757411334E+03  0.12508835833E+03 0.  0.
         24    2    1    2    0    0 -0.34447637014E+02 -0.23822229204E+02  0.81082025208E+03  0.81580334998E+03  0.79696212941E+02 0.  0.
        -11    1    5    5    0    0 -0.39428324549E+02 -0.39614188847E+01  0.16623016305E+03  0.17088812927E+03  0.00000000000E+00 0.  1.
         12    1    5    5    0    0  0.49806875343E+01 -0.19860810320E+02  0.64459008902E+03  0.64491522071E+03  0.00000000000E+00 0. -1.
         13    1    3    3    0    0  0.12050531381E+02  0.45761859006E+02 -0.50685776946E+03  0.50906204093E+03  0.00000000000E+00 0. -1.
        -14    1    3    3    0    0 -0.45125644621E+02 -0.12657633485E+02 -0.64987311932E+03  0.65156090330E+03  0.00000000000E+00 0.  1.
          5    1    4    4  501    0 -0.16585616346E+02 -0.68023370172E+01  0.70900483870E+02  0.73250975908E+02  0.41800000000E+01 0. -1.
         -5    1    4    4    0  501  0.84108366600E+02 -0.24796593000E+01 -0.35430303219E+01  0.84323137431E+02  0.41800000000E+01 0. -1.
</event>
<event>
11    1  0.9238666E-009  0.1302406E+03  0.7561462E-02  0.1118974E+00
         22   -1    0    0    0    0  0.00000000000E+00  0.00000000000E+00  0.31233860501E+03  0.31233860501E+03  0.00000000000E+00 0.  1.
         22   -1    0    0    0    0 -0.00000000000E+00 -0.00000000000E+00 -0.36374919820E+03  0.36374919820E+03  0.00000000000E+00 0. -1.
         24    2    1    2    0    0  0.19854339514E+02  0.31711625708E+02 -0.32007347430E+03  0.33220728404E+03  0.80714488275E+02 0.  0.
         25    2    1    2    0    0 -0.19170415045E+02 -0.14449444874E+01  0.12521599677E+03  0.17800275791E+03  0.12504536496E+03 0.  0.
        -24    2    1    2    0    0 -0.68392446913E+00 -0.30266681221E+02  0.14344688434E+03  0.16587776126E+03  0.77600794513E+02 0.  0.
        -13    1    3    3    0    0 -0.27228737194E+02  0.30570917743E+02 -0.12519495952E+03  0.13171849920E+03  0.00000000000E+00 0.  1.
         14    1    3    3    0    0  0.47083076707E+02  0.11407079653E+01 -0.19487851478E+03  0.20048878485E+03  0.00000000000E+00 0. -1.
         11    1    5    5    0    0  0.19624742527E+02 -0.15100330031E+02  0.51685375092E+01  0.25295538466E+02  0.00000000000E+00 0. -1.
        -12    1    5    5    0    0 -0.20308666996E+02 -0.15166351190E+02  0.13827834683E+03  0.14058222279E+03  0.00000000000E+00 0.  1.
          5    1    4    4  501    0 -0.37569271573E+02  0.54769123677E+02  0.75317008877E+02  0.10050488198E+03  0.41800000000E+01 0. -1.
         -5    1    4    4    0  501  0.18398856528E+02 -0.56214068165E+02  0.49898987889E+02  0.77497875929E+02  0.41800000000E+01 0. -1.
</event>
<event>
11    1  0.9238666E-009  0.1522858E+03  0.7561462E-02  0.1094566E+00
         22   -1    0    0    0    0  0.00000000000E+00  0.00000000000E+00  0.25645848293E+03  0.25645848293E+03  0.00000000000E+00 0.  1.
         22   -1    0    0    0    0 -0.00000000000E+00 -0.00000000000E+00 -0.59154672422E+03  0.59154672422E+03  0.00000000000E+00 0.  1.
        -24    2    1    2    0    0  0.49790741333E+02  0.77404314382E+02 -0.41941489363E+03  0.43653282358E+03  0.78622562012E+02 0.  0.
         25    2    1    2    0    0 -0.93322541249E+02 -0.68435203754E+01 -0.10589302993E+03  0.18872323353E+03  0.12508874693E+03 0.  0.
         24    2    1    2    0    0  0.43531799916E+02 -0.70560794007E+02  0.19021968226E+03  0.22274915004E+03  0.80992672939E+02 0.  0.
        -13    1    5    5    0    0  0.23332149810E+02  0.12601796102E+02  0.72587806968E+02  0.77279908128E+02  0.00000000000E+00 0.  1.
         14    1    5    5    0    0  0.20199650106E+02 -0.83162590109E+02  0.11763187530E+03  0.14546924192E+03  0.00000000000E+00 0. -1.
         11    1    3    3    0    0 -0.18571410608E+01  0.60031655587E+02 -0.14838234891E+03  0.16007676319E+03  0.00000000000E+00 0. -1.
        -12    1    3    3    0    0  0.51647882393E+02  0.17372658795E+02 -0.27103254472E+03  0.27645606039E+03  0.00000000000E+00 0.  1.
          5    1    4    4  501    0 -0.10683672716E+03  0.27372488339E+02 -0.48796245540E+02  0.12067263720E+03  0.41800000000E+01 0. -1.
         -5    1    4    4    0  501  0.13514185916E+02 -0.34216008715E+02 -0.57096784388E+02  0.68050596329E+02  0.41800000000E+01 0. -1.
</event>
<event>
11    1  0.9238666E-009  0.1585824E+03  0.7561462E-02  0.1088418E+00
         22   -1    0    0    0    0  0.00000000000E+00  0.00000000000E+00  0.32190614088E+02  0.32190614088E+02  0.00000000000E+00 0. -1.
         22   -1    0    0    0    0 -0.00000000000E+00 -0.00000000000E+00 -0.30462531213E+04  0.30462531213E+04  0.00000000000E+00 0. -1.
        -24    2    1    2    0    0  0.10002601567E+03  0.28463423644E+02 -0.24915602035E+04  0.24950202475E+04  0.80239750337E+02 0.  0.
         25    2    1    2    0    0 -0.59870667743E+02  0.15752672016E+02 -0.41040427917E+03  0.43348810464E+03  0.12509045115E+03 0.  0.
         24    2    1    2    0    0 -0.40155347923E+02 -0.44216095661E+02 -0.11209802448E+03  0.14993538317E+03  0.79668920874E+02 0.  0.
        -11    1    5    5    0    0 -0.95713406749E+01  0.22608274795E+02 -0.17520281855E+02  0.30161315088E+02  0.00000000000E+00 0.  1.
         12    1    5    5    0    0 -0.30584007248E+02 -0.66824370456E+02 -0.94577742620E+02  0.11977406808E+03  0.00000000000E+00 0. -1.
         13    1    3    3    0    0  0.81832462536E+02  0.28878563456E+01 -0.22419008313E+04  0.22433956916E+04  0.00000000000E+00 0. -1.
        -14    1    3    3    0    0  0.18193553129E+02  0.25575567299E+02 -0.24965937221E+03  0.25162455594E+03  0.00000000000E+00 0.  1.
          5    1    4    4  501    0  0.27336830006E+02  0.40219867732E+02 -0.15114421208E+03  0.15883005157E+03  0.41800000000E+01 0. -1.
         -5    1    4    4    0  501 -0.87207497748E+02 -0.24467195715E+02 -0.25926006709E+03  0.27465805307E+03  0.41800000000E+01 0. -1.
</event>
<event>
11    1  0.9238666E-009  0.2195429E+03  0.7561462E-02  0.1041504E+00
         22   -1    0    0    0    0  0.00000000000E+00  0.00000000000E+00  0.10601032996E+03  0.10601032996E+03  0.00000000000E+00 0.  1.
         22   -1    0    0    0    0 -0.00000000000E+00 -0.00000000000E+00 -0.17470227584E+04  0.17470227584E+04  0.00000000000E+00 0. -1.
         24    2    1    2    0    0 -0.16179423168E+03 -0.52695006048E+02 -0.10049771580E+04  0.10227535000E+04  0.84211023641E+02 0.  0.
         25    2    1    2    0    0  0.17822518946E+03  0.10775699012E+03 -0.68115084507E+03  0.72318069186E+03  0.12509217502E+03 0.  0.
        -24    2    1    2    0    0 -0.16430957784E+02 -0.55061984069E+02  0.45115574591E+02  0.10709889660E+03  0.78313218034E+02 0.  0.
        -13    1    3    3    0    0 -0.78735801515E+02 -0.69460769199E+02 -0.53745753257E+03  0.54761731548E+03  0.00000000000E+00 0.  1.
         14    1    3    3    0    0 -0.83058430162E+02  0.16765763150E+02 -0.46751962543E+03  0.47513618448E+03  0.00000000000E+00 0. -1.
         13    1    5    5    0    0  0.19679056010E+02  0.98599411425E+01  0.46226163681E+01  0.22491159749E+02  0.00000000000E+00 0. -1.
        -14    1    5    5    0    0 -0.36110013793E+02 -0.64921925212E+02  0.40492958223E+02  0.84607736851E+02  0.00000000000E+00 0.  1.
          5    1    4    4  501    0  0.27325258992E+02  0.50608079766E+02 -0.68095262709E+02  0.89231635197E+02  0.41800000000E+01 0. -1.
         -5    1    4    4    0  501  0.15089993047E+03  0.57148910352E+02 -0.61305558236E+03  0.63394905666E+03  0.41800000000E+01 0. -1.
</event>
<event>
11    1  0.9238666E-009  0.1930503E+03  0.7561462E-02  0.1059550E+00
         22   -1    0    0    0    0  0.00000000000E+00  0.00000000000E+00  0.19736187319E+03  0.19736187319E+03  0.00000000000E+00 0.  1.
         22   -1    0    0    0    0 -0.00000000000E+00 -0.00000000000E+00 -0.95595495723E+03  0.95595495723E+03  0.00000000000E+00 0.  1.
         24    2    1    2    0    0  0.14524418522E+03 -0.23584686128E+02 -0.63879011113E+03  0.66044774881E+03  0.80537643882E+02 0.  0.
         25    2    1    2    0    0 -0.14893218697E+03 -0.70468762677E+01 -0.26192446209E+03  0.32632027339E+03  0.12510012872E+03 0.  0.
        -24    2    1    2    0    0  0.36880017594E+01  0.30631562395E+02  0.14212148917E+03  0.16654880821E+03  0.81167073732E+02 0.  0.
        -11    1    3    3    0    0  0.12694406805E+03  0.77633298457E+01 -0.55023225745E+03  0.56473941145E+03  0.00000000000E+00 0.  1.
         12    1    3    3    0    0  0.18300117167E+02 -0.31348015973E+02 -0.88557853675E+02  0.95708337366E+02  0.00000000000E+00 0. -1.
         11    1    5    5    0    0  0.20470942632E+01  0.76684101457E+01 -0.99594680360E+01  0.12735231158E+02  0.00000000000E+00 0. -1.
        -12    1    5    5    0    0  0.16409074961E+01  0.22963152250E+02  0.15208095721E+03  0.15381357705E+03  0.00000000000E+00 0.  1.
          5    1    4    4  501    0  0.78763370812E+01 -0.53828160359E+01  0.86631665530E+01  0.13547481279E+02  0.41800000000E+01 0. -1.
         -5    1    4    4    0  501 -0.15680852406E+03 -0.16640602319E+01 -0.27058762864E+03  0.31277279211E+03  0.41800000000E+01 0. -1.
</event>
<event>
11    1  0.9238666E-009  0.2649436E+03  0.7561462E-02  0.1016227E+00
         22   -1    0    0    0    0  0.00000000000E+00  0.00000000000E+00  0.57669527027E+03  0.57669527027E+03  0.00000000000E+00 0. -1.
         22   -1    0    0    0    0 -0.00000000000E+00 -0.00000000000E+00 -0.65168360312E+03  0.65168360312E+03  0.00000000000E+00 0. -1.
         24    2    1    2    0    0 -0.10093550438E+00  0.71248944584E+02 -0.30806457468E+03  0.32606501964E+03  0.79612766331E+02 0.  0.
         25    2    1    2    0    0 -0.23292414914E+03 -0.80695305942E+02 -0.24170275727E+03  0.36719534540E+03  0.12508719821E+03 0.  0.
        -24    2    1    2    0    0  0.23302508465E+03  0.94463613583E+01  0.47477899910E+03  0.53511850836E+03  0.80912274602E+02 0.  0.
        -13    1    3    3    0    0 -0.33617697188E+02  0.91655821068E+01 -0.12840156342E+03  0.13304555216E+03  0.00000000000E+00 0.  1.
         14    1    3    3    0    0  0.33516761684E+02  0.62083362477E+02 -0.17966301126E+03  0.19301946748E+03  0.00000000000E+00 0. -1.
         11    1    5    5    0    0  0.14954846389E+03 -0.32212870917E+02  0.27685128414E+03  0.31630530447E+03  0.00000000000E+00 0. -1.
        -12    1    5    5    0    0  0.83476620764E+02  0.41659232275E+02  0.19792771496E+03  0.21881320389E+03  0.00000000000E+00 0.  1.
          5    1    4    4  501    0 -0.13662334172E+03  0.18675381504E+02 -0.11795268572E+03  0.18150761925E+03  0.41800000000E+01 0. -1.
         -5    1    4    4    0  501 -0.96300807425E+02 -0.99370687446E+02 -0.12375007155E+03  0.18568772615E+03  0.41800000000E+01 0. -1.
</event>
<event>
11    1  0.9238666E-009  0.1327867E+03  0.7561462E-02  0.1115892E+00
         22   -1    0    0    0    0  0.00000000000E+00  0.00000000000E+00  0.35415624989E+03  0.35415624989E+03  0.00000000000E+00 0.  1.
         22   -1    0    0    0    0 -0.00000000000E+00 -0.00000000000E+00 -0.55065544032E+03  0.55065544032E+03  0.00000000000E+00 0.  1.
        -24    2    1    2    0    0  0.29578448122E+02  0.28855352682E+02 -0.48259876484E+03  0.49073285868E+03  0.78801362906E+02 0.  0.
         25    2    1    2    0    0  0.37899924567E+00 -0.61196672398E+02  0.31297803567E+02  0.14273373158E+03  0.12509272269E+03 0.  0.
         24    2    1    2    0    0 -0.29957447368E+02  0.32341319716E+02  0.25480177085E+03  0.27134509995E+03  0.82224152331E+02 0.  0.
        -13    1    5    5    0    0 -0.58730440312E+02  0.21527753247E+02  0.17238841639E+03  0.18338613602E+03  0.00000000000E+00 0.  1.
         14    1    5    5    0    0  0.28772992944E+02  0.10813566469E+02  0.82413354458E+02  0.87958963930E+02  0.00000000000E+00 0. -1.
         11    1    3    3    0    0  0.26796929958E+02 -0.35055688057E+01 -0.49325306855E+02  0.56243669548E+02  0.00000000000E+00 0. -1.
        -12    1    3    3    0    0  0.27815181642E+01  0.32360921488E+02 -0.43327345799E+03  0.43448918914E+03  0.00000000000E+00 0.  1.
          5    1    4    4  501    0  0.26322740062E+02 -0.78991569034E+01 -0.40758187176E+02  0.49335439048E+02  0.41800000000E+01 0. -1.
         -5    1    4    4    0  501 -0.25943740817E+02 -0.53297515495E+02  0.72055990743E+02  0.93398292530E+02  0.41800000000E+01 0. -1.
</event>
<event>
11    1  0.9238666E-009  0.1513172E+03  0.7561462E-02  0.1095540E+00
         22   -1    0    0    0    0  0.00000000000E+00  0.00000000000E+00  0.16069966856E+03  0.16069966856E+03  0.00000000000E+00 0.  1.
         22   -1    0    0    0    0 -0.00000000000E+00 -0.00000000000E+00 -0.49051241408E+03  0.49051241408E+03  0.00000000000E+00 0. -1.
        -24    2    1    2    0    0  0.73664963991E+02 -0.31955760387E+02 -0.35664832943E+03  0.37697863927E+03  0.92017205113E+02 0.  0.
         25    2    1    2    0    0 -0.11078812852E+03  0.64893878666E+02 -0.95106738832E+00  0.17926043496E+03  0.12509266207E+03 0.  0.
         24    2    1    2    0    0  0.37123164529E+02 -0.32938118279E+02  0.27786651299E+02  0.94973008412E+02  0.76057381995E+02 0.  0.
        -13    1    5    5    0    0  0.42894843697E+02 -0.23052170861E+02  0.50117213604E+02  0.69879219347E+02  0.00000000000E+00 0.  1.
         14    1    5    5    0    0 -0.57716791677E+01 -0.98859474186E+01 -0.22330562305E+02  0.25093789065E+02  0.00000000000E+00 0. -1.
         13    1    3    3    0    0  0.79206921808E+02 -0.17622203601E+02 -0.35154127057E+03  0.36078462195E+03  0.00000000000E+00 0. -1.
        -14    1    3    3    0    0 -0.55419578172E+01 -0.14333556785E+02 -0.51070588562E+01  0.16194017313E+02  0.00000000000E+00 0.  1.
          5    1    4    4  501    0 -0.10956955421E+03  0.90003941740E+01 -0.32773368282E+02  0.11479573325E+03  0.41800000000E+01 0.  1.
         -5    1    4    4    0  501 -0.12185743127E+01  0.55893484492E+02  0.31822300894E+02  0.64464701707E+02  0.41800000000E+01 0.  1.
</event>
<event>
11    1  0.9238666E-009  0.1459071E+03  0.7561462E-02  0.1101136E+00
         22   -1    0    0    0    0  0.00000000000E+00  0.00000000000E+00  0.26276310409E+03  0.26276310409E+03  0.00000000000E+00 0. -1.
         22   -1    0    0    0    0 -0.00000000000E+00 -0.00000000000E+00 -0.16968838868E+04  0.16968838868E+04  0.00000000000E+00 0.  1.
         24    2    1    2    0    0 -0.86895900212E+01 -0.75373084514E+02 -0.16022586535E+04  0.16057265666E+04  0.73269387273E+02 0.  0.
         25    2    1    2    0    0 -0.30595557048E+02  0.52730794255E+02 -0.23515994704E+02  0.14112949392E+03  0.12509159553E+03 0.  0.
        -24    2    1    2    0    0  0.39285147070E+02  0.22642290259E+02  0.19165386545E+03  0.21279093041E+03  0.80577787485E+02 0.  0.
        -13    1    3    3    0    0 -0.80305112608E+01 -0.66273755751E+02 -0.15830964459E+04  0.15845034101E+04  0.00000000000E+00 0.  1.
         14    1    3    3    0    0 -0.65907876045E+00 -0.90993287633E+01 -0.19162207626E+02  0.21223156453E+02  0.00000000000E+00 0. -1.
         11    1    5    5    0    0  0.27053246048E+02  0.48439164468E+02  0.78739403342E+02  0.96323021208E+02  0.00000000000E+00 0. -1.
        -12    1    5    5    0    0  0.12231901021E+02 -0.25796874209E+02  0.11291446211E+03  0.11646790921E+03  0.00000000000E+00 0.  1.
          5    1    4    4  501    0 -0.12804091388E+02  0.59923756999E+02  0.40896709479E+02  0.73788987358E+02  0.41800000000E+01 0. -1.
         -5    1    4    4    0  501 -0.17791465661E+02 -0.71929627442E+01 -0.64412704183E+02  0.67340506558E+02  0.41800000000E+01 0. -1.
</event>
<event>
11    1  0.9238666E-009  0.1336286E+03  0.7561462E-02  0.1114889E+00
         22   -1    0    0    0    0  0.00000000000E+00  0.00000000000E+00  0.22657097484E+04  0.22657097484E+04  0.00000000000E+00 0.  1.
         22   -1    0    0    0    0 -0.00000000000E+00 -0.00000000000E+00 -0.14660027051E+03  0.14660027051E+03  0.00000000000E+00 0.  1.
         24    2    1    2    0    0  0.30420080179E+02  0.79606586112E+01 -0.88365158952E+02  0.12502523778E+03  0.82668950648E+02 0.  0.
         25    2    1    2    0    0 -0.18700635672E+01 -0.45627121725E+02  0.74931583894E+02  0.15280645561E+03  0.12509891781E+03 0.  0.
        -24    2    1    2    0    0 -0.28550016612E+02  0.37666463114E+02  0.21325430529E+04  0.21344783255E+04  0.77614325578E+02 0.  0.
        -11    1    3    3    0    0  0.29264744926E+02  0.14473537877E+02  0.35786534366E+01  0.32843802378E+02  0.00000000000E+00 0.  1.
         12    1    3    3    0    0  0.11553352535E+01 -0.65128792653E+01 -0.91943812388E+02  0.92181435400E+02  0.00000000000E+00 0. -1.
         11    1    5    5    0    0  0.25937854493E+02  0.16994989759E+02  0.56254684866E+03  0.56340088650E+03  0.00000000000E+00 0. -1.
        -12    1    5    5    0    0 -0.54487871105E+02  0.20671473355E+02  0.15699962043E+04  0.15710774390E+04  0.00000000000E+00 0.  1.
          5    1    4    4  501    0 -0.26679010923E+02  0.32804621332E+02  0.52302539443E+02  0.67386503372E+02  0.41800000000E+01 0. -1.
         -5    1    4    4    0  501  0.24808947356E+02 -0.78431743057E+02  0.22629044450E+02  0.85419952240E+02  0.41800000000E+01 0. -1.
</event>
<event>
11    1  0.9238666E-009  0.1331799E+03  0.7561462E-02  0.1115422E+00
         22   -1    0    0    0    0  0.00000000000E+00  0.00000000000E+00  0.17280415043E+03  0.17280415043E+03  0.00000000000E+00 0. -1.
         22   -1    0    0    0    0 -0.00000000000E+00 -0.00000000000E+00 -0.27642812354E+04  0.27642812354E+04  0.00000000000E+00 0. -1.
         24    2    1    2    0    0  0.44057185810E+02  0.11964111889E+02 -0.23462823751E+04  0.23480775368E+04  0.79642698264E+02 0.  0.
         25    2    1    2    0    0 -0.36800358455E+02 -0.39372779648E+02 -0.39496859088E+03  0.41779410327E+03  0.12508893950E+03 0.  0.
        -24    2    1    2    0    0 -0.72568273553E+01  0.27408667759E+02  0.14977388098E+03  0.17121374581E+03  0.77961751641E+02 0.  0.
        -11    1    3    3    0    0 -0.21346132566E+02 -0.78992784743E+01 -0.47055493840E+03  0.47110509022E+03  0.00000000000E+00 0.  1.
         12    1    3    3    0    0  0.65403318376E+02  0.19863390363E+02 -0.18757274367E+04  0.18769724465E+04  0.00000000000E+00 0. -1.
         11    1    5    5    0    0  0.15998224976E+02  0.39824948513E+02  0.13350920029E+03  0.14023792743E+03  0.00000000000E+00 0. -1.
        -12    1    5    5    0    0 -0.23255052331E+02 -0.12416280755E+02  0.16264680693E+02  0.30975818387E+02  0.00000000000E+00 0.  1.
          5    1    4    4  501    0 -0.15886690783E+02  0.32932659426E+02 -0.26501425989E+03  0.26755742812E+03  0.41800000000E+01 0. -1.
         -5    1    4    4    0  501 -0.20913667672E+02 -0.72305439073E+02 -0.12995433099E+03  0.15023667514E+03  0.41800000000E+01 0. -1.
</event>
<event>
11    1  0.1137596E-008  0.1561349E+03  0.7561462E-02  0.1090770E+00
         22   -1    0    0    0    0  0.00000000000E+00  0.00000000000E+00  0.81141204165E+03  0.81141204165E+03  0.00000000000E+00 0.  1.
         22   -1    0    0    0    0 -0.00000000000E+00 -0.00000000000E+00 -0.88993564184E+03  0.88993564184E+03  0.00000000000E+00 0. -1.
         24    2    1    2    0    0 -0.10691337737E+01 -0.24418456807E+02 -0.69139416082E+03  0.69647185714E+03  0.80310385937E+02 0.  0.
         25    2    1    2    0    0 -0.84363796087E+02 -0.14100582272E+02 -0.16100914755E+03  0.22110476203E+03  0.12508914297E+03 0.  0.
        -24    2    1    2    0    0  0.85432929861E+02  0.38519039079E+02  0.77387970818E+03  0.78377106431E+03  0.81392730846E+02 0.  0.
        -11    1    3    3    0    0 -0.96994221408E+01  0.11410910150E+02 -0.25602824736E+02  0.29661292871E+02  0.00000000000E+00 0.  1.
         12    1    3    3    0    0  0.86302883671E+01 -0.35829366957E+02 -0.66579133608E+03  0.66681056427E+03  0.00000000000E+00 0. -1.
         11    1    5    5    0    0  0.11922673182E+02 -0.23323265756E+02  0.11642448438E+03  0.11933476202E+03  0.00000000000E+00 0. -1.
        -12    1    5    5    0    0  0.73510256679E+02  0.61842304835E+02  0.65745522380E+03  0.66443630229E+03  0.00000000000E+00 0.  1.
          5    1    4    4  501    0 -0.35544823015E+02 -0.65439076821E+02 -0.11309859307E+03  0.13547867498E+03  0.41800000000E+01 0. -1.
         -5    1    4    4    0  501 -0.48818973072E+02  0.51338494549E+02 -0.47910554482E+02  0.85626087059E+02  0.41800000000E+01 0. -1.
</event>
<event>
11    1  0.9238666E-009  0.1895448E+03  0.7561462E-02  0.1062174E+00
         22   -1    0    0    0    0  0.00000000000E+00  0.00000000000E+00  0.31193178350E+03  0.31193178350E+03  0.00000000000E+00 0. -1.
         22   -1    0    0    0    0 -0.00000000000E+00 -0.00000000000E+00 -0.13360404255E+04  0.13360404255E+04  0.00000000000E+00 0. -1.
        -24    2    1    2    0    0  0.41162421852E+02 -0.13298176534E+03 -0.10935700593E+04  0.11053276775E+04  0.80469281108E+02 0.  0.
         25    2    1    2    0    0 -0.88050257516E+02  0.14984092315E+03 -0.17748916198E+03  0.27812995465E+03  0.12509483983E+03 0.  0.
         24    2    1    2    0    0  0.46887835663E+02 -0.16859157807E+02  0.24695057935E+03  0.26451457677E+03  0.80626747100E+02 0.  0.
        -13    1    5    5    0    0 -0.21195781441E+02 -0.24617216241E+01  0.31043795113E+02  0.37670126616E+02  0.00000000000E+00 0.  1.
         14    1    5    5    0    0  0.68083617104E+02 -0.14397436183E+02  0.21590678424E+03  0.22684445015E+03  0.00000000000E+00 0. -1.
         11    1    3    3    0    0  0.27676394416E+02 -0.55845894141E+02 -0.76585650088E+03  0.76838852583E+03  0.00000000000E+00 0. -1.
        -12    1    3    3    0    0  0.13486027436E+02 -0.77135871202E+02 -0.32771355845E+03  0.33693915171E+03  0.00000000000E+00 0.  1.
          5    1    4    4  501    0 -0.36634901868E+02  0.15694775507E+03 -0.14440105335E+03  0.21643440222E+03  0.41800000000E+01 0. -1.
         -5    1    4    4    0  501 -0.51415355648E+02 -0.71068319193E+01 -0.33088108624E+02  0.61695552422E+02  0.41800000000E+01 0. -1.
</event>
<event>
11    1  0.9238666E-009  0.1425310E+03  0.7561462E-02  0.1104765E+00
         22   -1    0    0    0    0  0.00000000000E+00  0.00000000000E+00  0.26589021211E+03  0.26589021211E+03  0.00000000000E+00 0.  1.
         22   -1    0    0    0    0 -0.00000000000E+00 -0.00000000000E+00 -0.12055391571E+04  0.12055391571E+04  0.00000000000E+00 0. -1.
        -24    2    1    2    0    0  0.52637778328E+02 -0.96070119802E+01 -0.10129155327E+04  0.10175195198E+04  0.80529909802E+02 0.  0.
         25    2    1    2    0    0 -0.11770970162E+03  0.73575960181E+01 -0.13726728134E+03  0.21999727359E+03  0.12508711280E+03 0.  0.
         24    2    1    2    0    0  0.65071923289E+02  0.22494159620E+01  0.21053386903E+03  0.23391257585E+03  0.78429382627E+02 0.  0.
        -13    1    5    5    0    0  0.98779355849E+01 -0.27542059225E+02  0.12170052842E+03  0.12516851543E+03  0.00000000000E+00 0.  1.
         14    1    5    5    0    0  0.55193987704E+02  0.29791475187E+02  0.88833340619E+02  0.10874406043E+03  0.00000000000E+00 0. -1.
         11    1    3    3    0    0  0.68813696699E+02 -0.16397979591E+02 -0.93411288409E+03  0.93678764873E+03  0.00000000000E+00 0. -1.
        -12    1    3    3    0    0 -0.16175918371E+02  0.67909676104E+01 -0.78802648580E+02  0.80731871027E+02  0.00000000000E+00 0.  1.
          5    1    4    4  501    0 -0.12541510019E+03  0.44902064818E+02 -0.10347086671E+03  0.16872710345E+03  0.41800000000E+01 0.  1.
         -5    1    4    4    0  501  0.77053985754E+01 -0.37544468799E+02 -0.33796414627E+02  0.51270170141E+02  0.41800000000E+01 0.  1.
</event>
<event>
11    1  0.9238666E-009  0.1424769E+03  0.7561462E-02  0.1104824E+00
         22   -1    0    0    0    0  0.00000000000E+00  0.00000000000E+00  0.29270132366E+04  0.29270132366E+04  0.00000000000E+00 0. -1.
         22   -1    0    0    0    0 -0.00000000000E+00 -0.00000000000E+00 -0.21794605503E+03  0.21794605503E+03  0.00000000000E+00 0.  1.
         24    2    1    2    0    0  0.29529224771E+02 -0.54470324193E+01 -0.19810353602E+03  0.21598190383E+03  0.80632044001E+02 0.  0.
         25    2    1    2    0    0 -0.80751239357E+02 -0.36302196607E+02  0.59324474694E+03  0.61272002191E+03  0.12509149989E+03 0.  0.
        -24    2    1    2    0    0  0.51222014586E+02  0.41749229026E+02  0.23139259707E+04  0.23162573659E+04  0.80175398163E+02 0.  0.
        -11    1    3    3    0    0  0.47049156847E+01 -0.77561447095E+01 -0.18933680761E+03  0.18955400478E+03  0.00000000000E+00 0.  1.
         12    1    3    3    0    0  0.24824309086E+02  0.23091122901E+01 -0.87667284138E+01  0.26427899051E+02  0.00000000000E+00 0. -1.
         11    1    5    5    0    0  0.71211000372E+02  0.37704221227E+02  0.20307560563E+04  0.20323539985E+04  0.00000000000E+00 0. -1.
        -12    1    5    5    0    0 -0.19988985786E+02  0.40450077988E+01  0.28316991440E+03  0.28390336747E+03  0.00000000000E+00 0.  1.
          5    1    4    4  501    0 -0.97642115150E+02  0.13997310292E+02  0.34592601038E+03  0.35973905043E+03  0.41800000000E+01 0. -1.
         -5    1    4    4    0  501  0.16890875793E+02 -0.50299506899E+02  0.24731873655E+03  0.25298097148E+03  0.41800000000E+01 0. -1.
</event>
<event>
11    1  0.9238666E-009  0.1318079E+03  0.7561462E-02  0.1117067E+00
         22   -1    0    0    0    0  0.00000000000E+00  0.00000000000E+00  0.20824829524E+04  0.20824829524E+04  0.00000000000E+00 0.  1.
         22   -1    0    0    0    0 -0.00000000000E+00 -0.00000000000E+00 -0.12895739353E+04  0.12895739353E+04  0.00000000000E+00 0.  1.
        -24    2    1    2    0    0 -0.39361419426E+02  0.14336074758E+02 -0.12609776335E+04  0.12645880125E+04  0.85810284425E+02 0.  0.
         25    2    1    2    0    0  0.69013145172E+01 -0.21941602871E+02  0.13076853602E+03  0.18241281547E+03  0.12507982713E+03 0.  0.
         24    2    1    2    0    0  0.32460104909E+02  0.76055281128E+01  0.19231181145E+04  0.19250560596E+04  0.79662084739E+02 0.  0.
        -13    1    5    5    0    0 -0.15127961029E+02 -0.21228078200E+02  0.94267617572E+03  0.94303650978E+03  0.00000000000E+00 0.  1.
         14    1    5    5    0    0  0.47588065938E+02  0.28833606313E+02  0.98044193883E+03  0.98201954985E+03  0.00000000000E+00 0. -1.
         13    1    3    3    0    0  0.62652860470E+01 -0.13737553588E+02 -0.45689444768E+02  0.48119637894E+02  0.00000000000E+00 0. -1.
        -14    1    3    3    0    0 -0.45626705473E+02  0.28073628347E+02 -0.12152881887E+04  0.12164683746E+04  0.00000000000E+00 0.  1.
          5    1    4    4  501    0  0.62302947176E+02 -0.31263358194E+02  0.83671263509E+02  0.10898351953E+03  0.41800000000E+01 0. -1.
         -5    1    4    4    0  501 -0.55401632659E+02  0.93217553224E+01  0.47097272512E+02  0.73429295935E+02  0.41800000000E+01 0. -1.
</event>
<event>
11    1  0.9238666E-009  0.1580419E+03  0.7561462E-02  0.1088934E+00
         22   -1    0    0    0    0  0.00000000000E+00  0.00000000000E+00  0.47414037685E+03  0.47414037685E+03  0.00000000000E+00 0.  1.
         22   -1    0    0    0    0 -0.00000000000E+00 -0.00000000000E+00 -0.90771255470E+03  0.90771255470E+03  0.00000000000E+00 0.  1.
        -24    2    1    2    0    0  0.10054150318E+03  0.69088992601E+01 -0.78005809442E+03  0.79063319188E+03  0.80336085888E+02 0.  0.
         25    2    1    2    0    0 -0.50051918679E+02 -0.69704766400E+02 -0.64567456105E+02  0.16486464331E+03  0.12508974859E+03 0.  0.
         24    2    1    2    0    0 -0.50489584498E+02  0.62795867140E+02  0.41105337267E+03  0.42635509636E+03  0.79506439574E+02 0.  0.
        -11    1    5    5    0    0 -0.54495674793E+02  0.44284646587E+01  0.20237335474E+03  0.20962911196E+03  0.00000000000E+00 0.  1.
         12    1    5    5    0    0  0.40060902942E+01  0.58367402481E+02  0.20868001793E+03  0.21672598440E+03  0.00000000000E+00 0. -1.
         13    1    3    3    0    0  0.34437599886E+01  0.75027601944E+01 -0.33518897328E+03  0.33529061827E+03  0.00000000000E+00 0. -1.
        -14    1    3    3    0    0  0.97097743188E+02 -0.59386093424E+00 -0.44486912114E+03  0.45534257362E+03  0.00000000000E+00 0.  1.
          5    1    4    4  501    0 -0.47695568279E+01 -0.83648666710E+02 -0.78925090860E+02  0.11518025213E+03  0.41800000000E+01 0.  1.
         -5    1    4    4    0  501 -0.45282361851E+02  0.13943900310E+02  0.14357634754E+02  0.49684391174E+02  0.41800000000E+01 0.  1.
</event>
<event>
11    1  0.9238666E-009  0.1464627E+03  0.7561462E-02  0.1100549E+00
         22   -1    0    0    0    0  0.00000000000E+00  0.00000000000E+00  0.43301598404E+03  0.43301598404E+03  0.00000000000E+00 0.  1.
         22   -1    0    0    0    0 -0.00000000000E+00 -0.00000000000E+00 -0.19078363718E+03  0.19078363718E+03  0.00000000000E+00 0. -1.
         24    2    1    2    0    0  0.46687262303E+02 -0.31048203375E+01 -0.87977318499E+02  0.12816591631E+03  0.80604920209E+02 0.  0.
         25    2    1    2    0    0 -0.51067641317E+02  0.78325122285E+02  0.96828333259E+01  0.15647387527E+03  0.12509031782E+03 0.  0.
        -24    2    1    2    0    0  0.43803790141E+01 -0.75220301948E+02  0.32052683204E+03  0.33915982963E+03  0.81330550452E+02 0.  0.
        -13    1    3    3    0    0  0.23643821234E+02  0.37369411267E+02 -0.28444442345E+02  0.52579363645E+02  0.00000000000E+00 0.  1.
         14    1    3    3    0    0  0.23043441069E+02 -0.40474231604E+02 -0.59532876153E+02  0.75586552662E+02  0.00000000000E+00 0. -1.
         13    1    5    5    0    0 -0.45916081359E+01  0.13278984408E+02  0.13419007621E+02  0.19428948961E+02  0.00000000000E+00 0. -1.
        -14    1    5    5    0    0  0.89719871500E+01 -0.88499286356E+02  0.30710782441E+03  0.31973088067E+03  0.00000000000E+00 0.  1.
          5    1    4    4  501    0 -0.17304137313E+02 -0.15887640349E+02 -0.38520405649E+02  0.45311635762E+02  0.41800000000E+01 0.  1.
         -5    1    4    4    0  501 -0.33763504004E+02  0.94212762634E+02  0.48203238975E+02  0.11116223951E+03  0.41800000000E+01 0.  1.
</event>
<event>
11    1  0.9238666E-009  0.1300532E+03  0.7561462E-02  0.1119204E+00
         22   -1    0    0    0    0  0.00000000000E+00  0.00000000000E+00  0.69322661655E+03  0.69322661655E+03  0.00000000000E+00 0. -1.
         22   -1    0    0    0    0 -0.00000000000E+00 -0.00000000000E+00 -0.98819545792E+02  0.98819545792E+02  0.00000000000E+00 0.  1.
         24    2    1    2    0    0 -0.17697166534E+02  0.32407688985E+02 -0.51924989803E+02  0.10128312631E+03  0.78731309535E+02 0.  0.
         25    2    1    2    0    0  0.24958017139E+02 -0.13159928419E+02  0.19942093118E+03  0.23708952306E+03  0.12508656128E+03 0.  0.
        -24    2    1    2    0    0 -0.72608506043E+01 -0.19247760566E+02  0.44691112938E+03  0.45367351297E+03  0.75278832164E+02 0.  0.
        -13    1    3    3    0    0 -0.18466673075E+01  0.19414322050E+02 -0.70789993941E+02  0.73427170196E+02  0.00000000000E+00 0.  1.
         14    1    3    3    0    0 -0.15850499227E+02  0.12993366935E+02  0.18865004139E+02  0.27855956117E+02  0.00000000000E+00 0. -1.
         13    1    5    5    0    0 -0.32769385936E+01  0.63824499314E+01  0.40003815046E+03  0.40010248164E+03  0.00000000000E+00 0. -1.
        -14    1    5    5    0    0 -0.39839120106E+01 -0.25630210497E+02  0.46872978925E+02  0.53571031335E+02  0.00000000000E+00 0.  1.
          5    1    4    4  501    0  0.30214985561E+02 -0.10864775285E+02  0.21633595288E+03  0.21874575562E+03  0.41800000000E+01 0.  1.
         -5    1    4    4    0  501 -0.52569684218E+01 -0.22951531335E+01 -0.16915021694E+02  0.18343767437E+02  0.41800000000E+01 0.  1.
</event>
<event>
11    1  0.9238666E-009  0.1443924E+03  0.7561462E-02  0.1102750E+00
         22   -1    0    0    0    0  0.00000000000E+00  0.00000000000E+00  0.14944991706E+04  0.14944991706E+04  0.00000000000E+00 0.  1.
         22   -1    0    0    0    0 -0.00000000000E+00 -0.00000000000E+00 -0.20189426987E+03  0.20189426987E+03  0.00000000000E+00 0. -1.
        -24    2    1    2    0    0  0.48791821126E+02  0.55722418898E+02 -0.13238566675E+03  0.17938645141E+03  0.95749174484E+02 0.  0.
         25    2    1    2    0    0 -0.60707671198E+02 -0.29262006249E+02  0.68457596857E+02  0.15771505766E+03  0.12508361401E+03 0.  0.
         24    2    1    2    0    0  0.11915850072E+02 -0.26460412650E+02  0.13565329706E+04  0.13592919314E+04  0.81551906555E+02 0.  0.
        -13    1    5    5    0    0  0.46818666846E+00  0.14850417785E+02  0.10111086599E+04  0.10112178184E+04  0.00000000000E+00 0.  1.
         14    1    5    5    0    0  0.11447663404E+02 -0.41310830435E+02  0.34542431069E+03  0.34807411297E+03  0.00000000000E+00 0. -1.
         13    1    3    3    0    0  0.65479356097E+02  0.54796963199E+01 -0.55355302116E+02  0.85917301046E+02  0.00000000000E+00 0. -1.
        -14    1    3    3    0    0 -0.16687534971E+02  0.50242722578E+02 -0.77030364629E+02  0.93469150368E+02  0.00000000000E+00 0.  1.
          5    1    4    4  501    0  0.79210915449E+01  0.26792753740E+02 -0.18278597011E+02  0.33647806064E+02  0.41800000000E+01 0.  1.
         -5    1    4    4    0  501 -0.68628762743E+02 -0.56054759989E+02  0.86736193868E+02  0.12406725160E+03  0.41800000000E+01 0.  1.
</event>
<event>
11    1  0.9238666E-009  0.1383906E+03  0.7561462E-02  0.1109369E+00
         22   -1    0    0    0    0  0.00000000000E+00  0.00000000000E+00  0.25578837195E+03  0.25578837195E+03  0.00000000000E+00 0.  1.
         22   -1    0    0    0    0 -0.00000000000E+00 -0.00000000000E+00 -0.55910023941E+03  0.55910023941E+03  0.00000000000E+00 0. -1.
        -24    2    1    2    0    0  0.17577398856E+02 -0.58357385507E+02 -0.45517908450E+03  0.46616498253E+03  0.80045253328E+02 0.  0.
         25    2    1    2    0    0 -0.64426380777E+02  0.20397659159E+02 -0.26131155699E+02  0.14455850855E+03  0.12508997584E+03 0.  0.
         24    2    1    2    0    0  0.46848981921E+02  0.37959726348E+02  0.17799837274E+03  0.20416512028E+03  0.79775984550E+02 0.  0.
        -13    1    5    5    0    0 -0.76300173401E+01  0.32395967895E+02  0.11943944803E+03  0.12398990945E+03  0.00000000000E+00 0.  1.
         14    1    5    5    0    0  0.54478999261E+02  0.55637584523E+01  0.58558924712E+02  0.80175210833E+02  0.00000000000E+00 0. -1.
         13    1    3    3    0    0  0.42219378628E+01 -0.75749966663E+02 -0.39238195662E+03  0.39964919879E+03  0.00000000000E+00 0. -1.
        -14    1    3    3    0    0  0.13355460993E+02  0.17392581156E+02 -0.62797127872E+02  0.66515783740E+02  0.00000000000E+00 0.  1.
          5    1    4    4  501    0  0.43258121458E+01 -0.45475663983E+02 -0.16566849804E+02  0.48771729289E+02  0.41800000000E+01 0.  1.
         -5    1    4    4    0  501 -0.68752192923E+02  0.65873323143E+02 -0.95643058953E+01  0.95786779259E+02  0.41800000000E+01 0.  1.
</event>
<event>
11    1  0.9380527E-009  0.1625728E+03  0.7561462E-02  0.1084682E+00
         22   -1    0    0    0    0  0.00000000000E+00  0.00000000000E+00  0.14236809571E+04  0.14236809571E+04  0.00000000000E+00 0. -1.
         22   -1    0    0    0    0 -0.00000000000E+00 -0.00000000000E+00 -0.55841716594E+03  0.55841716594E+03  0.00000000000E+00 0. -1.
        -24    2    1    2    0    0 -0.19565059361E+01  0.22939242865E+02 -0.42353515314E+03  0.43141111953E+03  0.78762245559E+02 0.  0.
         25    2    1    2    0    0 -0.91455437694E+02  0.23057170150E+02 -0.79763181048E+02  0.17580049427E+03  0.12509164063E+03 0.  0.
         24    2    1    2    0    0  0.93411943631E+02 -0.45996413015E+02  0.13685621254E+04  0.13748865093E+04  0.80679372392E+02 0.  0.
        -11    1    5    5    0    0  0.22717663890E+01 -0.40010189511E+02  0.37514892130E+03  0.37728330117E+03  0.00000000000E+00 0.  1.
         12    1    5    5    0    0  0.91140177242E+02 -0.59862235039E+01  0.99341320406E+03  0.99760320808E+03  0.00000000000E+00 0. -1.
         11    1    3    3    0    0 -0.18558731694E+02  0.47461020434E+02 -0.30529581912E+03  0.30951980899E+03  0.00000000000E+00 0. -1.
        -12    1    3    3    0    0  0.16602225758E+02 -0.24521777569E+02 -0.11823933402E+03  0.12189131054E+03  0.00000000000E+00 0.  1.
          5    1    4    4  501    0 -0.30491179865E+02  0.70879494813E+02 -0.26530007380E+02  0.81700235778E+02  0.41800000000E+01 0.  1.
         -5    1    4    4    0  501 -0.60964257829E+02 -0.47822324664E+02 -0.53233173668E+02  0.94100258489E+02  0.41800000000E+01 0.  1.
</event>
<event>
11    1  0.9238666E-009  0.1574756E+03  0.7561462E-02  0.1089476E+00
         22   -1    0    0    0    0  0.00000000000E+00  0.00000000000E+00  0.60958032518E+03  0.60958032518E+03  0.00000000000E+00 0. -1.
         22   -1    0    0    0    0 -0.00000000000E+00 -0.00000000000E+00 -0.10239982998E+04  0.10239982998E+04  0.00000000000E+00 0.  1.
        -24    2    1    2    0    0 -0.42042426265E+02 -0.64226296321E+02 -0.93677409217E+03  0.94326020849E+03  0.79382229795E+02 0.  0.
         25    2    1    2    0    0  0.12213662671E+03  0.12476501024E+02  0.24494570741E+02  0.17697556278E+03  0.12508935671E+03 0.  0.
         24    2    1    2    0    0 -0.80094200447E+02  0.51749795297E+02  0.49786154685E+03  0.51334285367E+03  0.81003970997E+02 0.  0.
        -11    1    5    5    0    0 -0.26309493466E+02  0.42716725808E+02  0.10123461638E+03  0.11298387347E+03  0.00000000000E+00 0.  1.
         12    1    5    5    0    0 -0.53784706982E+02  0.90330694885E+01  0.39662693047E+03  0.40035898020E+03  0.00000000000E+00 0. -1.
         11    1    3    3    0    0 -0.32215075027E+02 -0.81380334323E+02 -0.65954670726E+03  0.66532881264E+03  0.00000000000E+00 0. -1.
        -12    1    3    3    0    0 -0.98273512379E+01  0.17154038002E+02 -0.27722738491E+03  0.27793139585E+03  0.00000000000E+00 0.  1.
          5    1    4    4  501    0  0.14428188660E+03  0.56134491276E+01  0.38596764151E+02  0.14951908311E+03  0.41800000000E+01 0. -1.
         -5    1    4    4    0  501 -0.22145259886E+02  0.68630518964E+01 -0.14102193409E+02  0.27456479667E+02  0.41800000000E+01 0. -1.
</event>
<event>
11    1  0.9238666E-009  0.1987538E+03  0.7561462E-02  0.1055408E+00
         22   -1    0    0    0    0  0.00000000000E+00  0.00000000000E+00  0.32152713816E+03  0.32152713816E+03  0.00000000000E+00 0. -1.
         22   -1    0    0    0    0 -0.00000000000E+00 -0.00000000000E+00 -0.18709439072E+04  0.18709439072E+04  0.00000000000E+00 0.  1.
         24    2    1    2    0    0 -0.14241199087E+03 -0.53889416601E+02 -0.17248616968E+04  0.17334582092E+04  0.80896512824E+02 0.  0.
         25    2    1    2    0    0  0.20092780567E+03  0.78574374463E+02 -0.81945671878E+01  0.24952217233E+03  0.12509295800E+03 0.  0.
        -24    2    1    2    0    0 -0.58515814796E+02 -0.24684957862E+02  0.18363949498E+03  0.20949066373E+03  0.78290653015E+02 0.  0.
        -13    1    3    3    0    0 -0.11286999297E+03 -0.21083104024E+02 -0.14944995828E+04  0.14989039781E+04  0.00000000000E+00 0.  1.
         14    1    3    3    0    0 -0.29541997904E+02 -0.32806312577E+02 -0.23036211400E+03  0.23455423115E+03  0.00000000000E+00 0. -1.
         13    1    5    5    0    0 -0.15270012988E+02 -0.31238070948E+02  0.15090326911E+03  0.15485731175E+03  0.00000000000E+00 0. -1.
        -14    1    5    5    0    0 -0.43245801808E+02  0.65531130863E+01  0.32736225866E+02  0.54633351985E+02  0.00000000000E+00 0.  1.
          5    1    4    4  501    0 -0.17455089819E+02  0.90604773285E+01 -0.22033614050E+01  0.20226211002E+02  0.41800000000E+01 0. -1.
         -5    1    4    4    0  501  0.21838289549E+03  0.69513897134E+02 -0.59912057829E+01  0.22929596133E+03  0.41800000000E+01 0. -1.
</event>
<event>
11    1  0.9238666E-009  0.2350626E+03  0.7561462E-02  0.1032172E+00
         22   -1    0    0    0    0  0.00000000000E+00  0.00000000000E+00  0.85643823685E+03  0.85643823685E+03  0.00000000000E+00 0.  1.
         22   -1    0    0    0    0 -0.00000000000E+00 -0.00000000000E+00 -0.14391064643E+04  0.14391064643E+04  0.00000000000E+00 0.  1.
         24    2    1    2    0    0 -0.13602474352E+03 -0.57922021312E+02 -0.13472776841E+04  0.13585482020E+04  0.92942819096E+02 0.  0.
         25    2    1    2    0    0 -0.87121443200E+02 -0.87006089202E+01  0.21592577476E+02  0.15420259204E+03  0.12508538495E+03 0.  0.
        -24    2    1    2    0    0  0.22314618672E+03  0.66622630232E+02  0.74301687917E+03  0.78279390714E+03  0.80370534601E+02 0.  0.
        -11    1    3    3    0    0 -0.25909266869E+02 -0.51165908171E+02 -0.65831843618E+03  0.66081192762E+03  0.00000000000E+00 0.  1.
         12    1    3    3    0    0 -0.11011547665E+03 -0.67561131403E+01 -0.68895924794E+03  0.69773627438E+03  0.00000000000E+00 0. -1.
         13    1    5    5    0    0  0.37379304436E+02  0.36943882261E+02  0.10201494392E+03  0.11475674978E+03  0.00000000000E+00 0. -1.
        -14    1    5    5    0    0  0.18576688228E+03  0.29678747971E+02  0.64100193525E+03  0.66803715737E+03  0.00000000000E+00 0.  1.
          5    1    4    4  501    0 -0.81158862656E+02 -0.16280017323E+02 -0.39782302165E+02  0.91934236915E+02  0.41800000000E+01 0. -1.
         -5    1    4    4    0  501 -0.59625805441E+01  0.75794084025E+01  0.61374879642E+02  0.62268355121E+02  0.41800000000E+01 0. -1.
</event>
<event>
11    1  0.9238666E-009  0.1311544E+03  0.7561462E-02  0.1117859E+00
         22   -1    0    0    0    0  0.00000000000E+00  0.00000000000E+00  0.48308821374E+03  0.48308821374E+03  0.00000000000E+00 0.  1.
         22   -1    0    0    0    0 -0.00000000000E+00 -0.00000000000E+00 -0.28189083239E+03  0.28189083239E+03  0.00000000000E+00 0.  1.
        -24    2    1    2    0    0 -0.76824527883E+01 -0.15360343832E+01 -0.22194715031E+03  0.23478972756E+03  0.76185951180E+02 0.  0.
         25    2    1    2    0    0 -0.47053968429E+01 -0.36263417588E+02  0.39136924316E+02  0.13607530221E+03  0.12509041854E+03 0.  0.
         24    2    1    2    0    0  0.12387849631E+02  0.37799451971E+02  0.38400760734E+03  0.39411401636E+03  0.79257542282E+02 0.  0.
        -13    1    5    5    0    0  0.15028639514E+02  0.36934036415E+02  0.38755882686E+03  0.38960470650E+03  0.00000000000E+00 0.  1.
         14    1    5    5    0    0 -0.26407898823E+01  0.86541555624E+00 -0.35512195217E+01  0.45093098561E+01  0.00000000000E+00 0. -1.
         11    1    3    3    0    0 -0.21019884228E+01 -0.12523622765E+02 -0.19996811646E+00  0.12700372819E+02  0.00000000000E+00 0. -1.
        -12    1    3    3    0    0 -0.55804643656E+01  0.10987588382E+02 -0.22174718219E+03  0.22208935475E+03  0.00000000000E+00 0.  1.
          5    1    4    4  501    0 -0.54044384534E+02 -0.37672811300E+02  0.52978760755E+02  0.84641938199E+02  0.41800000000E+01 0. -1.
         -5    1    4    4    0  501  0.49338987692E+02  0.14093937122E+01 -0.13841836439E+02  0.51433364007E+02  0.41800000000E+01 0. -1.
</event>
<event>
11    1  0.9238666E-009  0.1706412E+03  0.7561462E-02  0.1077475E+00
         22   -1    0    0    0    0  0.00000000000E+00  0.00000000000E+00  0.95550184325E+03  0.95550184325E+03  0.00000000000E+00 0. -1.
         22   -1    0    0    0    0 -0.00000000000E+00 -0.00000000000E+00 -0.19248837604E+03  0.19248837604E+03  0.00000000000E+00 0.  1.
         24    2    1    2    0    0  0.43801399940E+02 -0.73320221977E+02 -0.13308555665E+03  0.17856570884E+03  0.82942928550E+02 0.  0.
         25    2    1    2    0    0 -0.33939873947E+02 -0.58607320883E+02  0.14732945242E+03  0.20479190578E+03  0.12508806505E+03 0.  0.
        -24    2    1    2    0    0 -0.98615259931E+01  0.13192754286E+03  0.74876957144E+03  0.76463260467E+03  0.80653721242E+02 0.  0.
        -11    1    3    3    0    0  0.30295445743E+02 -0.86677048868E+02 -0.13024929351E+03  0.15935998021E+03  0.00000000000E+00 0.  1.
         12    1    3    3    0    0  0.13505954198E+02  0.13356826892E+02 -0.28362631384E+01  0.19205728624E+02  0.00000000000E+00 0. -1.
         13    1    5    5    0    0 -0.20833462823E+02  0.13049837155E+03  0.73585127249E+03  0.74762353720E+03  0.00000000000E+00 0. -1.
        -14    1    5    5    0    0  0.10971936830E+02  0.14291713122E+01  0.12918298948E+02  0.17009067469E+02  0.00000000000E+00 0.  1.
          5    1    4    4  501    0 -0.35700371207E+02 -0.39460111993E+02 -0.27311595164E+01  0.53446689094E+02  0.41800000000E+01 0.  1.
         -5    1    4    4    0  501  0.17604972597E+01 -0.19147208890E+02  0.15006061194E+03  0.15134521669E+03  0.41800000000E+01 0.  1.
</event>
<event>
11    1  0.9238666E-009  0.2102710E+03  0.7561462E-02  0.1047489E+00
         22   -1    0    0    0    0  0.00000000000E+00  0.00000000000E+00  0.34853699489E+03  0.34853699489E+03  0.00000000000E+00 0. -1.
         22   -1    0    0    0    0 -0.00000000000E+00 -0.00000000000E+00 -0.20513169051E+04  0.20513169051E+04  0.00000000000E+00 0. -1.
         24    2    1    2    0    0 -0.49915768746E+02 -0.16732044823E+03 -0.18229715304E+04  0.18340130199E+04  0.99452704152E+02 0.  0.
         25    2    1    2    0    0  0.76014278967E+02  0.11136527011E+03 -0.17500409966E+03  0.25387973824E+03  0.12509233628E+03 0.  0.
        -24    2    1    2    0    0 -0.26098510221E+02  0.55955178122E+02  0.29519571986E+03  0.31196114177E+03  0.79794277711E+02 0.  0.
        -11    1    3    3    0    0 -0.35102593702E+02 -0.10590603208E+03 -0.66299274376E+03  0.67231514782E+03  0.00000000000E+00 0.  1.
         12    1    3    3    0    0 -0.14813175044E+02 -0.61414416148E+02 -0.11599787866E+04  0.11616978721E+04  0.00000000000E+00 0. -1.
         11    1    5    5    0    0 -0.43263995379E+02  0.10394626337E+02  0.20168616942E+03  0.20653603194E+03  0.00000000000E+00 0. -1.
        -12    1    5    5    0    0  0.17165485158E+02  0.45560551785E+02  0.93509550443E+02  0.10542510983E+03  0.00000000000E+00 0.  1.
          5    1    4    4  501    0  0.87139209363E+02  0.10663041559E+03 -0.18966524226E+03  0.23442197819E+03  0.41800000000E+01 0. -1.
         -5    1    4    4    0  501 -0.11124930396E+02  0.47348545167E+01  0.14661142602E+02  0.19457760046E+02  0.41800000000E+01 0. -1.
</event>
<event>
11    1  0.9238666E-009  0.1520309E+03  0.7561462E-02  0.1094822E+00
         22   -1    0    0    0    0  0.00000000000E+00  0.00000000000E+00  0.14669270193E+03  0.14669270193E+03  0.00000000000E+00 0.  1.
         22   -1    0    0    0    0 -0.00000000000E+00 -0.00000000000E+00 -0.88532011020E+03  0.88532011020E+03  0.00000000000E+00 0. -1.
        -24    2    1    2    0    0 -0.27089761337E+02 -0.60356743299E+02 -0.71128646313E+03  0.71890817624E+03  0.80769682478E+02 0.  0.
         25    2    1    2    0    0  0.18075569585E+01 -0.37187541628E+02 -0.10054125360E+03  0.16474974741E+03  0.12509098721E+03 0.  0.
         24    2    1    2    0    0  0.25282204379E+02  0.97544284927E+02  0.73200308466E+02  0.14835488848E+03  0.80602793965E+02 0.  0.
        -11    1    5    5    0    0  0.50946512117E+02  0.55781562180E+02  0.62814303557E+02  0.98248493665E+02  0.00000000000E+00 0.  1.
         12    1    5    5    0    0 -0.25664307738E+02  0.41762722747E+02  0.10386004909E+02  0.50106394810E+02  0.00000000000E+00 0. -1.
         13    1    3    3    0    0 -0.61596037652E+01 -0.71533996312E+02 -0.63423433167E+03  0.63828539135E+03  0.00000000000E+00 0. -1.
        -14    1    3    3    0    0 -0.20930157572E+02  0.11177253013E+02 -0.77052131460E+02  0.80622784890E+02  0.00000000000E+00 0.  1.
          5    1    4    4  501    0  0.59774883074E+02 -0.24638194818E+02 -0.77426349963E+02  0.10095736407E+03  0.41800000000E+01 0. -1.
         -5    1    4    4    0  501 -0.57967326115E+02 -0.12549346809E+02 -0.23114903640E+02  0.63792383343E+02  0.41800000000E+01 0. -1.
</event>
<event>
11    1  0.9238666E-009  0.1975364E+03  0.7561462E-02  0.1056280E+00
         22   -1    0    0    0    0  0.00000000000E+00  0.00000000000E+00  0.19660107835E+04  0.19660107835E+04  0.00000000000E+00 0.  1.
         22   -1    0    0    0    0 -0.00000000000E+00 -0.00000000000E+00 -0.61464566148E+03  0.61464566148E+03  0.00000000000E+00 0.  1.
        -24    2    1    2    0    0 -0.46967117836E+02  0.14116449617E+03 -0.38969849936E+03  0.42523584208E+03  0.82627331142E+02 0.  0.
         25    2    1    2    0    0  0.96216251717E+01 -0.16942122676E+03 -0.15155237869E+03  0.25963687523E+03  0.12508819187E+03 0.  0.
         24    2    1    2    0    0  0.37345492664E+02  0.28256730591E+02  0.18926160000E+04  0.18957837276E+04  0.99032771021E+02 0.  0.
        -11    1    5    5    0    0  0.64475597732E+02  0.37468232973E+02  0.10319140383E+04  0.10346050230E+04  0.00000000000E+00 0.  1.
         12    1    5    5    0    0 -0.27130105068E+02 -0.92115023822E+01  0.86070196175E+03  0.86117870465E+03  0.00000000000E+00 0. -1.
         13    1    3    3    0    0  0.13211834108E+02 -0.61483726488E+00 -0.14352280589E+02  0.19517134611E+02  0.00000000000E+00 0. -1.
        -14    1    3    3    0    0 -0.60178951944E+02  0.14177933343E+03 -0.37534621877E+03  0.40571870747E+03  0.00000000000E+00 0.  1.
          5    1    4    4  501    0 -0.10671886652E+02 -0.30425683457E+00 -0.69658924657E+02  0.70596174976E+02  0.41800000000E+01 0. -1.
         -5    1    4    4    0  501  0.20293511824E+02 -0.16911696992E+03 -0.81893454033E+02  0.18904070025E+03  0.41800000000E+01 0. -1.
</event>
<event>
11    1  0.9238666E-009  0.2636198E+03  0.7561462E-02  0.1016884E+00
         22   -1    0    0    0    0  0.00000000000E+00  0.00000000000E+00  0.19050929886E+03  0.19050929886E+03  0.00000000000E+00 0. -1.
         22   -1    0    0    0    0 -0.00000000000E+00 -0.00000000000E+00 -0.16703656577E+04  0.16703656577E+04  0.00000000000E+00 0.  1.
        -24    2    1    2    0    0 -0.11240100108E+02 -0.70411874854E+02 -0.11174618550E+04  0.11226227975E+04  0.80478420505E+02 0.  0.
         25    2    1    2    0    0  0.64807351273E+02 -0.16804015134E+03 -0.42041545911E+03  0.47416907405E+03  0.12509863024E+03 0.  0.
         24    2    1    2    0    0 -0.53567251166E+02  0.23845202619E+03  0.58020955226E+02  0.26408308503E+03  0.81514571452E+02 0.  0.
        -13    1    5    5    0    0  0.73598245722E+01  0.43171885785E+02 -0.15872117516E+02  0.46582216074E+02  0.00000000000E+00 0.  1.
         14    1    5    5    0    0 -0.60927075738E+02  0.19528014041E+03  0.73893072742E+02  0.21750086895E+03  0.00000000000E+00 0. -1.
         11    1    3    3    0    0  0.13129029489E+02 -0.34483070778E+02 -0.16091028044E+03  0.16508655892E+03  0.00000000000E+00 0. -1.
        -12    1    3    3    0    0 -0.24369129597E+02 -0.35928804076E+02 -0.95655157453E+03  0.95753623857E+03  0.00000000000E+00 0.  1.
          5    1    4    4  501    0  0.59490052840E+02 -0.20159373373E+02 -0.19128524551E+03  0.20137771543E+03  0.41800000000E+01 0.  1.
         -5    1    4    4    0  501  0.53172984334E+01 -0.14788077796E+03 -0.22913021359E+03  0.27279135861E+03  0.41800000000E+01 0.  1.
</event>
<event>
11    1  0.9238666E-009  0.1570963E+03  0.7561462E-02  0.1089841E+00
         22   -1    0    0    0    0  0.00000000000E+00  0.00000000000E+00  0.15570900930E+04  0.15570900930E+04  0.00000000000E+00 0.  1.
         22   -1    0    0    0    0 -0.00000000000E+00 -0.00000000000E+00 -0.39223642281E+03  0.39223642281E+03  0.00000000000E+00 0. -1.
        -24    2    1    2    0    0 -0.60965569470E+02 -0.71827487441E+02 -0.35220262109E+03  0.37325697415E+03  0.79988085558E+02 0.  0.
         25    2    1    2    0    0  0.99571441996E+02  0.67454417950E+02  0.24125976907E+03  0.29718424715E+03  0.12509048734E+03 0.  0.
         24    2    1    2    0    0 -0.38605872527E+02  0.43730694909E+01  0.12757965222E+04  0.12788852945E+04  0.79882997690E+02 0.  0.
        -13    1    5    5    0    0 -0.45994428633E+02  0.14207178228E+02  0.12417872911E+04  0.12427200037E+04  0.00000000000E+00 0.  1.
         14    1    5    5    0    0  0.73885561067E+01 -0.98341087370E+01  0.34009231169E+02  0.36165290828E+02  0.00000000000E+00 0. -1.
         13    1    3    3    0    0 -0.43163363543E+02 -0.80291112577E+02 -0.33471487936E+03  0.34690602355E+03  0.00000000000E+00 0. -1.
        -14    1    3    3    0    0 -0.17802205927E+02  0.84636251360E+01 -0.17487741731E+02  0.26350950593E+02  0.00000000000E+00 0.  1.
          5    1    4    4  501    0  0.78671748265E+02 -0.13958370746E+02  0.69768014722E+02  0.10615615087E+03  0.41800000000E+01 0.  1.
         -5    1    4    4    0  501  0.20899693732E+02  0.81412788696E+02  0.17149175434E+03  0.19102809628E+03  0.41800000000E+01 0.  1.
</event>
<event>
11    1  0.9238667E-009  0.1436160E+03  0.7561462E-02  0.1103586E+00
         22   -1    0    0    0    0  0.00000000000E+00  0.00000000000E+00  0.26824723249E+04  0.26824723249E+04  0.00000000000E+00 0. -1.
         22   -1    0    0    0    0 -0.00000000000E+00 -0.00000000000E+00 -0.32495054542E+03  0.32495054542E+03  0.00000000000E+00 0. -1.
         24    2    1    2    0    0 -0.52577794125E+02 -0.71522132920E+01 -0.22365482219E+03  0.24414496559E+03  0.82278224001E+02 0.  0.
         25    2    1    2    0    0  0.12195627804E+03  0.14185213637E+02 -0.39536789808E+01  0.17532090741E+03  0.12508890822E+03 0.  0.
        -24    2    1    2    0    0 -0.69378483917E+02 -0.70330003446E+01  0.25851302806E+04  0.25879569973E+04  0.98792787238E+02 0.  0.
        -13    1    3    3    0    0 -0.12969678326E+02  0.26431010058E+02 -0.24411663101E+02  0.38245785963E+02  0.00000000000E+00 0.  1.
         14    1    3    3    0    0 -0.39608115800E+02 -0.33583223350E+02 -0.19924315909E+03  0.20589917963E+03  0.00000000000E+00 0. -1.
         13    1    5    5    0    0 -0.76437493080E+02 -0.36233303571E+02  0.22129895108E+04  0.22146056348E+04  0.00000000000E+00 0. -1.
        -14    1    5    5    0    0  0.70590091635E+01  0.29200303227E+02  0.37214076981E+03  0.37335136249E+03  0.00000000000E+00 0.  1.
          5    1    4    4  501    0  0.12255198588E+03 -0.32887825439E+02 -0.11433085633E+02  0.12747072665E+03  0.41800000000E+01 0.  1.
         -5    1    4    4    0  501 -0.59570783562E+00  0.47073039076E+02  0.74794066522E+01  0.47850180768E+02  0.41800000000E+01 0.  1.
</event>
<event>
11    1  0.9238666E-009  0.1462628E+03  0.7561462E-02  0.1100760E+00
         22   -1    0    0    0    0  0.00000000000E+00  0.00000000000E+00  0.13871939186E+03  0.13871939186E+03  0.00000000000E+00 0.  1.
         22   -1    0    0    0    0 -0.00000000000E+00 -0.00000000000E+00 -0.10553343877E+04  0.10553343877E+04  0.00000000000E+00 0. -1.
        -24    2    1    2    0    0 -0.89200010876E+01  0.91371153926E+02 -0.76691665094E+03  0.77653128654E+03  0.80071438700E+02 0.  0.
         25    2    1    2    0    0  0.45699411242E+01 -0.23607735560E+02 -0.24504154423E+03  0.27617329097E+03  0.12509244066E+03 0.  0.
         24    2    1    2    0    0  0.43500599633E+01 -0.67763418366E+02  0.95343199327E+02  0.14134920206E+03  0.79236780434E+02 0.  0.
        -11    1    5    5    0    0  0.78639138414E+01 -0.65675449572E+02  0.10877617214E+03  0.12730813581E+03  0.00000000000E+00 0.  1.
         12    1    5    5    0    0 -0.35138538781E+01 -0.20879687938E+01 -0.13432972814E+02  0.14041066248E+02  0.00000000000E+00 0. -1.
         13    1    3    3    0    0 -0.34563277683E+02  0.32627565527E+02 -0.48968840209E+03  0.49198974515E+03  0.00000000000E+00 0. -1.
        -14    1    3    3    0    0  0.25643276595E+02  0.58743588399E+02 -0.27722824885E+03  0.28454154138E+03  0.00000000000E+00 0.  1.
          5    1    4    4  501    0 -0.40347960190E+02 -0.36959397708E+02 -0.21121797854E+03  0.21823029539E+03  0.41800000000E+01 0.  1.
         -5    1    4    4    0  501  0.44917901314E+02  0.13351662148E+02 -0.33823565687E+02  0.57942995576E+02  0.41800000000E+01 0.  1.
</event>
<event>
11    1  0.9238666E-009  0.1624918E+03  0.7561462E-02  0.1084757E+00
         22   -1    0    0    0    0  0.00000000000E+00  0.00000000000E+00  0.15799721509E+04  0.15799721509E+04  0.00000000000E+00 0.  1.
         22   -1    0    0    0    0 -0.00000000000E+00 -0.00000000000E+00 -0.58442917635E+02  0.58442917635E+02  0.00000000000E+00 0.  1.
         24    2    1    2    0    0 -0.67407706227E+01  0.35751264610E+02  0.62951305293E+01  0.91380021605E+02  0.83588807686E+02 0.  0.
         25    2    1    2    0    0  0.54833961567E+02  0.75741335229E+02  0.98290875057E+03  0.99523914892E+03  0.12509132021E+03 0.  0.
        -24    2    1    2    0    0 -0.48093190945E+02 -0.11149259984E+03  0.53232535216E+03  0.55179589800E+03  0.79780183429E+02 0.  0.
        -13    1    3    3    0    0 -0.19896883905E+02 -0.22553121886E+02 -0.51798987470E+01  0.30518201896E+02  0.00000000000E+00 0.  1.
         14    1    3    3    0    0  0.13156113282E+02  0.58304386496E+02  0.11475029276E+02  0.60861819709E+02  0.00000000000E+00 0. -1.
         11    1    5    5    0    0 -0.41790652082E+01  0.69986545740E+01  0.50491038540E+01  0.95884931865E+01  0.00000000000E+00 0. -1.
        -12    1    5    5    0    0 -0.43914125736E+02 -0.11849125441E+03  0.52727624830E+03  0.54220740481E+03  0.00000000000E+00 0.  1.
          5    1    4    4  501    0  0.16358576726E+02 -0.28211895469E+02  0.43347818060E+03  0.43472326776E+03  0.41800000000E+01 0. -1.
         -5    1    4    4    0  501  0.38475384842E+02  0.10395323070E+03  0.54943056997E+03  0.56051588116E+03  0.41800000000E+01 0. -1.
</event>
<event>
11    1  0.9238666E-009  0.2795300E+03  0.7561462E-02  0.1009247E+00
         22   -1    0    0    0    0  0.00000000000E+00  0.00000000000E+00  0.20828728692E+04  0.20828728692E+04  0.00000000000E+00 0. -1.
         22   -1    0    0    0    0 -0.00000000000E+00 -0.00000000000E+00 -0.48670324036E+03  0.48670324036E+03  0.00000000000E+00 0. -1.
         24    2    1    2    0    0 -0.17296136940E+02  0.25265667151E+02 -0.44596131679E+03  0.45434468494E+03  0.81302437665E+02 0.  0.
         25    2    1    2    0    0 -0.10910255067E+03  0.20434497398E+03  0.76536893656E+03  0.80938096995E+03  0.12509080908E+03 0.  0.
        -24    2    1    2    0    0  0.12639868761E+03 -0.22961064114E+03  0.12767620090E+04  0.13058504546E+04  0.80165500083E+02 0.  0.
        -13    1    3    3    0    0 -0.39067800724E+01  0.53412317441E+02 -0.23045084965E+03  0.23659191172E+03  0.00000000000E+00 0.  1.
         14    1    3    3    0    0 -0.13389356868E+02 -0.28146650289E+02 -0.21551046714E+03  0.21775277322E+03  0.00000000000E+00 0. -1.
         11    1    5    5    0    0  0.13661107304E+03 -0.19703769189E+03  0.11009815035E+04  0.11267860082E+04  0.00000000000E+00 0. -1.
        -12    1    5    5    0    0 -0.10212385431E+02 -0.32572949248E+02  0.17578050556E+03  0.17906444642E+03  0.00000000000E+00 0.  1.
          5    1    4    4  501    0 -0.79246511234E+02  0.27736871476E+02  0.23814487650E+03  0.25254662577E+03  0.41800000000E+01 0.  1.
         -5    1    4    4    0  501 -0.29856039437E+02  0.17660810251E+03  0.52722406005E+03  0.55683434418E+03  0.41800000000E+01 0.  1.
</event>
<event>
11    1  0.9238666E-009  0.1609017E+03  0.7561462E-02  0.1086232E+00
         22   -1    0    0    0    0  0.00000000000E+00  0.00000000000E+00  0.94052459384E+03  0.94052459384E+03  0.00000000000E+00 0.  1.
         22   -1    0    0    0    0 -0.00000000000E+00 -0.00000000000E+00 -0.12127896359E+04  0.12127896359E+04  0.00000000000E+00 0.  1.
        -24    2    1    2    0    0  0.97004364376E+02  0.36030536688E+02 -0.11722143259E+04  0.11795203920E+04  0.80460444310E+02 0.  0.
         25    2    1    2    0    0 -0.23185866064E+02 -0.78042984652E+01  0.91138906454E+02  0.15668232078E+03  0.12507820719E+03 0.  0.
         24    2    1    2    0    0 -0.73818498312E+02 -0.28226238223E+02  0.80881037734E+03  0.81711151697E+03  0.85153470042E+02 0.  0.
        -13    1    5    5    0    0 -0.30122117943E+02 -0.21815851434E+02  0.67853889923E+03  0.67955743770E+03  0.00000000000E+00 0.  1.
         14    1    5    5    0    0 -0.43696380369E+02 -0.64103867889E+01  0.13027147811E+03  0.13755407927E+03  0.00000000000E+00 0. -1.
         13    1    3    3    0    0  0.25735548130E+02  0.37534443807E+02 -0.74592301317E+03  0.74731003906E+03  0.00000000000E+00 0. -1.
        -14    1    3    3    0    0  0.71268816246E+02 -0.15039071191E+01 -0.42629131271E+03  0.43221035295E+03  0.00000000000E+00 0.  1.
          5    1    4    4  501    0 -0.32859919188E+02 -0.15644621387E+02  0.11973506009E+03  0.12521375916E+03  0.41800000000E+01 0.  1.
         -5    1    4    4    0  501  0.96740531240E+01  0.78403229213E+01 -0.28596153639E+02  0.31468561618E+02  0.41800000000E+01 0.  1.
</event>
<event>
11    1  0.9238666E-009  0.1342073E+03  0.7561462E-02  0.1114205E+00
         22   -1    0    0    0    0  0.00000000000E+00  0.00000000000E+00  0.72119484942E+03  0.72119484942E+03  0.00000000000E+00 0. -1.
         22   -1    0    0    0    0 -0.00000000000E+00 -0.00000000000E+00 -0.12077816373E+04  0.12077816373E+04  0.00000000000E+00 0.  1.
         24    2    1    2    0    0 -0.22188756502E+02 -0.23745111696E+01 -0.11743490662E+04  0.11774003170E+04  0.81717795156E+02 0.  0.
         25    2    1    2    0    0  0.27933090266E+02 -0.45787430260E+02  0.13685131756E+03  0.19301229517E+03  0.12509483069E+03 0.  0.
        -24    2    1    2    0    0 -0.57443337642E+01  0.48161941430E+02  0.55091096069E+03  0.55856387458E+03  0.78346317058E+02 0.  0.
        -13    1    3    3    0    0 -0.45683214371E+02 -0.19386414670E+02 -0.93221234851E+03  0.93353235180E+03  0.00000000000E+00 0.  1.
         14    1    3    3    0    0  0.23494457869E+02  0.17011903501E+02 -0.24213671765E+03  0.24386796519E+03  0.00000000000E+00 0. -1.
         13    1    5    5    0    0 -0.39367717277E+02  0.32999281891E+02  0.39623928019E+03  0.39955517383E+03  0.00000000000E+00 0. -1.
        -14    1    5    5    0    0  0.33623383513E+02  0.15162659539E+02  0.15467168051E+03  0.15900870075E+03  0.00000000000E+00 0.  1.
          5    1    4    4  501    0  0.45832630826E+02 -0.23542674944E+02 -0.14672809182E+01  0.51715693027E+02  0.41800000000E+01 0. -1.
         -5    1    4    4    0  501 -0.17899540560E+02 -0.22244755316E+02  0.13831859848E+03  0.14129660214E+03  0.41800000000E+01 0. -1.
</event>
<event>
11    1  0.9238666E-009  0.1597578E+03  0.7561462E-02  0.1087305E+00
         22   -1    0    0    0    0  0.00000000000E+00  0.00000000000E+00  0.22294697345E+03  0.22294697345E+03  0.00000000000E+00 0.  1.
         22   -1    0    0    0    0 -0.00000000000E+00 -0.00000000000E+00 -0.52705997621E+03  0.52705997621E+03  0.00000000000E+00 0.  1.
         24    2    1    2    0    0  0.83342163182E+01 -0.28660747082E+01 -0.24536458145E+03  0.25836382501E+03  0.80438887974E+02 0.  0.
         25    2    1    2    0    0  0.16882614261E+01 -0.96304151133E+02 -0.22772014221E+03  0.27709482085E+03  0.12509091422E+03 0.  0.
        -24    2    1    2    0    0 -0.10022477744E+02  0.99170225841E+02  0.16897172090E+03  0.21454830379E+03  0.86858208835E+02 0.  0.
        -13    1    3    3    0    0  0.19828862513E+02 -0.16956275021E+02 -0.23685414274E+03  0.23828676838E+03  0.00000000000E+00 0.  1.
         14    1    3    3    0    0 -0.11494646195E+02  0.14090200313E+02 -0.85104387102E+01  0.20077056633E+02  0.00000000000E+00 0. -1.
         11    1    5    5    0    0 -0.34700602618E+02  0.54136145598E+01  0.40657711572E+02  0.53726050989E+02  0.00000000000E+00 0. -1.
        -12    1    5    5    0    0  0.24678124874E+02  0.93756611281E+02  0.12831400933E+03  0.16082225280E+03  0.00000000000E+00 0.  1.
          5    1    4    4  501    0 -0.18501387048E+02 -0.12206176904E+03 -0.16374203705E+03  0.20511046751E+03  0.41800000000E+01 0.  1.
         -5    1    4    4    0  501  0.20189648474E+02  0.25757617909E+02 -0.63978105165E+02  0.71984353344E+02  0.41800000000E+01 0.  1.
</event>
<event>
11    1  0.9238666E-009  0.1589139E+03  0.7561462E-02  0.1088103E+00
         22   -1    0    0    0    0  0.00000000000E+00  0.00000000000E+00  0.13285553741E+04  0.13285553741E+04  0.00000000000E+00 0.  1.
         22   -1    0    0    0    0 -0.00000000000E+00 -0.00000000000E+00 -0.30299602177E+03  0.30299602177E+03  0.00000000000E+00 0.  1.
         24    2    1    2    0    0  0.99413497234E+02 -0.19498323227E+02 -0.26857794560E+03  0.29815204470E+03  0.80605836358E+02 0.  0.
         25    2    1    2    0    0 -0.40184894255E+02 -0.45273082864E+02  0.28267006018E+03  0.31498326368E+03  0.12509043016E+03 0.  0.
        -24    2    1    2    0    0 -0.59228602979E+02  0.64771406092E+02  0.10114672377E+04  0.10184160875E+04  0.80012447486E+02 0.  0.
        -11    1    3    3    0    0  0.76281419519E+02  0.19805345200E+02 -0.20722630116E+03  0.22170666782E+03  0.00000000000E+00 0.  1.
         12    1    3    3    0    0  0.23132077715E+02 -0.39303668427E+02 -0.61351644447E+02  0.76445376888E+02  0.00000000000E+00 0. -1.
         13    1    5    5    0    0 -0.78578578224E+01 -0.16524067674E+01  0.76423271307E+01  0.11085194705E+02  0.00000000000E+00 0. -1.
        -14    1    5    5    0    0 -0.51370745156E+02  0.66423812859E+02  0.10038249106E+04  0.10073308928E+04  0.00000000000E+00 0.  1.
          5    1    4    4  501    0  0.15927536713E+02 -0.44872233755E+02  0.23906330337E+03  0.24379487117E+03  0.41800000000E+01 0. -1.
         -5    1    4    4    0  501 -0.56112430968E+02 -0.40084910907E+00  0.43606756807E+02  0.71188392511E+02  0.41800000000E+01 0. -1.
</event>
<event>
11    1  0.9238666E-009  0.1748242E+03  0.7561462E-02  0.1073908E+00
         22   -1    0    0    0    0  0.00000000000E+00  0.00000000000E+00  0.96121498169E+03  0.96121498169E+03  0.00000000000E+00 0.  1.
         22   -1    0    0    0    0 -0.00000000000E+00 -0.00000000000E+00 -0.22386858482E+03  0.22386858482E+03  0.00000000000E+00 0. -1.
        -24    2    1    2    0    0  0.12432025475E+03 -0.40482382535E+02 -0.16417798779E+03  0.22457622856E+03  0.79910710948E+02 0.  0.
         25    2    1    2    0    0 -0.58996876049E+02  0.31657503097E+02  0.17139252591E+03  0.22249709904E+03  0.12508689881E+03 0.  0.
         24    2    1    2    0    0 -0.65323378704E+02  0.88248794376E+01  0.73013185874E+03  0.73801023891E+03  0.84979758100E+02 0.  0.
        -11    1    5    5    0    0 -0.59603975234E+02 -0.21902709127E+01  0.71859147917E+03  0.72106251122E+03  0.00000000000E+00 0.  1.
         12    1    5    5    0    0 -0.57194034706E+01  0.11015150350E+02  0.11540379573E+02  0.16947727694E+02  0.00000000000E+00 0. -1.
         13    1    3    3    0    0  0.13603558057E+03 -0.37745426177E+02 -0.15014347686E+03  0.20609090233E+03  0.00000000000E+00 0. -1.
        -14    1    3    3    0    0 -0.11715325817E+02 -0.27369563572E+01 -0.14034510927E+02  0.18485326236E+02  0.00000000000E+00 0.  1.
          5    1    4    4  501    0  0.83260987338E+01  0.27644065280E+02  0.14821830001E+03  0.15106175930E+03  0.41800000000E+01 0. -1.
         -5    1    4    4    0  501 -0.67322974783E+02  0.40134378168E+01  0.23174225903E+02  0.71435339734E+02  0.41800000000E+01 0. -1.
</event>
<event>
11    1  0.9238666E-009  0.2540802E+03  0.7561462E-02  0.1021748E+00
         22   -1    0    0    0    0  0.00000000000E+00  0.00000000000E+00  0.27066236074E+03  0.27066236074E+03  0.00000000000E+00 0. -1.
         22   -1    0    0    0    0 -0.00000000000E+00 -0.00000000000E+00 -0.19012144094E+04  0.19012144094E+04  0.00000000000E+00 0.  1.
         24    2    1    2    0    0 -0.70934612949E+02 -0.10283674352E+02 -0.88940737298E+03  0.89584502746E+03  0.79720542153E+02 0.  0.
         25    2    1    2    0    0  0.14446419702E+03 -0.19745059834E+03 -0.93397076235E+03  0.97355260747E+03  0.12508657634E+03 0.  0.
        -24    2    1    2    0    0 -0.73529584070E+02  0.20773427269E+03  0.19282608667E+03  0.30247913522E+03  0.75839302190E+02 0.  0.
        -13    1    3    3    0    0 -0.36890059343E+02  0.17167308561E+02 -0.71071763417E+03  0.71188141462E+03  0.00000000000E+00 0.  1.
         14    1    3    3    0    0 -0.34044553606E+02 -0.27450982913E+02 -0.17868973882E+03  0.18396361285E+03  0.00000000000E+00 0. -1.
         13    1    5    5    0    0 -0.63365387051E+02  0.19100270697E+03  0.19791204621E+03  0.28225234168E+03  0.00000000000E+00 0. -1.
        -14    1    5    5    0    0 -0.10164197019E+02  0.16731565719E+02 -0.50859595402E+01  0.20226793539E+02  0.00000000000E+00 0.  1.
          5    1    4    4  501    0  0.73815985383E+02 -0.18105373050E+03 -0.76549171593E+03  0.79007866227E+03  0.41800000000E+01 0.  1.
         -5    1    4    4    0  501  0.70648211636E+02 -0.16396867839E+02 -0.16847904642E+03  0.18347394520E+03  0.41800000000E+01 0.  1.
</event>
<event>
11    1  0.9238666E-009  0.1637847E+03  0.7561462E-02  0.1083571E+00
         22   -1    0    0    0    0  0.00000000000E+00  0.00000000000E+00  0.25821116888E+03  0.25821116888E+03  0.00000000000E+00 0. -1.
         22   -1    0    0    0    0 -0.00000000000E+00 -0.00000000000E+00 -0.76765621828E+03  0.76765621828E+03  0.00000000000E+00 0. -1.
         24    2    1    2    0    0  0.29188359311E+02 -0.17898479273E+02 -0.48633154870E+03  0.49375952093E+03  0.78152244797E+02 0.  0.
         25    2    1    2    0    0 -0.10239094160E+03  0.90483208304E+02 -0.22180288390E+03  0.28897816120E+03  0.12506295389E+03 0.  0.
        -24    2    1    2    0    0  0.73202582294E+02 -0.72584729031E+02  0.19868938320E+03  0.24312970503E+03  0.94907436640E+02 0.  0.
        -13    1    3    3    0    0  0.86357712703E+01 -0.77198547373E+01 -0.63101975928E+01  0.13190576040E+02  0.00000000000E+00 0.  1.
         14    1    3    3    0    0  0.20552588041E+02 -0.10178624535E+02 -0.48002135110E+03  0.48056894489E+03  0.00000000000E+00 0. -1.
         11    1    5    5    0    0  0.67198554380E+02 -0.12898926736E+02  0.56264015901E+02  0.88587061736E+02  0.00000000000E+00 0. -1.
        -12    1    5    5    0    0  0.60040279141E+01 -0.59685802296E+02  0.14242536729E+03  0.15454264329E+03  0.00000000000E+00 0.  1.
          5    1    4    4  501    0 -0.36091826909E+02  0.91641815900E+01  0.61790009361E+01  0.37977027877E+02  0.41800000000E+01 0. -1.
         -5    1    4    4    0  501 -0.66299114696E+02  0.81319026714E+02 -0.22798188484E+03  0.25100113332E+03  0.41800000000E+01 0. -1.
</event>
<event>
11    1  0.9238666E-009  0.1305972E+03  0.7561462E-02  0.1118537E+00
         22   -1    0    0    0    0  0.00000000000E+00  0.00000000000E+00  0.51175453453E+03  0.51175453453E+03  0.00000000000E+00 0.  1.
         22   -1    0    0    0    0 -0.00000000000E+00 -0.00000000000E+00 -0.16677945798E+04  0.16677945798E+04  0.00000000000E+00 0.  1.
        -24    2    1    2    0    0 -0.65753018320E+01 -0.22908864145E+02 -0.13381633107E+04  0.13407943924E+04  0.80501590349E+02 0.  0.
         25    2    1    2    0    0  0.25280072388E+02  0.55107417562E+02 -0.30927914988E+03  0.33908219349E+03  0.12508889583E+03 0.  0.
         24    2    1    2    0    0 -0.18704770556E+02 -0.32198553417E+02  0.49140241531E+03  0.49967252840E+03  0.82520825160E+02 0.  0.
        -11    1    5    5    0    0 -0.39235404476E+02 -0.27552891019E+02  0.45578752059E+03  0.45830213036E+03  0.00000000000E+00 0.  1.
         12    1    5    5    0    0  0.20530633920E+02 -0.46456623984E+01  0.35614894720E+02  0.41370398043E+02  0.00000000000E+00 0. -1.
         11    1    3    3    0    0  0.18304596530E+02 -0.37134679361E+02 -0.38869865428E+03  0.39089728383E+03  0.00000000000E+00 0. -1.
        -12    1    3    3    0    0 -0.24879898362E+02  0.14225815216E+02 -0.94946465641E+03  0.94989710860E+03  0.00000000000E+00 0.  1.
          5    1    4    4  501    0  0.59329614450E+01  0.22809270342E+02  0.33474130717E+01  0.24168997069E+02  0.41800000000E+01 0.  1.
         -5    1    4    4    0  501  0.19347110943E+02  0.32298147220E+02 -0.31262656295E+03  0.31491319642E+03  0.41800000000E+01 0.  1.
</event>
<event>
11    1  0.9238666E-009  0.3180916E+03  0.7561462E-02  0.9928124E-01
         22   -1    0    0    0    0  0.00000000000E+00  0.00000000000E+00  0.23551176107E+03  0.23551176107E+03  0.00000000000E+00 0. -1.
         22   -1    0    0    0    0 -0.00000000000E+00 -0.00000000000E+00 -0.30388361980E+04  0.30388361980E+04  0.00000000000E+00 0.  1.
         24    2    1    2    0    0 -0.18261916884E+03  0.22893301964E+03 -0.27356044393E+04  0.27524062507E+04  0.80302129895E+02 0.  0.
         25    2    1    2    0    0  0.22012482880E+03 -0.19259505982E+03 -0.18729654587E+03  0.36915996861E+03  0.12510511184E+03 0.  0.
        -24    2    1    2    0    0 -0.37505659967E+02 -0.36337959816E+02  0.11957654823E+03  0.15278173980E+03  0.79476960668E+02 0.  0.
        -13    1    3    3    0    0 -0.15848707647E+03  0.15895911053E+03 -0.18142657422E+04  0.18280991044E+04  0.00000000000E+00 0.  1.
         14    1    3    3    0    0 -0.24132092361E+02  0.69973909109E+02 -0.92133869716E+03  0.92430714631E+03  0.00000000000E+00 0. -1.
         13    1    5    5    0    0 -0.35965193509E+02 -0.32895552892E+02  0.13151792961E+03  0.14025896888E+03  0.00000000000E+00 0. -1.
        -14    1    5    5    0    0 -0.15404664581E+01 -0.34424069239E+01 -0.11941381376E+02  0.12522770919E+02  0.00000000000E+00 0.  1.
          5    1    4    4  501    0  0.22281635695E+03 -0.15583545464E+03 -0.19035437518E+03  0.33193987166E+03  0.41800000000E+01 0.  1.
         -5    1    4    4    0  501 -0.26915281474E+01 -0.36759605187E+02  0.30578293093E+01  0.37220096956E+02  0.41800000000E+01 0.  1.
</event>
<event>
11    1  0.9238666E-009  0.1395091E+03  0.7561462E-02  0.1108108E+00
         22   -1    0    0    0    0  0.00000000000E+00  0.00000000000E+00  0.21146500780E+03  0.21146500780E+03  0.00000000000E+00 0. -1.
         22   -1    0    0    0    0 -0.00000000000E+00 -0.00000000000E+00 -0.41410033358E+03  0.41410033358E+03  0.00000000000E+00 0. -1.
         24    2    1    2    0    0  0.66732279143E+02 -0.26742173733E+00 -0.33219763002E+03  0.34833031738E+03  0.80780418550E+02 0.  0.
         25    2    1    2    0    0 -0.14751581981E+02 -0.26089339542E+02  0.21014063593E+02  0.13033601493E+03  0.12509045971E+03 0.  0.
        -24    2    1    2    0    0 -0.51980697161E+02  0.26356761279E+02  0.10854824066E+03  0.14689900906E+03  0.79999541068E+02 0.  0.
        -13    1    3    3    0    0 -0.10777711471E+02 -0.83826593214E+01 -0.10219920718E+02  0.17055052663E+02  0.00000000000E+00 0.  1.
         14    1    3    3    0    0  0.77509990614E+02  0.81152375841E+01 -0.32197770931E+03  0.33127526472E+03  0.00000000000E+00 0. -1.
         13    1    5    5    0    0 -0.28142890821E+02  0.48936899792E+02  0.96738488835E+02  0.11200525741E+03  0.00000000000E+00 0. -1.
        -14    1    5    5    0    0 -0.23837806340E+02 -0.22580138513E+02  0.11809751822E+02  0.34893751654E+02  0.00000000000E+00 0.  1.
          5    1    4    4  501    0  0.43962907448E+02 -0.48438419941E+02  0.79024923069E+01  0.66022265504E+02  0.41800000000E+01 0.  1.
         -5    1    4    4    0  501 -0.58714489429E+02  0.22349080399E+02  0.13111571286E+02  0.64313749426E+02  0.41800000000E+01 0.  1.
</event>
<event>
11    1  0.9238666E-009  0.1329892E+03  0.7561462E-02  0.1115650E+00
         22   -1    0    0    0    0  0.00000000000E+00  0.00000000000E+00  0.10105107703E+04  0.10105107703E+04  0.00000000000E+00 0.  1.
         22   -1    0    0    0    0 -0.00000000000E+00 -0.00000000000E+00 -0.50909017630E+03  0.50909017630E+03  0.00000000000E+00 0.  1.
         24    2    1    2    0    0  0.44811160043E+02  0.50397295881E+01 -0.43252988152E+03  0.44212209902E+03  0.79727116407E+02 0.  0.
         25    2    1    2    0    0 -0.42179211044E+02 -0.27289794183E+02 -0.49072719540E+01  0.13490376867E+03  0.12510446344E+03 0.  0.
        -24    2    1    2    0    0 -0.26319489998E+01  0.22250064595E+02  0.93885774745E+03  0.94257507888E+03  0.80572432292E+02 0.  0.
        -11    1    3    3    0    0  0.36653643446E+02  0.82942482339E+01 -0.43166397914E+03  0.43329675168E+03  0.00000000000E+00 0.  1.
         12    1    3    3    0    0  0.81575165976E+01 -0.32545186458E+01 -0.86590238360E+00  0.88253473356E+01  0.00000000000E+00 0. -1.
         11    1    5    5    0    0  0.29402598225E+02 -0.13666279487E+02  0.50898405267E+03  0.51001573098E+03  0.00000000000E+00 0. -1.
        -12    1    5    5    0    0 -0.32034547224E+02  0.35916344082E+02  0.42987369478E+03  0.43255934790E+03  0.00000000000E+00 0.  1.
          5    1    4    4  501    0  0.15624876157E+02  0.39985353712E+02 -0.14701099351E+02  0.45569287778E+02  0.41800000000E+01 0.  1.
         -5    1    4    4    0  501 -0.57804087201E+02 -0.67275147895E+02  0.97938273970E+01  0.89334480893E+02  0.41800000000E+01 0.  1.
</event>
<event>
11    1  0.9238666E-009  0.1279503E+03  0.7561462E-02  0.1121813E+00
         22   -1    0    0    0    0  0.00000000000E+00  0.00000000000E+00  0.77334136091E+03  0.77334136091E+03  0.00000000000E+00 0. -1.
         22   -1    0    0    0    0 -0.00000000000E+00 -0.00000000000E+00 -0.22025408278E+03  0.22025408278E+03  0.00000000000E+00 0. -1.
         24    2    1    2    0    0  0.16522266994E+02  0.19209798748E+02 -0.18022043950E+03  0.19916229567E+03  0.80896301092E+02 0.  0.
         25    2    1    2    0    0 -0.21502392541E+02 -0.42531302013E+02  0.14314436934E+03  0.19598098874E+03  0.12508786088E+03 0.  0.
        -24    2    1    2    0    0  0.49801255466E+01  0.23321503265E+02  0.59016334829E+03  0.59845215928E+03  0.96350999580E+02 0.  0.
        -13    1    3    3    0    0 -0.32662748069E+02  0.29476513351E+01 -0.76131206028E+02  0.82894537161E+02  0.00000000000E+00 0.  1.
         14    1    3    3    0    0  0.49185015063E+02  0.16262147413E+02 -0.10408923347E+03  0.11626775851E+03  0.00000000000E+00 0. -1.
         13    1    5    5    0    0 -0.26022388776E+02 -0.21966550221E+02  0.36950071757E+03  0.37106667100E+03  0.00000000000E+00 0. -1.
        -14    1    5    5    0    0  0.31002514322E+02  0.45288053486E+02  0.22066263072E+03  0.22738548828E+03  0.00000000000E+00 0.  1.
          5    1    4    4  501    0  0.15837876581E+02 -0.36465133949E+02 -0.74396539514E+01  0.40661593420E+02  0.41800000000E+01 0. -1.
         -5    1    4    4    0  501 -0.37340269122E+02 -0.60661680640E+01  0.15058402329E+03  0.15531939532E+03  0.41800000000E+01 0. -1.
</event>
<event>
11    1  0.9238666E-009  0.1998664E+03  0.7561462E-02  0.1054618E+00
         22   -1    0    0    0    0  0.00000000000E+00  0.00000000000E+00  0.55167484417E+03  0.55167484417E+03  0.00000000000E+00 0. -1.
         22   -1    0    0    0    0 -0.00000000000E+00 -0.00000000000E+00 -0.87801975257E+03  0.87801975257E+03  0.00000000000E+00 0. -1.
         24    2    1    2    0    0 -0.80269810346E+02  0.13533088064E+03 -0.75569632642E+03  0.77606237699E+03  0.80238304512E+02 0.  0.
         25    2    1    2    0    0  0.11039510336E+03 -0.10028171102E+03 -0.19220940523E+02  0.19560239616E+03  0.12508937772E+03 0.  0.
        -24    2    1    2    0    0 -0.30125293013E+02 -0.35049169623E+02  0.44857235855E+03  0.45802982358E+03  0.80238275568E+02 0.  0.
        -13    1    3    3    0    0 -0.43143640359E+02  0.26357927299E+02 -0.12313326088E+03  0.13310865475E+03  0.00000000000E+00 0.  1.
         14    1    3    3    0    0 -0.37126169988E+02  0.10897295334E+03 -0.63256306554E+03  0.64295372224E+03  0.00000000000E+00 0. -1.
         13    1    5    5    0    0 -0.35836622584E+02 -0.56900222937E+02  0.37790171646E+03  0.38383799472E+03  0.00000000000E+00 0. -1.
        -14    1    5    5    0    0  0.57113295713E+01  0.21851053314E+02  0.70670642092E+02  0.74191828864E+02  0.00000000000E+00 0.  1.
          5    1    4    4  501    0  0.10512329268E+03 -0.13784060741E+02  0.26152161765E+01  0.10613773481E+03  0.41800000000E+01 0. -1.
         -5    1    4    4    0  501  0.52718106762E+01 -0.86497650278E+02 -0.21836156700E+02  0.89464661352E+02  0.41800000000E+01 0. -1.
</event>
<event>
11    1  0.9238666E-009  0.1339083E+03  0.7561462E-02  0.1114558E+00
         22   -1    0    0    0    0  0.00000000000E+00  0.00000000000E+00  0.94326057338E+03  0.94326057338E+03  0.00000000000E+00 0. -1.
         22   -1    0    0    0    0 -0.00000000000E+00 -0.00000000000E+00 -0.12257378663E+03  0.12257378663E+03  0.00000000000E+00 0. -1.
         24    2    1    2    0    0  0.28742586996E+02 -0.16581329635E+02 -0.62968027939E+02  0.10763488084E+03  0.80741675928E+02 0.  0.
         25    2    1    2    0    0  0.21171444139E+02  0.13830868811E+02  0.83517445560E+02  0.15251650454E+03  0.12508636003E+03 0.  0.
        -24    2    1    2    0    0 -0.49914031134E+02  0.27504608235E+01  0.80013736913E+03  0.80568297462E+03  0.80039181481E+02 0.  0.
        -11    1    3    3    0    0  0.55609534053E+02 -0.49660691348E+01 -0.29403336751E+02  0.63100224503E+02  0.00000000000E+00 0.  1.
         12    1    3    3    0    0 -0.26866947057E+02 -0.11615260500E+02 -0.33564691188E+02  0.44534656339E+02  0.00000000000E+00 0. -1.
         11    1    5    5    0    0 -0.53838639145E+02  0.30526274675E-01  0.79895081047E+03  0.80076275984E+03  0.00000000000E+00 0. -1.
        -12    1    5    5    0    0  0.39246080108E+01  0.27199345488E+01  0.11865586583E+01  0.49202147756E+01  0.00000000000E+00 0.  1.
          5    1    4    4  501    0  0.59300771257E+02 -0.31944153061E+02  0.50377458410E+02  0.84216216386E+02  0.41800000000E+01 0.  1.
         -5    1    4    4    0  501 -0.38129327119E+02  0.45775021872E+02  0.33139987150E+02  0.68300288156E+02  0.41800000000E+01 0.  1.
</event>
<event>
11    1  0.9238666E-009  0.1391503E+03  0.7561462E-02  0.1108511E+00
         22   -1    0    0    0    0  0.00000000000E+00  0.00000000000E+00  0.30896397247E+03  0.30896397247E+03  0.00000000000E+00 0. -1.
         22   -1    0    0    0    0 -0.00000000000E+00 -0.00000000000E+00 -0.11699202404E+03  0.11699202404E+03  0.00000000000E+00 0. -1.
         24    2    1    2    0    0 -0.91558285345E+02  0.32364625140E+02  0.42309348294E+02  0.13426242086E+03  0.82498049234E+02 0.  0.
         25    2    1    2    0    0  0.11627074279E+02 -0.29426837115E+02  0.47614196876E+02  0.13752792323E+03  0.12508273392E+03 0.  0.
        -24    2    1    2    0    0  0.79931211066E+02 -0.29377880250E+01  0.10204840326E+03  0.15416565242E+03  0.83399896133E+02 0.  0.
        -13    1    3    3    0    0  0.87111739502E+01 -0.14307626397E+02  0.40632848339E+01  0.17236676256E+02  0.00000000000E+00 0.  1.
         14    1    3    3    0    0 -0.10026945930E+03  0.46672251537E+02  0.38246063460E+02  0.11702574461E+03  0.00000000000E+00 0. -1.
         11    1    5    5    0    0  0.84351677934E+02 -0.13284872966E+02  0.11081721392E+03  0.13990049436E+03  0.00000000000E+00 0. -1.
        -12    1    5    5    0    0 -0.44204668679E+01  0.10347084941E+02 -0.87688106570E+01  0.14265158059E+02  0.00000000000E+00 0.  1.
          5    1    4    4  501    0  0.36906583618E+02 -0.50843295258E+02 -0.16628710736E+02  0.65123905041E+02  0.41800000000E+01 0. -1.
         -5    1    4    4    0  501 -0.25279509339E+02  0.21416458143E+02  0.64242907612E+02  0.72404018191E+02  0.41800000000E+01 0. -1.
</event>
<event>
11    1  0.9238666E-009  0.1811865E+03  0.7561462E-02  0.1068687E+00
         22   -1    0    0    0    0  0.00000000000E+00  0.00000000000E+00  0.11096516433E+04  0.11096516433E+04  0.00000000000E+00 0.  1.
         22   -1    0    0    0    0 -0.00000000000E+00 -0.00000000000E+00 -0.11702936456E+04  0.11702936456E+04  0.00000000000E+00 0. -1.
         24    2    1    2    0    0 -0.45806497297E+02  0.20185958324E+01 -0.11016321170E+04  0.11052502859E+04  0.76697870842E+02 0.  0.
         25    2    1    2    0    0  0.14163892678E+03 -0.86567497857E+02  0.11699682944E+03  0.23851929229E+03  0.12509067684E+03 0.  0.
        -24    2    1    2    0    0 -0.95832429482E+02  0.84548902024E+02  0.92399328525E+03  0.93617571064E+03  0.79555003714E+02 0.  0.
        -13    1    3    3    0    0  0.13774832302E+02  0.16361716791E+02 -0.13561416297E+03  0.13729039653E+03  0.00000000000E+00 0.  1.
         14    1    3    3    0    0 -0.59581329598E+02 -0.14343120958E+02 -0.96601795405E+03  0.96795988941E+03  0.00000000000E+00 0. -1.
         13    1    5    5    0    0  0.37427327158E+01  0.42124585425E+02  0.26456891724E+03  0.26792760349E+03  0.00000000000E+00 0. -1.
        -14    1    5    5    0    0 -0.99575162197E+02  0.42424316600E+02  0.65942436802E+03  0.66824810714E+03  0.00000000000E+00 0.  1.
          5    1    4    4  501    0  0.70284382945E+02 -0.89026391728E+02  0.15795869363E+02  0.11459744674E+03  0.41800000000E+01 0.  1.
         -5    1    4    4    0  501  0.71354543834E+02  0.24588938711E+01  0.10120096008E+03  0.12392184555E+03  0.41800000000E+01 0.  1.
</event>
<event>
11    1  0.9238666E-009  0.1349031E+03  0.7561462E-02  0.1113387E+00
         22   -1    0    0    0    0  0.00000000000E+00  0.00000000000E+00  0.21202074628E+03  0.21202074628E+03  0.00000000000E+00 0.  1.
         22   -1    0    0    0    0 -0.00000000000E+00 -0.00000000000E+00 -0.12366733461E+04  0.12366733461E+04  0.00000000000E+00 0.  1.
        -24    2    1    2    0    0  0.43907275662E+02 -0.27691907088E+02 -0.10721557143E+04  0.10763539148E+04  0.79531022938E+02 0.  0.
         25    2    1    2    0    0 -0.12429052851E+02  0.39610982122E+02 -0.12348775360E+03  0.18059803920E+03  0.12507164033E+03 0.  0.
         24    2    1    2    0    0 -0.31478222811E+02 -0.11919075034E+02  0.17099086807E+03  0.19174213839E+03  0.79963915675E+02 0.  0.
        -13    1    5    5    0    0  0.38987708834E+01  0.56319108257E+01  0.14340867650E+03  0.14357216767E+03  0.00000000000E+00 0.  1.
         14    1    5    5    0    0 -0.35376993694E+02 -0.17550985860E+02  0.27582191572E+02  0.48169970722E+02  0.00000000000E+00 0. -1.
         13    1    3    3    0    0 -0.24026508220E+01 -0.41693358370E+01 -0.24720503281E+01  0.54099098993E+01  0.00000000000E+00 0. -1.
        -14    1    3    3    0    0  0.46309926484E+02 -0.23522571251E+02 -0.10696836639E+04  0.10709440049E+04  0.00000000000E+00 0.  1.
          5    1    4    4  501    0 -0.47964342050E+02 -0.76588169027E+01 -0.61551350112E+01  0.49138515155E+02  0.41800000000E+01 0.  1.
         -5    1    4    4    0  501  0.35535289199E+02  0.47269799024E+02 -0.11733261859E+03  0.13145952405E+03  0.41800000000E+01 0.  1.
</event>
<event>
11    1  0.9238666E-009  0.1929159E+03  0.7561462E-02  0.1059649E+00
         22   -1    0    0    0    0  0.00000000000E+00  0.00000000000E+00  0.10090439768E+04  0.10090439768E+04  0.00000000000E+00 0.  1.
         22   -1    0    0    0    0 -0.00000000000E+00 -0.00000000000E+00 -0.26427960778E+03  0.26427960778E+03  0.00000000000E+00 0. -1.
        -24    2    1    2    0    0  0.26500039207E+00 -0.65696747548E+02 -0.18028762434E+03  0.20786488527E+03  0.79925278697E+02 0.  0.
         25    2    1    2    0    0  0.11354530751E+03 -0.35134722872E+02  0.58980509460E+02  0.18235512578E+03  0.12509079020E+03 0.  0.
         24    2    1    2    0    0 -0.11381030790E+03  0.10083147042E+03  0.86607148390E+03  0.88310357353E+03  0.81684360473E+02 0.  0.
        -13    1    5    5    0    0 -0.10202933558E+03  0.11446895930E+03  0.73725328804E+03  0.75303090155E+03  0.00000000000E+00 0.  1.
         14    1    5    5    0    0 -0.11780972322E+02 -0.13637488880E+02  0.12881819585E+03  0.13007267197E+03  0.00000000000E+00 0. -1.
         11    1    3    3    0    0  0.20391118959E+02 -0.52068045152E+01 -0.11388721482E+03  0.11581539727E+03  0.00000000000E+00 0. -1.
        -12    1    3    3    0    0 -0.20126118567E+02 -0.60489943033E+02 -0.66400409523E+02  0.92049488003E+02  0.00000000000E+00 0.  1.
          5    1    4    4  501    0  0.73961415491E+02 -0.63916585557E+02  0.82419183872E+02  0.12792972743E+03  0.41800000000E+01 0. -1.
         -5    1    4    4    0  501  0.39583892018E+02  0.28781862686E+02 -0.23438674412E+02  0.54425398346E+02  0.41800000000E+01 0. -1.
</event>
<event>
11    1  0.9238666E-009  0.1464533E+03  0.7561462E-02  0.1100559E+00
         22   -1    0    0    0    0  0.00000000000E+00  0.00000000000E+00  0.11901832146E+03  0.11901832146E+03  0.00000000000E+00 0.  1.
         22   -1    0    0    0    0 -0.00000000000E+00 -0.00000000000E+00 -0.71268951215E+03  0.71268951215E+03  0.00000000000E+00 0.  1.
         24    2    1    2    0    0 -0.19500541799E+02  0.53632026974E+02 -0.34476154215E+03  0.35932179058E+03  0.83635894141E+02 0.  0.
         25    2    1    2    0    0  0.92006851362E+02 -0.64979418977E+02 -0.30453082010E+03  0.34795650377E+03  0.12508845883E+03 0.  0.
        -24    2    1    2    0    0 -0.72506309562E+02  0.11347392003E+02  0.55621171568E+02  0.12442953926E+03  0.83684331165E+02 0.  0.
        -11    1    3    3    0    0 -0.44128303326E+02  0.59746967355E+02 -0.28216287753E+03  0.29177542172E+03  0.00000000000E+00 0.  1.
         12    1    3    3    0    0  0.24627761526E+02 -0.61149403809E+01 -0.62598664626E+02  0.67546368863E+02  0.00000000000E+00 0. -1.
         11    1    5    5    0    0  0.17665823715E+02 -0.35593270694E+01  0.18370865020E+02  0.25734001210E+02  0.00000000000E+00 0. -1.
        -12    1    5    5    0    0 -0.90172133277E+02  0.14906719072E+02  0.37250306548E+02  0.98695538051E+02  0.00000000000E+00 0.  1.
          5    1    4    4  501    0 -0.23911860417E+02  0.79854738941E+01 -0.21110772860E+02  0.33146372240E+02  0.41800000000E+01 0.  1.
         -5    1    4    4    0  501  0.11591871178E+03 -0.72964892871E+02 -0.28342004724E+03  0.31481013153E+03  0.41800000000E+01 0.  1.
</event>
<event>
11    1  0.9238666E-009  0.4275220E+03  0.7561462E-02  0.9571870E-01
         22   -1    0    0    0    0  0.00000000000E+00  0.00000000000E+00  0.23823341575E+04  0.23823341575E+04  0.00000000000E+00 0. -1.
         22   -1    0    0    0    0 -0.00000000000E+00 -0.00000000000E+00 -0.45584849731E+03  0.45584849731E+03  0.00000000000E+00 0. -1.
        -24    2    1    2    0    0 -0.25234534656E+03 -0.34564892899E+03 -0.30097883412E+03  0.52936145106E+03  0.80522861550E+02 0.  0.
         25    2    1    2    0    0  0.47068147937E+02  0.29620302721E+03  0.79739820158E+03  0.86107098762E+03  0.12509080688E+03 0.  0.
         24    2    1    2    0    0  0.20527719863E+03  0.49445901780E+02  0.14300662928E+04  0.14477502162E+04  0.79419526641E+02 0.  0.
        -11    1    5    5    0    0  0.13669755369E+03 -0.40242462010E+01  0.96233836407E+03  0.97200696639E+03  0.00000000000E+00 0.  1.
         12    1    5    5    0    0  0.68579644939E+02  0.53470147980E+02  0.46772792870E+03  0.47574324978E+03  0.00000000000E+00 0. -1.
         11    1    3    3    0    0 -0.19074579469E+03 -0.27312971485E+03 -0.27146038996E+03  0.42973776032E+03  0.00000000000E+00 0. -1.
        -12    1    3    3    0    0 -0.61599551874E+02 -0.72519214142E+02 -0.29518444158E+02  0.99623690738E+02  0.00000000000E+00 0.  1.
          5    1    4    4  501    0  0.30473601097E+02  0.32319779255E+02  0.24018692999E+03  0.24429580888E+03  0.41800000000E+01 0.  1.
         -5    1    4    4    0  501  0.16594546839E+02  0.26388324795E+03  0.55721127158E+03  0.61677517875E+03  0.41800000000E+01 0.  1.
</event>
<event>
11    1  0.9238666E-009  0.1339430E+03  0.7561462E-02  0.1114517E+00
         22   -1    0    0    0    0  0.00000000000E+00  0.00000000000E+00  0.79669521848E+02  0.79669521848E+02  0.00000000000E+00 0. -1.
         22   -1    0    0    0    0 -0.00000000000E+00 -0.00000000000E+00 -0.90368662722E+03  0.90368662722E+03  0.00000000000E+00 0. -1.
         24    2    1    2    0    0 -0.15840479283E+02 -0.34563027835E+02 -0.72544617133E+03  0.73044242795E+03  0.76344412869E+02 0.  0.
         25    2    1    2    0    0  0.58707258534E+02  0.19588481933E+02 -0.82618397197E+02  0.16218443555E+03  0.12509092993E+03 0.  0.
        -24    2    1    2    0    0 -0.42866779251E+02  0.14974545902E+02 -0.15952536840E+02  0.90729285561E+02  0.76912430975E+02 0.  0.
        -11    1    3    3    0    0  0.13834213111E+02 -0.49531010709E+02 -0.48264034757E+03  0.48537244625E+03  0.00000000000E+00 0.  1.
         12    1    3    3    0    0 -0.29674692395E+02  0.14967982874E+02 -0.24280582376E+03  0.24506998170E+03  0.00000000000E+00 0. -1.
         13    1    5    5    0    0 -0.58103190545E+02  0.87637579701E-01  0.80264131245E+01  0.58655023139E+02  0.00000000000E+00 0. -1.
        -14    1    5    5    0    0  0.15236411294E+02  0.14886908322E+02 -0.23978949964E+02  0.32074262422E+02  0.00000000000E+00 0.  1.
          5    1    4    4  501    0  0.90830822806E+02  0.24108986981E+02 -0.88262100042E+02  0.12899283828E+03  0.41800000000E+01 0. -1.
         -5    1    4    4    0  501 -0.32123564272E+02 -0.45205050481E+01  0.56437028442E+01  0.33191597268E+02  0.41800000000E+01 0. -1.
</event>
<event>
11    1  0.9238666E-009  0.1731738E+03  0.7561462E-02  0.1075302E+00
         22   -1    0    0    0    0  0.00000000000E+00  0.00000000000E+00  0.61981741719E+03  0.61981741719E+03  0.00000000000E+00 0. -1.
         22   -1    0    0    0    0 -0.00000000000E+00 -0.00000000000E+00 -0.74892443384E+03  0.74892443384E+03  0.00000000000E+00 0.  1.
         24    2    1    2    0    0 -0.96356550796E+02  0.57785633759E+02 -0.45427292325E+03  0.47478240034E+03  0.80191486600E+02 0.  0.
         25    2    1    2    0    0  0.10432367738E+03 -0.10301158609E+03 -0.24766748927E+03  0.31381663556E+03  0.12508748531E+03 0.  0.
        -24    2    1    2    0    0 -0.79671265872E+01  0.45225952329E+02  0.57283339586E+03  0.58014281513E+03  0.79490406124E+02 0.  0.
        -11    1    3    3    0    0 -0.93769547619E+02  0.74833943025E+02 -0.41246219438E+03  0.42955547823E+03  0.00000000000E+00 0.  1.
         12    1    3    3    0    0 -0.25870031767E+01 -0.17048309267E+02 -0.41810728874E+02  0.45226922106E+02  0.00000000000E+00 0. -1.
         11    1    5    5    0    0 -0.40850628860E+02  0.29000308438E+02  0.41974525420E+03  0.42272434303E+03  0.00000000000E+00 0. -1.
        -12    1    5    5    0    0  0.32883502273E+02  0.16225643892E+02  0.15308814167E+03  0.15741847211E+03  0.00000000000E+00 0.  1.
          5    1    4    4  501    0  0.84324048717E+02 -0.43635107978E+01 -0.15684859271E+03  0.17818119669E+03  0.41800000000E+01 0. -1.
         -5    1    4    4    0  501  0.19999628666E+02 -0.98648075290E+02 -0.90818896561E+02  0.13563543887E+03  0.41800000000E+01 0. -1.
</event>
<event>
11    1  0.9238666E-009  0.1627293E+03  0.7561462E-02  0.1084538E+00
         22   -1    0    0    0    0  0.00000000000E+00  0.00000000000E+00  0.14895410638E+04  0.14895410638E+04  0.00000000000E+00 0. -1.
         22   -1    0    0    0    0 -0.00000000000E+00 -0.00000000000E+00 -0.46700916980E+03  0.46700916980E+03  0.00000000000E+00 0.  1.
         24    2    1    2    0    0  0.36113270084E+02 -0.99092441682E+02 -0.43642272278E+03  0.45582009482E+03  0.78636414001E+02 0.  0.
         25    2    1    2    0    0 -0.36228665475E+02  0.57515716380E+02  0.24464396296E+03  0.28305170780E+03  0.12508807635E+03 0.  0.
        -24    2    1    2    0    0  0.11539539056E+00  0.41576725302E+02  0.12143106538E+04  0.12176784309E+04  0.80385072339E+02 0.  0.
        -13    1    3    3    0    0  0.13594794417E+02 -0.87595421616E+02 -0.40910104367E+03  0.41859460132E+03  0.00000000000E+00 0.  1.
         14    1    3    3    0    0  0.22518475667E+02 -0.11497020066E+02 -0.27321679113E+02  0.37225493500E+02  0.00000000000E+00 0. -1.
         11    1    5    5    0    0 -0.33496481318E+02  0.37151780130E+02  0.93165152707E+03  0.93299348171E+03  0.00000000000E+00 0. -1.
        -12    1    5    5    0    0  0.33611876708E+02  0.44249451721E+01  0.28265912671E+03  0.28468494921E+03  0.00000000000E+00 0.  1.
          5    1    4    4  501    0 -0.54750181535E+02  0.87125424646E+02  0.14884461678E+03  0.18099893464E+03  0.41800000000E+01 0.  1.
         -5    1    4    4    0  501  0.18521516060E+02 -0.29609708266E+02  0.95799346182E+02  0.10205277316E+03  0.41800000000E+01 0.  1.
</event>
<event>
11    1  0.9238666E-009  0.1309436E+03  0.7561462E-02  0.1118115E+00
         22   -1    0    0    0    0  0.00000000000E+00  0.00000000000E+00  0.33618286739E+03  0.33618286739E+03  0.00000000000E+00 0. -1.
         22   -1    0    0    0    0 -0.00000000000E+00 -0.00000000000E+00 -0.37448600899E+03  0.37448600899E+03  0.00000000000E+00 0. -1.
         24    2    1    2    0    0 -0.53116532890E+01 -0.40833196914E+02 -0.27212704747E+03  0.28592387128E+03  0.77483976250E+02 0.  0.
         25    2    1    2    0    0  0.68504942995E+01  0.22030138590E+02 -0.45423508465E+02  0.13506485810E+03  0.12508782712E+03 0.  0.
        -24    2    1    2    0    0 -0.15388410105E+01  0.18803058324E+02  0.27924741434E+03  0.28968014700E+03  0.74696359462E+02 0.  0.
        -13    1    3    3    0    0  0.14983314325E+01  0.16716694669E+02 -0.15537669291E+02  0.22871642808E+02  0.00000000000E+00 0.  1.
         14    1    3    3    0    0 -0.68099847214E+01 -0.57549891582E+02 -0.25658937817E+03  0.26305222847E+03  0.00000000000E+00 0. -1.
         11    1    5    5    0    0  0.91803820065E+01 -0.12228937284E+02  0.22990695438E+03  0.23041491704E+03  0.00000000000E+00 0. -1.
        -12    1    5    5    0    0 -0.10719223017E+02  0.31031995608E+02  0.49340459955E+02  0.59265229959E+02  0.00000000000E+00 0.  1.
          5    1    4    4  501    0  0.64588613942E+01  0.10104752006E+02  0.43464630903E+02  0.45282109526E+02  0.41800000000E+01 0. -1.
         -5    1    4    4    0  501  0.39163290535E+00  0.11925386584E+02 -0.88888139368E+02  0.89782748576E+02  0.41800000000E+01 0. -1.
</event>
<event>
11    1  0.9238666E-009  0.1534433E+03  0.7561462E-02  0.1093411E+00
         22   -1    0    0    0    0  0.00000000000E+00  0.00000000000E+00  0.20089459851E+03  0.20089459851E+03  0.00000000000E+00 0. -1.
         22   -1    0    0    0    0 -0.00000000000E+00 -0.00000000000E+00 -0.29601050685E+03  0.29601050685E+03  0.00000000000E+00 0. -1.
        -24    2    1    2    0    0  0.22621489684E+00  0.19629920265E+02 -0.18657095679E+03  0.20304717061E+03  0.77679126100E+02 0.  0.
         25    2    1    2    0    0 -0.60147491566E+02 -0.78273913884E+02  0.31208352663E+02  0.16237636463E+03  0.12509035206E+03 0.  0.
         24    2    1    2    0    0  0.59921276669E+02  0.58643993619E+02  0.60246695779E+02  0.13148157012E+03  0.81412907715E+02 0.  0.
        -11    1    5    5    0    0 -0.42794991408E+01 -0.63271065173E+01 -0.12542781287E+02  0.14685630807E+02  0.00000000000E+00 0.  1.
         12    1    5    5    0    0  0.64200775810E+02  0.64971100136E+02  0.72789477066E+02  0.11679593931E+03  0.00000000000E+00 0. -1.
         13    1    3    3    0    0  0.21651291877E+02  0.19786074940E+02 -0.17728658749E+03  0.17969641428E+03  0.00000000000E+00 0. -1.
        -14    1    3    3    0    0 -0.21425076981E+02 -0.15615467466E+00 -0.92843693047E+01  0.23350756332E+02  0.00000000000E+00 0.  1.
          5    1    4    4  501    0 -0.98598323897E+02 -0.57858873214E+02  0.31447865460E+02  0.11864113674E+03  0.41800000000E+01 0.  1.
         -5    1    4    4    0  501  0.38450832332E+02 -0.20415040670E+02 -0.23951279742E+00  0.43735227894E+02  0.41800000000E+01 0.  1.
</event>
<event>
11    1  0.9238666E-009  0.1903285E+03  0.7561462E-02  0.1061582E+00
         22   -1    0    0    0    0  0.00000000000E+00  0.00000000000E+00  0.16029320460E+04  0.16029320460E+04  0.00000000000E+00 0. -1.
         22   -1    0    0    0    0 -0.00000000000E+00 -0.00000000000E+00 -0.19021225405E+03  0.19021225405E+03  0.00000000000E+00 0.  1.
         24    2    1    2    0    0 -0.11824066332E+03 -0.22353974260E+02 -0.12534076649E+03  0.18873038407E+03  0.73676967226E+02 0.  0.
         25    2    1    2    0    0  0.12382274446E+03 -0.12257905168E+03  0.39557894850E+03  0.44998681772E+03  0.12509090962E+03 0.  0.
        -24    2    1    2    0    0 -0.55820811372E+01  0.14493302594E+03  0.11424816099E+04  0.11544270982E+04  0.80005965280E+02 0.  0.
        -13    1    3    3    0    0 -0.11460581480E+03 -0.35308784901E+02 -0.87165228552E+02  0.14825309489E+03  0.00000000000E+00 0.  1.
         14    1    3    3    0    0 -0.36348485270E+01  0.12954810641E+02 -0.38175537940E+02  0.40477289183E+02  0.00000000000E+00 0. -1.
         11    1    5    5    0    0  0.21196432904E+02  0.12132005926E+03  0.99933464174E+03  0.10068950152E+04  0.00000000000E+00 0. -1.
        -12    1    5    5    0    0 -0.26778514042E+02  0.23612966682E+02  0.14314696817E+03  0.14753208297E+03  0.00000000000E+00 0.  1.
          5    1    4    4  501    0  0.75892372132E+02 -0.67689235404E+02  0.34867161522E+03  0.36322286877E+03  0.41800000000E+01 0. -1.
         -5    1    4    4    0  501  0.47930372329E+02 -0.54889816277E+02  0.46907333284E+02  0.86763948956E+02  0.41800000000E+01 0. -1.
</event>
<event>
11    1  0.9238666E-009  0.1346346E+03  0.7561462E-02  0.1113702E+00
         22   -1    0    0    0    0  0.00000000000E+00  0.00000000000E+00  0.31510953567E+03  0.31510953567E+03  0.00000000000E+00 0.  1.
         22   -1    0    0    0    0 -0.00000000000E+00 -0.00000000000E+00 -0.16135138140E+04  0.16135138140E+04  0.00000000000E+00 0. -1.
        -24    2    1    2    0    0 -0.20220321717E+02 -0.13170632711E+02 -0.14192920562E+04  0.14218567252E+04  0.81879661487E+02 0.  0.
         25    2    1    2    0    0 -0.18802570819E+02  0.44555509300E+02 -0.16096915721E+03  0.20951736421E+03  0.12509087198E+03 0.  0.
         24    2    1    2    0    0  0.39022892536E+02 -0.31384876589E+02  0.28185693510E+03  0.29724926033E+03  0.80037455523E+02 0.  0.
        -13    1    5    5    0    0  0.14995418428E+02 -0.44130194725E+02  0.25427978912E+03  0.25851604943E+03  0.00000000000E+00 0.  1.
         14    1    5    5    0    0  0.24027474108E+02  0.12745318136E+02  0.27577145979E+02  0.38733210902E+02  0.00000000000E+00 0. -1.
         11    1    3    3    0    0 -0.23228274791E+02 -0.24408883180E+02 -0.13889823038E+04  0.13893909409E+04  0.00000000000E+00 0. -1.
        -12    1    3    3    0    0  0.30079530742E+01  0.11238250469E+02 -0.30309752469E+02  0.32465784298E+02  0.00000000000E+00 0.  1.
          5    1    4    4  501    0 -0.56630417899E+02  0.29585772508E+02 -0.27078350824E+02  0.69520008987E+02  0.41800000000E+01 0. -1.
         -5    1    4    4    0  501  0.37827847080E+02  0.14969736792E+02 -0.13389080638E+03  0.13999735522E+03  0.41800000000E+01 0. -1.
</event>
<event>
11    1  0.9238666E-009  0.1636114E+03  0.7561462E-02  0.1083729E+00
         22   -1    0    0    0    0  0.00000000000E+00  0.00000000000E+00  0.11178370583E+04  0.11178370583E+04  0.00000000000E+00 0. -1.
         22   -1    0    0    0    0 -0.00000000000E+00 -0.00000000000E+00 -0.79534277287E+03  0.79534277287E+03  0.00000000000E+00 0. -1.
        -24    2    1    2    0    0 -0.51995042355E+02 -0.94499520106E+02 -0.65456454670E+03  0.66759636300E+03  0.74809854705E+02 0.  0.
         25    2    1    2    0    0  0.15562914379E+02  0.91859435262E+02 -0.86558348750E+02  0.17838166140E+03  0.12508920511E+03 0.  0.
         24    2    1    2    0    0  0.36432127975E+02  0.26400848438E+01  0.10636171809E+04  0.10672018068E+04  0.79397222359E+02 0.  0.
        -13    1    5    5    0    0 -0.10150767116E+02  0.58696056884E+01  0.25855062849E+02  0.28389692124E+02  0.00000000000E+00 0.  1.
         14    1    5    5    0    0  0.46582895091E+02 -0.32295208446E+01  0.10377621180E+04  0.10388121146E+04  0.00000000000E+00 0. -1.
         11    1    3    3    0    0 -0.56536261616E+02 -0.10245510219E+03 -0.63822620674E+03  0.64886523085E+03  0.00000000000E+00 0. -1.
        -12    1    3    3    0    0  0.45412192611E+01  0.79555820868E+01 -0.16338339968E+02  0.18731132150E+02  0.00000000000E+00 0.  1.
          5    1    4    4  501    0 -0.21987039808E+02 -0.11777542790E+02  0.14180554510E+02  0.28994843678E+02  0.41800000000E+01 0.  1.
         -5    1    4    4    0  501  0.37549954187E+02  0.10363697805E+03 -0.10073890326E+03  0.14938681772E+03  0.41800000000E+01 0.  1.
</event>
<event>
11    1  0.9238666E-009  0.1278660E+03  0.7561462E-02  0.1121919E+00
         22   -1    0    0    0    0  0.00000000000E+00  0.00000000000E+00  0.49633160139E+03  0.49633160139E+03  0.00000000000E+00 0. -1.
         22   -1    0    0    0    0 -0.00000000000E+00 -0.00000000000E+00 -0.21073934868E+04  0.21073934868E+04  0.00000000000E+00 0.  1.
        -24    2    1    2    0    0  0.19491490432E+02  0.17204551167E+02 -0.20018737662E+04  0.20037911369E+04  0.83692470302E+02 0.  0.
         25    2    1    2    0    0 -0.35136420885E+02 -0.36409608161E+02 -0.55335431860E+02  0.14584038427E+03  0.12508868863E+03 0.  0.
         24    2    1    2    0    0  0.15644930453E+02  0.19205056994E+02  0.44614731269E+03  0.45409356703E+03  0.80869926007E+02 0.  0.
        -13    1    5    5    0    0 -0.77315408915E+01  0.37851992576E+02  0.10939914525E+03  0.11602035618E+03  0.00000000000E+00 0.  1.
         14    1    5    5    0    0  0.23376471345E+02 -0.18646935582E+02  0.33674816744E+03  0.33807321085E+03  0.00000000000E+00 0. -1.
         13    1    3    3    0    0  0.11896602093E+02  0.11439491483E+02 -0.70968571871E+02  0.72862399770E+02  0.00000000000E+00 0. -1.
        -14    1    3    3    0    0  0.75948883389E+01  0.57650596842E+01 -0.19309051943E+04  0.19309287371E+04  0.00000000000E+00 0.  1.
          5    1    4    4  501    0 -0.32641265463E+02  0.35507293952E+02 -0.55646966479E+02  0.73758236239E+02  0.41800000000E+01 0.  1.
         -5    1    4    4    0  501 -0.24951554223E+01 -0.71916902113E+02  0.31153461902E+00  0.72082148026E+02  0.41800000000E+01 0.  1.
</event>
<event>
11    1  0.9238666E-009  0.1578754E+03  0.7561462E-02  0.1089093E+00
         22   -1    0    0    0    0  0.00000000000E+00  0.00000000000E+00  0.79996266969E+03  0.79996266969E+03  0.00000000000E+00 0.  1.
         22   -1    0    0    0    0 -0.00000000000E+00 -0.00000000000E+00 -0.10645804128E+04  0.10645804128E+04  0.00000000000E+00 0. -1.
        -24    2    1    2    0    0 -0.73297753478E+02 -0.63697294187E+02 -0.10215226818E+04  0.10292695484E+04  0.80357375938E+02 0.  0.
         25    2    1    2    0    0  0.85065394101E+02 -0.35878224493E+01  0.13027798330E+03  0.19967644458E+03  0.12509730550E+03 0.  0.
         24    2    1    2    0    0 -0.11767640623E+02  0.67285116636E+02  0.62662695535E+03  0.63559708956E+03  0.81587712282E+02 0.  0.
        -11    1    5    5    0    0 -0.17537402094E+02  0.66043484432E+02  0.62593614204E+03  0.62965495013E+03  0.00000000000E+00 0.  1.
         12    1    5    5    0    0  0.57697614709E+01  0.12416322044E+01  0.69081330928E+00  0.59421394287E+01  0.00000000000E+00 0. -1.
         11    1    3    3    0    0 -0.74354328673E+02 -0.16532967947E+02 -0.72880857891E+03  0.73277817238E+03  0.00000000000E+00 0. -1.
        -12    1    3    3    0    0  0.10565751949E+01 -0.47164326240E+02 -0.29271410287E+03  0.29649137600E+03  0.00000000000E+00 0.  1.
          5    1    4    4  501    0 -0.23287180410E+02  0.28397381836E+01 -0.67977820574E+01  0.24779812859E+02  0.41800000000E+01 0. -1.
         -5    1    4    4    0  501  0.10835257451E+03 -0.64275606329E+01  0.13707576535E+03  0.17489663172E+03  0.41800000000E+01 0. -1.
</event>
<event>
11    1  0.9238666E-009  0.1521042E+03  0.7561462E-02  0.1094748E+00
         22   -1    0    0    0    0  0.00000000000E+00  0.00000000000E+00  0.14457828209E+04  0.14457828209E+04  0.00000000000E+00 0.  1.
         22   -1    0    0    0    0 -0.00000000000E+00 -0.00000000000E+00 -0.57372581670E+03  0.57372581670E+03  0.00000000000E+00 0. -1.
         24    2    1    2    0    0  0.33302975667E+02 -0.16329291471E+02 -0.53170455142E+03  0.53909329390E+03  0.80846246579E+02 0.  0.
         25    2    1    2    0    0  0.55088014007E+02  0.51332885378E+01  0.96137406524E+02  0.16718491060E+03  0.12508938189E+03 0.  0.
        -24    2    1    2    0    0 -0.88390989674E+02  0.11196002933E+02  0.13076241491E+04  0.13132304331E+04  0.82188427198E+02 0.  0.
        -13    1    3    3    0    0  0.26329668825E+01  0.14372517068E+02 -0.16401437732E+02  0.21966085704E+02  0.00000000000E+00 0.  1.
         14    1    3    3    0    0  0.30670008785E+02 -0.30701808539E+02 -0.51530311369E+03  0.51712720820E+03  0.00000000000E+00 0. -1.
         11    1    5    5    0    0 -0.22474570759E+02  0.39683214256E+02  0.35761625166E+03  0.36051247867E+03  0.00000000000E+00 0. -1.
        -12    1    5    5    0    0 -0.65916418915E+02 -0.28487211323E+02  0.95000789746E+03  0.95271795445E+03  0.00000000000E+00 0.  1.
          5    1    4    4  501    0  0.39188398178E+02  0.78517179920E+00  0.12643719417E+03  0.13243935788E+03  0.41800000000E+01 0.  1.
         -5    1    4    4    0  501  0.15899615829E+02  0.43481167386E+01 -0.30299787644E+02  0.34745552722E+02  0.41800000000E+01 0.  1.
</event>
<event>
11    1  0.9238666E-009  0.1803904E+03  0.7561462E-02  0.1069327E+00
         22   -1    0    0    0    0  0.00000000000E+00  0.00000000000E+00  0.76633290383E+03  0.76633290383E+03  0.00000000000E+00 0.  1.
         22   -1    0    0    0    0 -0.00000000000E+00 -0.00000000000E+00 -0.12497440899E+04  0.12497440899E+04  0.00000000000E+00 0.  1.
        -24    2    1    2    0    0  0.37141306191E+02  0.12390681056E+03 -0.11860300031E+04  0.11957434304E+04  0.80017552721E+02 0.  0.
         25    2    1    2    0    0 -0.84106846566E+02 -0.13483787649E+03  0.13196774613E+03  0.24149619360E+03  0.12509880467E+03 0.  0.
         24    2    1    2    0    0  0.46965540375E+02  0.10931065926E+02  0.57065107088E+03  0.57883736977E+03  0.84171288231E+02 0.  0.
        -11    1    5    5    0    0 -0.54816882736E+00 -0.12246824993E+02  0.39994372170E+03  0.40013156054E+03  0.00000000000E+00 0.  1.
         12    1    5    5    0    0  0.47513709202E+02  0.23177890919E+02  0.17070734918E+03  0.17870580923E+03  0.00000000000E+00 0. -1.
         11    1    3    3    0    0  0.57861012313E+01  0.10941124771E+03 -0.70373394280E+03  0.71221188024E+03  0.00000000000E+00 0. -1.
        -12    1    3    3    0    0  0.31355204960E+02  0.14495562848E+02 -0.48229606027E+03  0.48353155013E+03  0.00000000000E+00 0.  1.
          5    1    4    4  501    0  0.13274531796E+02 -0.96441228472E+02  0.60960352030E+02  0.11493807317E+03  0.41800000000E+01 0.  1.
         -5    1    4    4    0  501 -0.97381378362E+02 -0.38396648015E+02  0.71007394096E+02  0.12655812043E+03  0.41800000000E+01 0.  1.
</event>
<event>
11    1  0.9238666E-009  0.1871109E+03  0.7561462E-02  0.1064032E+00
         22   -1    0    0    0    0  0.00000000000E+00  0.00000000000E+00  0.15301205348E+04  0.15301205348E+04  0.00000000000E+00 0.  1.
         22   -1    0    0    0    0 -0.00000000000E+00 -0.00000000000E+00 -0.72855710726E+03  0.72855710726E+03  0.00000000000E+00 0.  1.
         24    2    1    2    0    0 -0.14417675640E+03 -0.20598293994E+02 -0.64594909515E+03  0.66716995332E+03  0.81573808819E+02 0.  0.
         25    2    1    2    0    0  0.88426657351E+02  0.33549723180E+01  0.13247382929E+02  0.15379882348E+03  0.12509218753E+03 0.  0.
        -24    2    1    2    0    0  0.55750099047E+02  0.17243321676E+02  0.14342651398E+04  0.14377088653E+04  0.80528780232E+02 0.  0.
        -13    1    3    3    0    0 -0.87021397293E+02 -0.51870127618E+02 -0.41717881833E+03  0.42930338944E+03  0.00000000000E+00 0.  1.
         14    1    3    3    0    0 -0.57155359105E+02  0.31271833625E+02 -0.22877027682E+03  0.23786656387E+03  0.00000000000E+00 0. -1.
         13    1    5    5    0    0  0.11862776034E+02  0.11742571564E+02  0.49519350350E+02  0.52256860806E+02  0.00000000000E+00 0. -1.
        -14    1    5    5    0    0  0.43887323013E+02  0.55007501120E+01  0.13847457895E+04  0.13854520045E+04  0.00000000000E+00 0.  1.
          5    1    4    4  501    0  0.10406525438E+03  0.36539186731E+02 -0.89213452538E+01  0.11073279612E+03  0.41800000000E+01 0. -1.
         -5    1    4    4    0  501 -0.15638597028E+02 -0.33184214413E+02  0.22168728183E+02  0.43066027358E+02  0.41800000000E+01 0. -1.
</event>
<event>
11    1  0.9238666E-009  0.1383620E+03  0.7561462E-02  0.1109401E+00
         22   -1    0    0    0    0  0.00000000000E+00  0.00000000000E+00  0.15106975519E+04  0.15106975519E+04  0.00000000000E+00 0.  1.
         22   -1    0    0    0    0 -0.00000000000E+00 -0.00000000000E+00 -0.10457361593E+03  0.10457361593E+03  0.00000000000E+00 0.  1.
        -24    2    1    2    0    0 -0.13601354509E+02  0.59094297944E+02  0.52080417102E+02  0.11505554848E+03  0.82754314062E+02 0.  0.
         25    2    1    2    0    0  0.24514607084E+02 -0.53299015798E+02 -0.55230147462E+01  0.13823179226E+03  0.12504308719E+03 0.  0.
         24    2    1    2    0    0 -0.10913252574E+02 -0.57952821466E+01  0.13595665336E+04  0.13619838271E+04  0.80162968753E+02 0.  0.
        -13    1    5    5    0    0  0.12990472408E+02 -0.24115287395E+02  0.11435485091E+04  0.11438765196E+04  0.00000000000E+00 0.  1.
         14    1    5    5    0    0 -0.23903724983E+02  0.18320005248E+02  0.21601802454E+03  0.21810730751E+03  0.00000000000E+00 0. -1.
         13    1    3    3    0    0 -0.19371117652E+02  0.75504635875E+02  0.57469386744E+02  0.96844827691E+02  0.00000000000E+00 0. -1.
        -14    1    3    3    0    0  0.57697631424E+01 -0.16410337931E+02 -0.53889696428E+01  0.18210720786E+02  0.00000000000E+00 0.  1.
          5    1    4    4  501    0  0.47718062607E+02 -0.84461374700E+02  0.65863985749E+01  0.97322095957E+02  0.41800000000E+01 0.  1.
         -5    1    4    4    0  501 -0.23203455524E+02  0.31162358903E+02 -0.12109413321E+02  0.40909696303E+02  0.41800000000E+01 0.  1.
</event>
<event>
11    1  0.9238666E-009  0.1282255E+03  0.7561462E-02  0.1121469E+00
         22   -1    0    0    0    0  0.00000000000E+00  0.00000000000E+00  0.26426332769E+03  0.26426332769E+03  0.00000000000E+00 0.  1.
         22   -1    0    0    0    0 -0.00000000000E+00 -0.00000000000E+00 -0.57844351649E+03  0.57844351649E+03  0.00000000000E+00 0.  1.
         24    2    1    2    0    0  0.11242341032E+02  0.94363889594E+01 -0.51812001286E+03  0.52464821286E+03  0.81190909983E+02 0.  0.
         25    2    1    2    0    0 -0.10100932229E+02  0.20307406297E+02  0.38169033470E+02  0.13274515899E+03  0.12509989023E+03 0.  0.
        -24    2    1    2    0    0 -0.11414088027E+01 -0.29743795256E+02  0.16577079060E+03  0.18531347233E+03  0.77298976967E+02 0.  0.
        -11    1    3    3    0    0 -0.29094704916E+02  0.24083655098E+02 -0.18852345212E+03  0.19226964477E+03  0.00000000000E+00 0.  1.
         12    1    3    3    0    0  0.40337045948E+02 -0.14647266138E+02 -0.32959656074E+03  0.33237856810E+03  0.00000000000E+00 0. -1.
         13    1    5    5    0    0  0.26363524702E+02 -0.74086865172E+00  0.12671025816E+03  0.12942593962E+03  0.00000000000E+00 0. -1.
        -14    1    5    5    0    0 -0.27504933505E+02 -0.29002926604E+02  0.39060532435E+02  0.55887532714E+02  0.00000000000E+00 0.  1.
          5    1    4    4  501    0 -0.41277456503E+02 -0.23141016949E+02  0.58519647357E+02  0.75374774345E+02  0.41800000000E+01 0.  1.
         -5    1    4    4    0  501  0.31176524274E+02  0.43448423246E+02 -0.20350613887E+02  0.57370384642E+02  0.41800000000E+01 0.  1.
</event>
<event>
11    1  0.9238666E-009  0.2557234E+03  0.7561462E-02  0.1020894E+00
         22   -1    0    0    0    0  0.00000000000E+00  0.00000000000E+00  0.12476234635E+04  0.12476234635E+04  0.00000000000E+00 0.  1.
         22   -1    0    0    0    0 -0.00000000000E+00 -0.00000000000E+00 -0.99730059939E+02  0.99730059939E+02  0.00000000000E+00 0.  1.
         24    2    1    2    0    0  0.21563657240E+03 -0.31436225139E+02  0.22888324038E+03  0.32621411569E+03  0.80874865943E+02 0.  0.
         25    2    1    2    0    0 -0.22813199335E+03  0.25898518288E+02  0.30331556121E+03  0.40045388859E+03  0.12509215633E+03 0.  0.
        -24    2    1    2    0    0  0.12495420954E+02  0.55377068515E+01  0.61569460200E+03  0.62068551918E+03  0.77355472009E+02 0.  0.
        -13    1    3    3    0    0  0.18586328375E+03 -0.40597251307E+02  0.15283257950E+03  0.24403092922E+03  0.00000000000E+00 0.  1.
         14    1    3    3    0    0  0.29773288647E+02  0.91610261682E+01  0.76050660883E+02  0.82183186468E+02  0.00000000000E+00 0. -1.
         13    1    5    5    0    0 -0.31535537857E+02  0.89706655135E+01  0.20246101874E+03  0.20509857897E+03  0.00000000000E+00 0. -1.
        -14    1    5    5    0    0  0.44030958811E+02 -0.34329586621E+01  0.41323358326E+03  0.41558694021E+03  0.00000000000E+00 0.  1.
          5    1    4    4  501    0 -0.13201032587E+03  0.15767644560E+02  0.26478823826E+03  0.29632014490E+03  0.41800000000E+01 0. -1.
         -5    1    4    4    0  501 -0.96121667481E+02  0.10130873727E+02  0.38527322946E+02  0.10413374369E+03  0.41800000000E+01 0. -1.
</event>
<event>
11    1  0.1100039E-008  0.1810298E+03  0.7561462E-02  0.1068813E+00
         22   -1    0    0    0    0  0.00000000000E+00  0.00000000000E+00  0.58337192169E+03  0.58337192169E+03  0.00000000000E+00 0.  1.
         22   -1    0    0    0    0 -0.00000000000E+00 -0.00000000000E+00 -0.12947403980E+04  0.12947403980E+04  0.00000000000E+00 0. -1.
         24    2    1    2    0    0 -0.55024234165E+02  0.14101233534E+03 -0.11223940874E+04  0.11354172937E+04  0.80571696894E+02 0.  0.
         25    2    1    2    0    0 -0.33362651134E+01 -0.45930349172E+02 -0.12893706057E+03  0.18545424444E+03  0.12509110101E+03 0.  0.
        -24    2    1    2    0    0  0.58360499278E+02 -0.95081986165E+02  0.53996267168E+03  0.55724078152E+03  0.80691200364E+02 0.  0.
        -11    1    3    3    0    0  0.18031365046E+02  0.53104373451E+02 -0.31171127862E+03  0.31671615971E+03  0.00000000000E+00 0.  1.
         12    1    3    3    0    0 -0.73055599210E+02  0.87907961886E+02 -0.81068280876E+03  0.81870113397E+03  0.00000000000E+00 0. -1.
         13    1    5    5    0    0  0.66888296041E+01  0.12339773027E+02  0.25089530118E+02  0.28748825392E+02  0.00000000000E+00 0. -1.
        -14    1    5    5    0    0  0.51671669674E+02 -0.10742175919E+03  0.51487314156E+03  0.52849195613E+03  0.00000000000E+00 0.  1.
          5    1    4    4  501    0  0.40296334944E+02 -0.35127934694E+02 -0.53586795020E+01  0.53888349871E+02  0.41800000000E+01 0.  1.
         -5    1    4    4    0  501 -0.43632600057E+02 -0.10802414478E+02 -0.12357838106E+03  0.13156589457E+03  0.41800000000E+01 0.  1.
</event>
<event>
11    1  0.9238666E-009  0.1832856E+03  0.7561462E-02  0.1067016E+00
         22   -1    0    0    0    0  0.00000000000E+00  0.00000000000E+00  0.71748301626E+02  0.71748301626E+02  0.00000000000E+00 0. -1.
         22   -1    0    0    0    0 -0.00000000000E+00 -0.00000000000E+00 -0.12659957950E+04  0.12659957950E+04  0.00000000000E+00 0. -1.
         24    2    1    2    0    0 -0.86066640363E+02 -0.82305595662E+01 -0.72154423304E+03  0.73105812027E+03  0.79653539100E+02 0.  0.
         25    2    1    2    0    0  0.19645180479E+03 -0.92182901455E+00 -0.35845696219E+03  0.42747286246E+03  0.12508993976E+03 0.  0.
        -24    2    1    2    0    0 -0.11038516443E+03  0.91523885807E+01 -0.11424629820E+03  0.17921311394E+03  0.82440723029E+02 0.  0.
        -13    1    3    3    0    0 -0.45288473809E+02 -0.13164997559E+02 -0.13359189970E+03  0.14167271680E+03  0.00000000000E+00 0.  1.
         14    1    3    3    0    0 -0.40778166554E+02  0.49344379925E+01 -0.58795233334E+03  0.58938540347E+03  0.00000000000E+00 0. -1.
         11    1    5    5    0    0 -0.16433539029E+02  0.36543343971E+02 -0.29508711502E+02  0.49761845305E+02  0.00000000000E+00 0. -1.
        -12    1    5    5    0    0 -0.93951625396E+02 -0.27390955391E+02 -0.84737586694E+02  0.12945126863E+03  0.00000000000E+00 0.  1.
          5    1    4    4  501    0  0.10386863319E+03  0.24483039517E+01 -0.72256540805E+02  0.12662214357E+03  0.41800000000E+01 0.  1.
         -5    1    4    4    0  501  0.92583171596E+02 -0.33701329663E+01 -0.28620042138E+03  0.30085071889E+03  0.41800000000E+01 0.  1.
</event>
<event>
11    1  0.1605792E-008  0.1618966E+03  0.7561462E-02  0.1085307E+00
         22   -1    0    0    0    0  0.00000000000E+00  0.00000000000E+00  0.38059565712E+03  0.38059565712E+03  0.00000000000E+00 0.  1.
         22   -1    0    0    0    0 -0.00000000000E+00 -0.00000000000E+00 -0.20250036878E+04  0.20250036878E+04  0.00000000000E+00 0. -1.
        -24    2    1    2    0    0  0.58120763351E+02  0.66751116503E+02 -0.18390409304E+04  0.18426526788E+04  0.73916278475E+02 0.  0.
         25    2    1    2    0    0  0.14013701305E+02  0.14854828443E+02 -0.14792060489E+03  0.19479994118E+03  0.12509780965E+03 0.  0.
         24    2    1    2    0    0 -0.72134464656E+02 -0.81605944946E+02  0.34255350460E+03  0.36814672499E+03  0.79537389703E+02 0.  0.
        -13    1    5    5    0    0 -0.38179939155E+02 -0.34152312760E+02  0.27108966772E+03  0.27588710765E+03  0.00000000000E+00 0.  1.
         14    1    5    5    0    0 -0.33954525501E+02 -0.47453632186E+02  0.71463836880E+02  0.92259617338E+02  0.00000000000E+00 0. -1.
         13    1    3    3    0    0  0.31319227262E+02  0.39398163606E+02 -0.15795097802E+04  0.15803114424E+04  0.00000000000E+00 0. -1.
        -14    1    3    3    0    0  0.26801536088E+02  0.27352952897E+02 -0.25953115020E+03  0.26234123636E+03  0.00000000000E+00 0.  1.
          5    1    4    4  501    0  0.24050925730E+02 -0.28414391202E+02  0.28481333947E+01  0.37568722625E+02  0.41800000000E+01 0.  1.
         -5    1    4    4    0  501 -0.10037224425E+02  0.43269219645E+02 -0.15076873829E+03  0.15723121855E+03  0.41800000000E+01 0.  1.
</event>
<event>
11    1  0.9238666E-009  0.1409732E+03  0.7561462E-02  0.1106477E+00
         22   -1    0    0    0    0  0.00000000000E+00  0.00000000000E+00  0.94262032194E+03  0.94262032194E+03  0.00000000000E+00 0. -1.
         22   -1    0    0    0    0 -0.00000000000E+00 -0.00000000000E+00 -0.45424655163E+03  0.45424655163E+03  0.00000000000E+00 0. -1.
        -24    2    1    2    0    0 -0.63495799017E+02 -0.11185622450E+02 -0.40020150427E+03  0.41297828415E+03  0.78949252810E+02 0.  0.
         25    2    1    2    0    0  0.70537738727E+02  0.30558694962E+02  0.72700603385E+02  0.16383600279E+03  0.12508977439E+03 0.  0.
         24    2    1    2    0    0 -0.70419397100E+01 -0.19373072512E+02  0.81587467119E+03  0.82005258662E+03  0.80061606813E+02 0.  0.
        -11    1    5    5    0    0 -0.15372268151E+02  0.23174811353E+02  0.13695373626E+03  0.13974871872E+03  0.00000000000E+00 0.  1.
         12    1    5    5    0    0  0.83303284409E+01 -0.42547883865E+02  0.67892093493E+03  0.68030386790E+03  0.00000000000E+00 0. -1.
         13    1    3    3    0    0 -0.79295508881E+02 -0.11641596949E+02 -0.37304103421E+03  0.38155329603E+03  0.00000000000E+00 0. -1.
        -14    1    3    3    0    0  0.15799709864E+02  0.45597449938E+00 -0.27160470060E+02  0.31424988121E+02  0.00000000000E+00 0.  1.
          5    1    4    4  501    0  0.89680598012E+02 -0.19863300586E+02  0.37534294769E+02  0.99314933690E+02  0.41800000000E+01 0. -1.
         -5    1    4    4    0  501 -0.19142859285E+02  0.50421995548E+02  0.35166308616E+02  0.64521069104E+02  0.41800000000E+01 0. -1.
</event>
<event>
11    1  0.9238666E-009  0.1944162E+03  0.7561462E-02  0.1058544E+00
         22   -1    0    0    0    0  0.00000000000E+00  0.00000000000E+00  0.42639194523E+03  0.42639194523E+03  0.00000000000E+00 0.  1.
         22   -1    0    0    0    0 -0.00000000000E+00 -0.00000000000E+00 -0.15338921896E+03  0.15338921896E+03  0.00000000000E+00 0. -1.
        -24    2    1    2    0    0  0.16476964386E+03  0.24475441895E+02  0.80294242637E+01  0.18524948837E+03  0.80652454962E+02 0.  0.
         25    2    1    2    0    0 -0.12168362851E+03  0.28942048906E+02  0.11543313710E+03  0.21123010546E+03  0.12509516646E+03 0.  0.
         24    2    1    2    0    0 -0.43086015356E+02 -0.53417490802E+02  0.14954016490E+03  0.18330157036E+03  0.80792151460E+02 0.  0.
        -11    1    5    5    0    0 -0.17002578760E+02 -0.50800655838E+02  0.30991539880E+02  0.61889174031E+02  0.00000000000E+00 0.  1.
         12    1    5    5    0    0 -0.26083436597E+02 -0.26168349633E+01  0.11854862502E+03  0.12141239633E+03  0.00000000000E+00 0. -1.
         13    1    3    3    0    0  0.14311101670E+03  0.24220932295E+02 -0.23459907267E+02  0.14702987422E+03  0.00000000000E+00 0. -1.
        -14    1    3    3    0    0  0.21658627161E+02  0.25450960011E+00  0.31489331531E+02  0.38219614152E+02  0.00000000000E+00 0.  1.
          5    1    4    4  501    0  0.18369283689E+02 -0.13094949973E+02 -0.28336109816E+01  0.23117310597E+02  0.41800000000E+01 0. -1.
         -5    1    4    4    0  501 -0.14005291220E+03  0.42036998879E+02  0.11826674808E+03  0.18811279486E+03  0.41800000000E+01 0. -1.
</event>
<event>
11    1  0.9238666E-009  0.1934085E+03  0.7561462E-02  0.1059285E+00
         22   -1    0    0    0    0  0.00000000000E+00  0.00000000000E+00  0.17373607267E+04  0.17373607267E+04  0.00000000000E+00 0.  1.
         22   -1    0    0    0    0 -0.00000000000E+00 -0.00000000000E+00 -0.61981465293E+03  0.61981465293E+03  0.00000000000E+00 0.  1.
        -24    2    1    2    0    0  0.11553229302E+03 -0.60761403419E+02 -0.31529962156E+03  0.35052051437E+03  0.80069474603E+02 0.  0.
         25    2    1    2    0    0 -0.16124951455E+03  0.10534758797E+03 -0.23907925101E+03  0.33152065398E+03  0.12509010960E+03 0.  0.
         24    2    1    2    0    0  0.45717221531E+02 -0.44586184550E+02  0.16719249464E+04  0.16751342113E+04  0.81630921757E+02 0.  0.
        -11    1    5    5    0    0  0.55087640243E+02 -0.18512997013E+02  0.14879775817E+04  0.14891120383E+04  0.00000000000E+00 0.  1.
         12    1    5    5    0    0 -0.93704187123E+01 -0.26073187537E+02  0.18394736469E+03  0.18602217296E+03  0.00000000000E+00 0. -1.
         11    1    3    3    0    0  0.38098878905E+00 -0.30679384057E+02 -0.38584891605E+02  0.49296689734E+02  0.00000000000E+00 0. -1.
        -12    1    3    3    0    0  0.11515130423E+03 -0.30082019362E+02 -0.27671472995E+03  0.30122382463E+03  0.00000000000E+00 0.  1.
          5    1    4    4  501    0 -0.18013395296E+03  0.81705168447E+02 -0.19416057827E+03  0.27719988837E+03  0.41800000000E+01 0. -1.
         -5    1    4    4    0  501  0.18884438414E+02  0.23642419521E+02 -0.44918672748E+02  0.54320765611E+02  0.41800000000E+01 0. -1.
</event>
<event>
11    1  0.9238666E-009  0.1644904E+03  0.7561462E-02  0.1082928E+00
         22   -1    0    0    0    0  0.00000000000E+00  0.00000000000E+00  0.15959374934E+03  0.15959374934E+03  0.00000000000E+00 0.  1.
         22   -1    0    0    0    0 -0.00000000000E+00 -0.00000000000E+00 -0.11366821078E+04  0.11366821078E+04  0.00000000000E+00 0. -1.
        -24    2    1    2    0    0 -0.29600092495E+02  0.10695819071E+03 -0.96559859393E+03  0.97511134154E+03  0.78391732774E+02 0.  0.
         25    2    1    2    0    0 -0.41270512839E+02 -0.81404107485E+02 -0.95654947709E+02  0.18199887554E+03  0.12507532823E+03 0.  0.
         24    2    1    2    0    0  0.70870605334E+02 -0.25554083229E+02  0.84165183210E+02  0.13916564002E+03  0.81287412477E+02 0.  0.
        -11    1    5    5    0    0  0.62457894943E+01 -0.11901164408E+02  0.70430516123E+02  0.71701500696E+02  0.00000000000E+00 0.  1.
         12    1    5    5    0    0  0.64624815840E+02 -0.13652918821E+02  0.13734667086E+02  0.67464139324E+02  0.00000000000E+00 0. -1.
         13    1    3    3    0    0  0.23291179113E+02  0.55763756090E+02 -0.35720915192E+03  0.36228504487E+03  0.00000000000E+00 0. -1.
        -14    1    3    3    0    0 -0.52891271608E+02  0.51194434624E+02 -0.60838944201E+03  0.61282629668E+03  0.00000000000E+00 0.  1.
          5    1    4    4  501    0  0.44858257346E+02 -0.33872513113E+02 -0.34037745582E+02  0.65845659849E+02  0.41800000000E+01 0.  1.
         -5    1    4    4    0  501 -0.86128770185E+02 -0.47531594372E+02 -0.61617202127E+02  0.11615321569E+03  0.41800000000E+01 0.  1.
</event>
<event>
11    1  0.9238666E-009  0.1476551E+03  0.7561462E-02  0.1099299E+00
         22   -1    0    0    0    0  0.00000000000E+00  0.00000000000E+00  0.94099625039E+03  0.94099625039E+03  0.00000000000E+00 0. -1.
         22   -1    0    0    0    0 -0.00000000000E+00 -0.00000000000E+00 -0.79194908898E+03  0.79194908898E+03  0.00000000000E+00 0. -1.
        -24    2    1    2    0    0 -0.72886805174E+02  0.29645209996E+02 -0.76582289381E+03  0.77719669005E+03  0.10657704019E+03 0.  0.
         25    2    1    2    0    0  0.70556687713E+02 -0.97309611832E+01  0.27120941093E+03  0.30702992899E+03  0.12505956552E+03 0.  0.
         24    2    1    2    0    0  0.23301174607E+01 -0.19914248813E+02  0.64366064430E+03  0.64871872033E+03  0.78325898262E+02 0.  0.
        -11    1    5    5    0    0 -0.22670354042E+02 -0.20897501624E+02  0.10389532531E+03  0.10837383978E+03  0.00000000000E+00 0.  1.
         12    1    5    5    0    0  0.25000471503E+02  0.98325281179E+00  0.53976531898E+03  0.54034488055E+03  0.00000000000E+00 0. -1.
         13    1    3    3    0    0 -0.67757896136E+02 -0.26952431134E+02 -0.50630169146E+03  0.51152611743E+03  0.00000000000E+00 0. -1.
        -14    1    3    3    0    0 -0.51289090385E+01  0.56597641130E+02 -0.25952120235E+03  0.26567057262E+03  0.00000000000E+00 0.  1.
          5    1    4    4  501    0  0.41344674186E-01  0.22615785749E+01  0.21733083792E+03  0.21738280051E+03  0.41800000000E+01 0.  1.
         -5    1    4    4    0  501  0.70515343039E+02 -0.11992539758E+02  0.53878573009E+02  0.89647128472E+02  0.41800000000E+01 0.  1.
</event>
<event>
11    1  0.9238666E-009  0.1719435E+03  0.7561462E-02  0.1076353E+00
         22   -1    0    0    0    0  0.00000000000E+00  0.00000000000E+00  0.62693626323E+03  0.62693626323E+03  0.00000000000E+00 0.  1.
         22   -1    0    0    0    0 -0.00000000000E+00 -0.00000000000E+00 -0.13031126321E+03  0.13031126321E+03  0.00000000000E+00 0.  1.
         24    2    1    2    0    0  0.85551545857E+02 -0.82820693897E+02 -0.33042386880E+02  0.14763914631E+03  0.80790988714E+02 0.  0.
         25    2    1    2    0    0 -0.44399602744E+02  0.11418923333E+03  0.19773064107E+03  0.26411202588E+03  0.12508896858E+03 0.  0.
        -24    2    1    2    0    0 -0.41151943113E+02 -0.31368539435E+02  0.33193674583E+03  0.34549635425E+03  0.80673786817E+02 0.  0.
        -11    1    3    3    0    0  0.38004712296E+02 -0.70099814439E+02 -0.51666138180E+02  0.95014377731E+02  0.00000000000E+00 0.  1.
         12    1    3    3    0    0  0.47546833562E+02 -0.12720879458E+02  0.18623751300E+02  0.52624768583E+02  0.00000000000E+00 0. -1.
         13    1    5    5    0    0  0.11245711461E+02 -0.30834955290E+02  0.58449282754E+02  0.67034164039E+02  0.00000000000E+00 0. -1.
        -14    1    5    5    0    0 -0.52397654575E+02 -0.53358414521E+00  0.27348746308E+03  0.27846219021E+03  0.00000000000E+00 0.  1.
          5    1    4    4  501    0 -0.58966076754E+02  0.13060630147E+01  0.87533216853E+02  0.10563257292E+03  0.41800000000E+01 0. -1.
         -5    1    4    4    0  501  0.14566474010E+02  0.11288317032E+03  0.11019742422E+03  0.15847945296E+03  0.41800000000E+01 0. -1.
</event>
<event>
11    1  0.9238666E-009  0.1466031E+03  0.7561462E-02  0.1100401E+00
         22   -1    0    0    0    0  0.00000000000E+00  0.00000000000E+00  0.89243383043E+03  0.89243383043E+03  0.00000000000E+00 0. -1.
         22   -1    0    0    0    0 -0.00000000000E+00 -0.00000000000E+00 -0.32092779437E+04  0.32092779437E+04  0.00000000000E+00 0. -1.
        -24    2    1    2    0    0 -0.52311683958E+02  0.21774436688E+02 -0.27229354947E+04  0.27247365835E+04  0.81247170156E+02 0.  0.
         25    2    1    2    0    0  0.18459095064E+01  0.36141738859E+02 -0.47311988225E+03  0.49071370229E+03  0.12509149436E+03 0.  0.
         24    2    1    2    0    0  0.50465774451E+02 -0.57916175547E+02  0.87921126371E+03  0.88626148833E+03  0.80906746826E+02 0.  0.
        -11    1    5    5    0    0  0.10155791610E+02 -0.54090993403E+02  0.26171993057E+03  0.26744400858E+03  0.00000000000E+00 0.  1.
         12    1    5    5    0    0  0.40309982841E+02 -0.38251821443E+01  0.61749133314E+03  0.61881747975E+03  0.00000000000E+00 0. -1.
         11    1    3    3    0    0 -0.21444846289E+02  0.78431332367E+01 -0.23848350184E+04  0.23849443308E+04  0.00000000000E+00 0. -1.
        -12    1    3    3    0    0 -0.30866837668E+02  0.13931303452E+02 -0.33810047638E+03  0.33979225272E+03  0.00000000000E+00 0.  1.
          5    1    4    4  501    0 -0.51477793420E+02  0.86422472732E+01 -0.34767884099E+03  0.35160019984E+03  0.41800000000E+01 0. -1.
         -5    1    4    4    0  501  0.53323702927E+02  0.27499491585E+02 -0.12544104126E+03  0.13911350245E+03  0.41800000000E+01 0. -1.
</event>
<event>
11    1  0.9238666E-009  0.1352750E+03  0.7561462E-02  0.1112952E+00
         22   -1    0    0    0    0  0.00000000000E+00  0.00000000000E+00  0.21936380708E+04  0.21936380708E+04  0.00000000000E+00 0.  1.
         22   -1    0    0    0    0 -0.00000000000E+00 -0.00000000000E+00 -0.29121952389E+03  0.29121952389E+03  0.00000000000E+00 0.  1.
         24    2    1    2    0    0 -0.89540817487E+00  0.29135781457E+02 -0.27310500719E+03  0.28649015093E+03  0.81489668749E+02 0.  0.
         25    2    1    2    0    0 -0.37269020249E+02  0.89664580708E+01  0.41424272442E+03  0.43441196009E+03  0.12508932445E+03 0.  0.
        -24    2    1    2    0    0  0.38164428424E+02 -0.38102239528E+02  0.17612808297E+04  0.17639554837E+04  0.80749508598E+02 0.  0.
        -11    1    3    3    0    0 -0.32995634792E+02  0.20261757669E+02 -0.22293268021E+03  0.22627026018E+03  0.00000000000E+00 0.  1.
         12    1    3    3    0    0  0.32100226617E+02  0.88740237877E+01 -0.50172326982E+02  0.60219890749E+02  0.00000000000E+00 0. -1.
         11    1    5    5    0    0  0.11599669289E+02  0.58778576222E+01  0.43396443436E+02  0.45302901019E+02  0.00000000000E+00 0. -1.
        -12    1    5    5    0    0  0.26564759135E+02 -0.43980097150E+02  0.17178843862E+04  0.17186525826E+04  0.00000000000E+00 0.  1.
          5    1    4    4  501    0 -0.81079286768E+02 -0.11411143205E+02  0.27529581849E+03  0.28724436463E+03  0.41800000000E+01 0. -1.
         -5    1    4    4    0  501  0.43810266519E+02  0.20377601276E+02  0.13894690593E+03  0.14716759546E+03  0.41800000000E+01 0. -1.
</event>
<event>
11    1  0.9238666E-009  0.1396373E+03  0.7561462E-02  0.1107964E+00
         22   -1    0    0    0    0  0.00000000000E+00  0.00000000000E+00  0.57759132888E+03  0.57759132888E+03  0.00000000000E+00 0. -1.
         22   -1    0    0    0    0 -0.00000000000E+00 -0.00000000000E+00 -0.24919485308E+04  0.24919485308E+04  0.00000000000E+00 0. -1.
         24    2    1    2    0    0  0.22509053771E+02  0.43282999596E+01 -0.19291097223E+04  0.19311722754E+04  0.86235983630E+02 0.  0.
         25    2    1    2    0    0  0.39348234240E+02 -0.11132994339E+02 -0.54943095737E+03  0.56497333898E+03  0.12509304430E+03 0.  0.
        -24    2    1    2    0    0 -0.61857288011E+02  0.68046943795E+01  0.56418347774E+03  0.57339424533E+03  0.81273218675E+02 0.  0.
        -11    1    3    3    0    0  0.29098790360E+02  0.27168714447E+02 -0.42166860049E+03  0.42354372535E+03  0.00000000000E+00 0.  1.
         12    1    3    3    0    0 -0.65897365892E+01 -0.22840414487E+02 -0.15074411218E+04  0.15076285501E+04  0.00000000000E+00 0. -1.
         13    1    5    5    0    0  0.12065013913E+02 -0.95395440370E+01  0.23982005400E+03  0.24031276654E+03  0.00000000000E+00 0. -1.
        -14    1    5    5    0    0 -0.73922301924E+02  0.16344238416E+02  0.32436342374E+03  0.33308147879E+03  0.00000000000E+00 0.  1.
          5    1    4    4  501    0  0.19467102296E+02  0.50767140574E+02 -0.37168610414E+03  0.37566514750E+03  0.41800000000E+01 0. -1.
         -5    1    4    4    0  501  0.19881131944E+02 -0.61900134913E+02 -0.17774485323E+03  0.18930819148E+03  0.41800000000E+01 0. -1.
</event>
<event>
11    1  0.9238666E-009  0.1426257E+03  0.7561462E-02  0.1104661E+00
         22   -1    0    0    0    0  0.00000000000E+00  0.00000000000E+00  0.15335991066E+04  0.15335991066E+04  0.00000000000E+00 0.  1.
         22   -1    0    0    0    0 -0.00000000000E+00 -0.00000000000E+00 -0.24095398993E+03  0.24095398993E+03  0.00000000000E+00 0.  1.
         24    2    1    2    0    0  0.82094903286E+01 -0.55170315188E+00 -0.20803940933E+03  0.22419617150E+03  0.83161453653E+02 0.  0.
         25    2    1    2    0    0  0.28202709010E+02  0.58973231021E+02  0.19629323616E+03  0.24176852799E+03  0.12509097406E+03 0.  0.
        -24    2    1    2    0    0 -0.36412199338E+02 -0.58421527869E+02  0.13043912899E+04  0.13085883971E+04  0.78917885529E+02 0.  0.
        -13    1    3    3    0    0 -0.28689962325E+02  0.24896104314E+02 -0.80572890504E+02  0.89078171470E+02  0.00000000000E+00 0.  1.
         14    1    3    3    0    0  0.36899452654E+02 -0.25447807465E+02 -0.12746651883E+03  0.13511800003E+03  0.00000000000E+00 0. -1.
         11    1    5    5    0    0 -0.47086828604E+02 -0.30574611947E+02  0.42507552570E+03  0.42876704500E+03  0.00000000000E+00 0. -1.
        -12    1    5    5    0    0  0.10674629266E+02 -0.27846915922E+02  0.87931576418E+03  0.87982135208E+03  0.00000000000E+00 0.  1.
          5    1    4    4  501    0 -0.38321082477E+02 -0.23688609625E+01  0.19834017439E+02  0.43416327715E+02  0.41800000000E+01 0.  1.
         -5    1    4    4    0  501  0.66523791486E+02  0.61342091983E+02  0.17645921872E+03  0.19835220027E+03  0.41800000000E+01 0.  1.
</event>
<event>
11    1  0.9238666E-009  0.1295220E+03  0.7561462E-02  0.1119858E+00
         22   -1    0    0    0    0  0.00000000000E+00  0.00000000000E+00  0.13064858492E+04  0.13064858492E+04  0.00000000000E+00 0. -1.
         22   -1    0    0    0    0 -0.00000000000E+00 -0.00000000000E+00 -0.37004449608E+02  0.37004449608E+02  0.00000000000E+00 0. -1.
         24    2    1    2    0    0 -0.21708035148E+02  0.27438903534E+01  0.27201125632E+02  0.63713931142E+02  0.53299118770E+02 0.  0.
         25    2    1    2    0    0  0.44877968433E+02 -0.24511505035E+02  0.25387098599E+03  0.28759804848E+03  0.12508922428E+03 0.  0.
        -24    2    1    2    0    0 -0.23169933285E+02  0.21767614682E+02  0.98840928793E+03  0.99217831915E+03  0.80338170672E+02 0.  0.
        -13    1    3    3    0    0 -0.19622478973E+02  0.78404065614E+00  0.43203667520E+02  0.47457489272E+02  0.00000000000E+00 0.  1.
         14    1    3    3    0    0 -0.20855561743E+01  0.19598496972E+01 -0.16002541888E+02  0.16256441870E+02  0.00000000000E+00 0. -1.
         11    1    5    5    0    0  0.23733904151E+02  0.24782318589E+02  0.59176805435E+03  0.59276208690E+03  0.00000000000E+00 0. -1.
        -12    1    5    5    0    0 -0.46903837436E+02 -0.30147039069E+01  0.39664123358E+03  0.39941623224E+03  0.00000000000E+00 0.  1.
          5    1    4    4  501    0  0.71353026744E+02  0.22470169152E+01  0.23429324303E+03  0.24496346593E+03  0.41800000000E+01 0. -1.
         -5    1    4    4    0  501 -0.26475058311E+02 -0.26758521950E+02  0.19577742958E+02  0.42634582546E+02  0.41800000000E+01 0. -1.
</event>
<event>
11    1  0.9238666E-009  0.1832323E+03  0.7561462E-02  0.1067058E+00
         22   -1    0    0    0    0  0.00000000000E+00  0.00000000000E+00  0.23641642007E+04  0.23641642007E+04  0.00000000000E+00 0.  1.
         22   -1    0    0    0    0 -0.00000000000E+00 -0.00000000000E+00 -0.27655952084E+03  0.27655952084E+03  0.00000000000E+00 0.  1.
         24    2    1    2    0    0  0.12879193476E+03  0.45621638302E+02 -0.20524206793E+03  0.25935101939E+03  0.80435989881E+02 0.  0.
         25    2    1    2    0    0 -0.12746296128E+03  0.21643526742E+02  0.14510261119E+03  0.23112464065E+03  0.12509429642E+03 0.  0.
        -24    2    1    2    0    0 -0.13289734830E+01 -0.67265165044E+02  0.21477441366E+04  0.21502480615E+04  0.78965062079E+02 0.  0.
        -13    1    3    3    0    0  0.82024063998E+02  0.37642537964E+02 -0.18858634039E+03  0.20906868613E+03  0.00000000000E+00 0.  1.
         14    1    3    3    0    0  0.46767870763E+02  0.79791003379E+01 -0.16655727543E+02  0.50282333258E+02  0.00000000000E+00 0. -1.
         13    1    5    5    0    0 -0.41356826503E+01  0.16462704777E+02  0.59837713600E+03  0.59861784254E+03  0.00000000000E+00 0. -1.
        -14    1    5    5    0    0  0.28067091672E+01 -0.83727869820E+02  0.15493670006E+04  0.15516302190E+04  0.00000000000E+00 0.  1.
          5    1    4    4  501    0 -0.43094820044E+02  0.70035361742E+02  0.72069334442E+02  0.10942384007E+03  0.41800000000E+01 0. -1.
         -5    1    4    4    0  501 -0.84368141234E+02 -0.48391835001E+02  0.73033276749E+02  0.12170080058E+03  0.41800000000E+01 0. -1.
</event>
<event>
11    1  0.9238666E-009  0.1588370E+03  0.7561462E-02  0.1088176E+00
         22   -1    0    0    0    0  0.00000000000E+00  0.00000000000E+00  0.12370145131E+04  0.12370145131E+04  0.00000000000E+00 0.  1.
         22   -1    0    0    0    0 -0.00000000000E+00 -0.00000000000E+00 -0.46404210682E+03  0.46404210682E+03  0.00000000000E+00 0.  1.
         24    2    1    2    0    0  0.64642664691E+02  0.74123975874E+02 -0.43561949733E+03  0.45396041824E+03  0.81502619451E+02 0.  0.
         25    2    1    2    0    0 -0.65215560602E+02 -0.51100486333E+02  0.30672623298E+03  0.34145711682E+03  0.12509057349E+03 0.  0.
        -24    2    1    2    0    0  0.57289591063E+00 -0.23023489541E+02  0.90186567060E+03  0.90563908485E+03  0.79309866456E+02 0.  0.
        -13    1    3    3    0    0  0.19827750106E+02  0.16810726130E+02 -0.29014705748E+03  0.29130920883E+03  0.00000000000E+00 0.  1.
         14    1    3    3    0    0  0.44814914585E+02  0.57313249743E+02 -0.14547243985E+03  0.16265120941E+03  0.00000000000E+00 0. -1.
         11    1    5    5    0    0  0.92484724102E+01 -0.42903701855E+02  0.28207984669E+03  0.28547381979E+03  0.00000000000E+00 0. -1.
        -12    1    5    5    0    0 -0.86755764996E+01  0.19880212314E+02  0.61978582391E+03  0.62016526506E+03  0.00000000000E+00 0.  1.
          5    1    4    4  501    0 -0.19858620534E+02 -0.65923737257E+02  0.64149442054E+02  0.94196216799E+02  0.41800000000E+01 0. -1.
         -5    1    4    4    0  501 -0.45356940067E+02  0.14823250924E+02  0.24257679093E+03  0.24726090002E+03  0.41800000000E+01 0. -1.
</event>
<event>
11    1  0.9238666E-009  0.1417638E+03  0.7561462E-02  0.1105605E+00
         22   -1    0    0    0    0  0.00000000000E+00  0.00000000000E+00  0.13205639140E+04  0.13205639140E+04  0.00000000000E+00 0.  1.
         22   -1    0    0    0    0 -0.00000000000E+00 -0.00000000000E+00 -0.10046615564E+04  0.10046615564E+04  0.00000000000E+00 0. -1.
         24    2    1    2    0    0  0.19398365368E+02  0.73292717694E+02 -0.98566255338E+03  0.99171727495E+03  0.78894646549E+02 0.  0.
         25    2    1    2    0    0  0.26275571291E+02 -0.62141671994E+01  0.30969905165E+03  0.33509739179E+03  0.12509091840E+03 0.  0.
        -24    2    1    2    0    0 -0.45673936659E+02 -0.67078550495E+02  0.99186585935E+03  0.99841080362E+03  0.80253407471E+02 0.  0.
        -11    1    3    3    0    0 -0.25234699958E+01  0.15849137213E+02 -0.29525051836E+02  0.33604936202E+02  0.00000000000E+00 0.  1.
         12    1    3    3    0    0  0.21921835363E+02  0.57443580482E+02 -0.95613750155E+03  0.95811233875E+03  0.00000000000E+00 0. -1.
         11    1    5    5    0    0 -0.13054216568E+02  0.21785075364E+01  0.23083164327E+02  0.26608099154E+02  0.00000000000E+00 0. -1.
        -12    1    5    5    0    0 -0.32619720091E+02 -0.69257058031E+02  0.96878269502E+03  0.97180270446E+03  0.00000000000E+00 0.  1.
          5    1    4    4  501    0 -0.36629809446E+02 -0.41371857791E+02  0.12196350040E+03  0.13396246261E+03  0.41800000000E+01 0.  1.
         -5    1    4    4    0  501  0.62905380737E+02  0.35157690591E+02  0.18773555125E+03  0.20113492918E+03  0.41800000000E+01 0.  1.
</event>
<event>
11    1  0.9238666E-009  0.1796592E+03  0.7561462E-02  0.1069919E+00
         22   -1    0    0    0    0  0.00000000000E+00  0.00000000000E+00  0.37531779286E+03  0.37531779286E+03  0.00000000000E+00 0. -1.
         22   -1    0    0    0    0 -0.00000000000E+00 -0.00000000000E+00 -0.12004558383E+04  0.12004558383E+04  0.00000000000E+00 0. -1.
         24    2    1    2    0    0  0.12228195228E+03  0.52998158803E+02 -0.11060335937E+04  0.11164931518E+04  0.74060562735E+02 0.  0.
         25    2    1    2    0    0 -0.57042932335E+02 -0.52972648162E+02 -0.13343569096E+02  0.14792717579E+03  0.12507757960E+03 0.  0.
        -24    2    1    2    0    0 -0.65239019943E+02 -0.25510641790E-01  0.29423911739E+03  0.31135330353E+03  0.78154277178E+02 0.  0.
        -11    1    3    3    0    0  0.25872142297E+02  0.35628073472E+02 -0.18063890386E+03  0.18592778425E+03  0.00000000000E+00 0.  1.
         12    1    3    3    0    0  0.96409809981E+02  0.17370085332E+02 -0.92539468988E+03  0.93056536760E+03  0.00000000000E+00 0. -1.
         13    1    5    5    0    0 -0.60382958283E+02  0.21069121492E+02  0.27517461364E+03  0.28250854416E+03  0.00000000000E+00 0. -1.
        -14    1    5    5    0    0 -0.48560616592E+01 -0.21094632134E+02  0.19064503748E+02  0.28844759365E+02  0.00000000000E+00 0.  1.
          5    1    4    4  501    0 -0.21328817392E+02  0.30615261650E+02 -0.38237803194E+02  0.53589315076E+02  0.41800000000E+01 0.  1.
         -5    1    4    4    0  501 -0.35714114943E+02 -0.83587909811E+02  0.24894234098E+02  0.94337860714E+02  0.41800000000E+01 0.  1.
</event>
<event>
11    1  0.9238666E-009  0.1420650E+03  0.7561462E-02  0.1105274E+00
         22   -1    0    0    0    0  0.00000000000E+00  0.00000000000E+00  0.62153828458E+03  0.62153828458E+03  0.00000000000E+00 0.  1.
         22   -1    0    0    0    0 -0.00000000000E+00 -0.00000000000E+00 -0.48117452181E+03  0.48117452181E+03  0.00000000000E+00 0.  1.
         24    2    1    2    0    0 -0.48702777324E+01  0.68481482143E+02 -0.36400175189E+03  0.37871357701E+03  0.78824266749E+02 0.  0.
         25    2    1    2    0    0 -0.21034011429E+02 -0.60078719210E+02 -0.60516281627E+02  0.15284629856E+03  0.12509152050E+03 0.  0.
        -24    2    1    2    0    0  0.25904289161E+02 -0.84027629336E+01  0.56488179629E+03  0.57115293083E+03  0.79891100819E+02 0.  0.
        -11    1    3    3    0    0 -0.36624172180E+02  0.47432842235E+02 -0.28196126077E+03  0.28825918387E+03  0.00000000000E+00 0.  1.
         12    1    3    3    0    0  0.31753894448E+02  0.21048639908E+02 -0.82040491125E+02  0.90454393142E+02  0.00000000000E+00 0. -1.
         13    1    5    5    0    0  0.14677150818E+01  0.11028648426E+02  0.87735596065E+01  0.14169002147E+02  0.00000000000E+00 0. -1.
        -14    1    5    5    0    0  0.24436574079E+02 -0.19431411360E+02  0.55610823668E+03  0.55698392868E+03  0.00000000000E+00 0.  1.
          5    1    4    4  501    0 -0.68141350714E+02 -0.71868728672E+01 -0.37692828012E+02  0.78314216477E+02  0.41800000000E+01 0. -1.
         -5    1    4    4    0  501  0.47107339286E+02 -0.52891846342E+02 -0.22823453615E+02  0.74532082079E+02  0.41800000000E+01 0. -1.
</event>
<event>
11    1  0.9238666E-009  0.1791270E+03  0.7561462E-02  0.1070351E+00
         22   -1    0    0    0    0  0.00000000000E+00  0.00000000000E+00  0.31262372891E+03  0.31262372891E+03  0.00000000000E+00 0.  1.
         22   -1    0    0    0    0 -0.00000000000E+00 -0.00000000000E+00 -0.28038422787E+03  0.28038422787E+03  0.00000000000E+00 0.  1.
        -24    2    1    2    0    0  0.52380309117E+02  0.82856882502E+02 -0.48814198514E+02  0.13591163570E+03  0.80499608570E+02 0.  0.
         25    2    1    2    0    0 -0.14151095059E+03 -0.11638060234E+03 -0.95494003012E+02  0.24153037281E+03  0.12509205666E+03 0.  0.
         24    2    1    2    0    0  0.89130641470E+02  0.33523719834E+02  0.17654770257E+03  0.21556594828E+03  0.78939696828E+02 0.  0.
        -13    1    5    5    0    0  0.24678477669E+02  0.22562436093E+02  0.13269476564E+03  0.13684294505E+03  0.00000000000E+00 0.  1.
         14    1    5    5    0    0  0.64452163801E+02  0.10961283742E+02  0.43852936929E+02  0.78723003228E+02  0.00000000000E+00 0. -1.
         13    1    3    3    0    0  0.11874522773E+02 -0.10824436167E+02  0.91972803485E+01  0.18513850902E+02  0.00000000000E+00 0. -1.
        -14    1    3    3    0    0  0.40505786344E+02  0.93681318669E+02 -0.58011478862E+02  0.11739778479E+03  0.00000000000E+00 0.  1.
          5    1    4    4  501    0 -0.47854588911E+01 -0.57659375597E+02  0.10286242163E+02  0.58913354928E+02  0.41800000000E+01 0. -1.
         -5    1    4    4    0  501 -0.13672549170E+03 -0.58721226739E+02 -0.10578024518E+03  0.18261701788E+03  0.41800000000E+01 0. -1.
</event>
<event>
11    1  0.9238666E-009  0.2759812E+03  0.7561462E-02  0.1010902E+00
         22   -1    0    0    0    0  0.00000000000E+00  0.00000000000E+00  0.12639743253E+03  0.12639743253E+03  0.00000000000E+00 0.  1.
         22   -1    0    0    0    0 -0.00000000000E+00 -0.00000000000E+00 -0.55223777255E+03  0.55223777255E+03  0.00000000000E+00 0. -1.
        -24    2    1    2    0    0 -0.10884734991E+03 -0.30738063271E+02 -0.18406657612E+03  0.23136139322E+03  0.82795022258E+02 0.  0.
         25    2    1    2    0    0 -0.43791535057E+02  0.15234347858E+02 -0.24101807465E+03  0.27545474912E+03  0.12504328294E+03 0.  0.
         24    2    1    2    0    0  0.15263888496E+03  0.15503715413E+02 -0.75568924702E+00  0.17181906274E+03  0.77344843780E+02 0.  0.
        -11    1    5    5    0    0  0.13765247930E+03  0.34361111854E+02  0.15558742335E+02  0.14272689140E+03  0.00000000000E+00 0.  1.
         12    1    5    5    0    0  0.14986405658E+02 -0.18857396441E+02 -0.16314431582E+02  0.29092171334E+02  0.00000000000E+00 0. -1.
         11    1    3    3    0    0  0.30064748340E+00  0.10023958813E+02  0.34421956290E+01  0.10602775578E+02  0.00000000000E+00 0. -1.
        -12    1    3    3    0    0 -0.10914799739E+03 -0.40762022084E+02 -0.18750877175E+03  0.22075861764E+03  0.00000000000E+00 0.  1.
          5    1    4    4  501    0 -0.20727118462E+02  0.54683841723E+02 -0.44376935794E+02  0.73530407423E+02  0.41800000000E+01 0.  1.
         -5    1    4    4    0  501 -0.23064416595E+02 -0.39449493866E+02 -0.19664113886E+03  0.20192434170E+03  0.41800000000E+01 0.  1.
</event>
<event>
11    1  0.9238666E-009  0.1387963E+03  0.7561462E-02  0.1108910E+00
         22   -1    0    0    0    0  0.00000000000E+00  0.00000000000E+00  0.55876283594E+03  0.55876283594E+03  0.00000000000E+00 0.  1.
         22   -1    0    0    0    0 -0.00000000000E+00 -0.00000000000E+00 -0.26363631237E+03  0.26363631237E+03  0.00000000000E+00 0.  1.
        -24    2    1    2    0    0 -0.40224359381E+02  0.36457135191E+01 -0.21177284404E+03  0.22977741036E+03  0.79489813952E+02 0.  0.
         25    2    1    2    0    0  0.42957880239E+02  0.56409477490E+02  0.10403442702E+03  0.17747854177E+03  0.12509221462E+03 0.  0.
         24    2    1    2    0    0 -0.27335208582E+01 -0.60055191009E+02  0.40286494059E+03  0.41514319618E+03  0.80184879322E+02 0.  0.
        -11    1    5    5    0    0  0.23299822714E+02  0.10053199038E+02  0.10823302129E+03  0.11116805048E+03  0.00000000000E+00 0.  1.
         12    1    5    5    0    0 -0.26033343573E+02 -0.70108390046E+02  0.29463191930E+03  0.30397514570E+03  0.00000000000E+00 0. -1.
         11    1    3    3    0    0 -0.38837601430E+02  0.28116835126E+02 -0.63906501037E+02  0.79893407595E+02  0.00000000000E+00 0. -1.
        -12    1    3    3    0    0 -0.13867579511E+01 -0.24471121607E+02 -0.14786634300E+03  0.14988400276E+03  0.00000000000E+00 0.  1.
          5    1    4    4  501    0  0.21255394350E+02  0.82257614386E+02  0.11381665653E+03  0.14209085339E+03  0.41800000000E+01 0. -1.
         -5    1    4    4    0  501  0.21702485889E+02 -0.25848136896E+02 -0.97822295104E+01  0.35387688381E+02  0.41800000000E+01 0. -1.
</event>
<event>
11    1  0.9238666E-009  0.1370958E+03  0.7561462E-02  0.1110845E+00
         22   -1    0    0    0    0  0.00000000000E+00  0.00000000000E+00  0.11248650116E+04  0.11248650116E+04  0.00000000000E+00 0.  1.
         22   -1    0    0    0    0 -0.00000000000E+00 -0.00000000000E+00 -0.51173985441E+03  0.51173985441E+03  0.00000000000E+00 0.  1.
         24    2    1    2    0    0  0.50664088355E+02 -0.13823328875E+02 -0.44556351190E+03  0.45583916733E+03  0.80650908673E+02 0.  0.
         25    2    1    2    0    0  0.81702910951E+00 -0.13220255678E+02  0.89083017339E+01  0.12610481002E+03  0.12509045757E+03 0.  0.
        -24    2    1    2    0    0 -0.51481117465E+02  0.27043584553E+02  0.10497803673E+04  0.10546608886E+04  0.83000659209E+02 0.  0.
        -13    1    3    3    0    0  0.70335817959E+02 -0.22099252921E+02 -0.37233908653E+03  0.37956804348E+03  0.00000000000E+00 0.  1.
         14    1    3    3    0    0 -0.19671729604E+02  0.82759240458E+01 -0.73224425367E+02  0.76271123859E+02  0.00000000000E+00 0. -1.
         11    1    5    5    0    0  0.79783005376E+01  0.14437558690E+02  0.43122746783E+02  0.46169986685E+02  0.00000000000E+00 0. -1.
        -12    1    5    5    0    0 -0.59459418002E+02  0.12606025863E+02  0.10066576205E+04  0.10084909019E+04  0.00000000000E+00 0.  1.
          5    1    4    4  501    0 -0.36516401933E+02  0.38779247120E+02 -0.18225028856E+02  0.56452650018E+02  0.41800000000E+01 0.  1.
         -5    1    4    4    0  501  0.37333431042E+02 -0.51999502798E+02  0.27133330590E+02  0.69652160006E+02  0.41800000000E+01 0.  1.
</event>
<event>
11    1  0.9238666E-009  0.1524983E+03  0.7561462E-02  0.1094353E+00
         22   -1    0    0    0    0  0.00000000000E+00  0.00000000000E+00  0.30438777206E+03  0.30438777206E+03  0.00000000000E+00 0. -1.
         22   -1    0    0    0    0 -0.00000000000E+00 -0.00000000000E+00 -0.18512692173E+04  0.18512692173E+04  0.00000000000E+00 0.  1.
         24    2    1    2    0    0  0.27240382803E+01  0.24380434066E+02 -0.13650527049E+04  0.13676159435E+04  0.80016596720E+02 0.  0.
         25    2    1    2    0    0 -0.71269093406E+02 -0.77631614582E+02 -0.45864836990E+03  0.48694062343E+03  0.12508753847E+03 0.  0.
        -24    2    1    2    0    0  0.68545055126E+02  0.53251180516E+02  0.27681962961E+03  0.30110042240E+03  0.80611687890E+02 0.  0.
        -13    1    3    3    0    0 -0.34325079837E+02  0.23811213806E+02 -0.48944522035E+03  0.49122480468E+03  0.00000000000E+00 0.  1.
         14    1    3    3    0    0  0.37049118117E+02  0.56922025996E+00 -0.87560748457E+03  0.87639113882E+03  0.00000000000E+00 0. -1.
         11    1    5    5    0    0  0.75086791558E+02  0.47029120842E+02  0.27819985251E+03  0.29196733107E+03  0.00000000000E+00 0. -1.
        -12    1    5    5    0    0 -0.65417364325E+01  0.62220596739E+01 -0.13802228968E+01  0.91330913377E+01  0.00000000000E+00 0.  1.
          5    1    4    4  501    0 -0.67436736971E+02  0.17469756094E+00 -0.10552538403E+03  0.12530292529E+03  0.41800000000E+01 0. -1.
         -5    1    4    4    0  501 -0.38323564350E+01 -0.77806312142E+02 -0.35312298587E+03  0.36163769814E+03  0.41800000000E+01 0. -1.
</event>
<event>
11    1  0.9238666E-009  0.2387145E+03  0.7561462E-02  0.1030089E+00
         22   -1    0    0    0    0  0.00000000000E+00  0.00000000000E+00  0.45213076150E+03  0.45213076150E+03  0.00000000000E+00 0. -1.
         22   -1    0    0    0    0 -0.00000000000E+00 -0.00000000000E+00 -0.36986020496E+04  0.36986020496E+04  0.00000000000E+00 0. -1.
        -24    2    1    2    0    0  0.22182165699E+02  0.38549429975E+02 -0.27537714758E+04  0.27552943474E+04  0.80071797705E+02 0.  0.
         25    2    1    2    0    0 -0.70520453704E+02 -0.23475549837E+03 -0.89601854857E+03  0.93732642833E+03  0.12509322708E+03 0.  0.
         24    2    1    2    0    0  0.48338288005E+02  0.19620606839E+03  0.40331873629E+03  0.45811203537E+03  0.79794877980E+02 0.  0.
        -11    1    5    5    0    0  0.37975366015E+02  0.73983659175E+02  0.94813421681E+02  0.12611619714E+03  0.00000000000E+00 0.  1.
         12    1    5    5    0    0  0.10362921990E+02  0.12222240922E+03  0.30850531461E+03  0.33199583824E+03  0.00000000000E+00 0. -1.
         11    1    3    3    0    0  0.22493065151E+02 -0.16296428832E+02 -0.15778891063E+04  0.15781335632E+04  0.00000000000E+00 0. -1.
        -12    1    3    3    0    0 -0.31089945235E+00  0.54845858807E+02 -0.11758823696E+04  0.11771607842E+04  0.00000000000E+00 0.  1.
          5    1    4    4  501    0 -0.80900878012E+02 -0.24318935833E+03 -0.79399272726E+03  0.83434281887E+03  0.41800000000E+01 0.  1.
         -5    1    4    4    0  501  0.10380424308E+02  0.84338599572E+01 -0.10202582131E+03  0.10298360946E+03  0.41800000000E+01 0.  1.
</event>
<event>
11    1  0.9238666E-009  0.1835170E+03  0.7561462E-02  0.1066833E+00
         22   -1    0    0    0    0  0.00000000000E+00  0.00000000000E+00  0.78737684448E+03  0.78737684448E+03  0.00000000000E+00 0.  1.
         22   -1    0    0    0    0 -0.00000000000E+00 -0.00000000000E+00 -0.60530379598E+03  0.60530379598E+03  0.00000000000E+00 0.  1.
         24    2    1    2    0    0  0.10707904416E+03  0.77400999773E+02 -0.54560416610E+03  0.56697844207E+03  0.79522394602E+02 0.  0.
         25    2    1    2    0    0 -0.16073726105E+03 -0.11723427960E+03  0.27751696188E+03  0.36365280083E+03  0.12508937612E+03 0.  0.
        -24    2    1    2    0    0  0.53658216893E+02  0.39833279829E+02  0.45016025272E+03  0.46204939754E+03  0.79871761078E+02 0.  0.
        -11    1    3    3    0    0  0.88202780090E+02  0.93132253694E+02 -0.42674492960E+03  0.44560585952E+03  0.00000000000E+00 0.  1.
         12    1    3    3    0    0  0.18876264072E+02 -0.15731253921E+02 -0.11885923650E+03  0.12137258256E+03  0.00000000000E+00 0. -1.
         13    1    5    5    0    0  0.54460980858E+02 -0.71191780386E+01  0.19421902893E+03  0.20183585492E+03  0.00000000000E+00 0. -1.
        -14    1    5    5    0    0 -0.80276396503E+00  0.46952457867E+02  0.25594122379E+03  0.26021354262E+03  0.00000000000E+00 0.  1.
          5    1    4    4  501    0  0.18028149653E+02 -0.63730560009E+00  0.41348892189E+02  0.45305889503E+02  0.41800000000E+01 0.  1.
         -5    1    4    4    0  501 -0.17876541071E+03 -0.11659697400E+03  0.23616806969E+03  0.31834691133E+03  0.41800000000E+01 0.  1.
</event>
<event>
11    1  0.9238666E-009  0.1753396E+03  0.7561462E-02  0.1073476E+00
         22   -1    0    0    0    0  0.00000000000E+00  0.00000000000E+00  0.20848268476E+04  0.20848268476E+04  0.00000000000E+00 0. -1.
         22   -1    0    0    0    0 -0.00000000000E+00 -0.00000000000E+00 -0.75535360737E+03  0.75535360737E+03  0.00000000000E+00 0. -1.
        -24    2    1    2    0    0 -0.49801313986E+02 -0.11600029610E+03 -0.48266365815E+03  0.50376912350E+03  0.69877631035E+02 0.  0.
         25    2    1    2    0    0  0.12462495576E+03  0.59764938586E+02 -0.22705642508E+03  0.29377535454E+03  0.12508441663E+03 0.  0.
         24    2    1    2    0    0 -0.74823641775E+02  0.56235357510E+02  0.20391933235E+04  0.20426359769E+04  0.72741535662E+02 0.  0.
        -11    1    5    5    0    0 -0.80543173939E+01  0.26235301116E+02  0.18764319120E+03  0.18963947442E+03  0.00000000000E+00 0.  1.
         12    1    5    5    0    0 -0.66769324381E+02  0.30000056394E+02  0.18515501323E+04  0.18529965025E+04  0.00000000000E+00 0. -1.
         11    1    3    3    0    0 -0.37994467351E+02 -0.94245025419E+02 -0.45681426511E+03  0.46797967602E+03  0.00000000000E+00 0. -1.
        -12    1    3    3    0    0 -0.11806846635E+02 -0.21755270677E+02 -0.25849393046E+02  0.35789447475E+02  0.00000000000E+00 0.  1.
          5    1    4    4  501    0  0.38966817470E+02  0.86080185448E+02 -0.94363003403E+02  0.13360411671E+03  0.41800000000E+01 0.  1.
         -5    1    4    4    0  501  0.85658138290E+02 -0.26315246861E+02 -0.13269342168E+03  0.16017123783E+03  0.41800000000E+01 0.  1.
</event>
<event>
11    1  0.9238666E-009  0.1612584E+03  0.7561462E-02  0.1085900E+00
         22   -1    0    0    0    0  0.00000000000E+00  0.00000000000E+00  0.53216576202E+03  0.53216576202E+03  0.00000000000E+00 0. -1.
         22   -1    0    0    0    0 -0.00000000000E+00 -0.00000000000E+00 -0.51512320082E+03  0.51512320082E+03  0.00000000000E+00 0.  1.
         24    2    1    2    0    0 -0.14809334638E+00 -0.85726011663E+02 -0.42572788761E+03  0.44167397934E+03  0.80515208096E+02 0.  0.
         25    2    1    2    0    0 -0.74186216051E+02  0.14442041455E+03  0.76507663616E+02  0.21877293854E+03  0.12508926914E+03 0.  0.
        -24    2    1    2    0    0  0.74334309397E+02 -0.58694402886E+02  0.36626278520E+03  0.38684204496E+03  0.80794290910E+02 0.  0.
        -11    1    3    3    0    0  0.89274785168E+01 -0.95112652778E+02 -0.29021914907E+03  0.30553767538E+03  0.00000000000E+00 0.  1.
         12    1    3    3    0    0 -0.90755718632E+01  0.93866411146E+01 -0.13550873854E+03  0.13613630396E+03  0.00000000000E+00 0. -1.
         11    1    5    5    0    0  0.73062265671E+02 -0.57853308172E+02  0.20080181371E+03  0.22137404618E+03  0.00000000000E+00 0. -1.
        -12    1    5    5    0    0  0.12720437261E+01 -0.84109471419E+00  0.16546097148E+03  0.16546799878E+03  0.00000000000E+00 0.  1.
          5    1    4    4  501    0  0.22977611308E+02  0.91103008701E+02  0.35170201320E+02  0.10040988137E+03  0.41800000000E+01 0.  1.
         -5    1    4    4    0  501 -0.97163827359E+02  0.53317405849E+02  0.41337462296E+02  0.11836305717E+03  0.41800000000E+01 0.  1.
</event>
<event>
11    1  0.9238666E-009  0.1481670E+03  0.7561462E-02  0.1098767E+00
         22   -1    0    0    0    0  0.00000000000E+00  0.00000000000E+00  0.35982624471E+03  0.35982624471E+03  0.00000000000E+00 0.  1.
         22   -1    0    0    0    0 -0.00000000000E+00 -0.00000000000E+00 -0.11876671236E+04  0.11876671236E+04  0.00000000000E+00 0. -1.
         24    2    1    2    0    0 -0.54839420998E+02  0.59074904431E+02 -0.11295549376E+04  0.11353580145E+04  0.81524582740E+02 0.  0.
         25    2    1    2    0    0  0.43337340018E+02 -0.15345055261E+02  0.45918401218E+02  0.14096132400E+03  0.12509196430E+03 0.  0.
        -24    2    1    2    0    0  0.11502080980E+02 -0.43729849170E+02  0.25579565749E+03  0.27117402982E+03  0.77841752833E+02 0.  0.
        -11    1    3    3    0    0  0.15752886775E+02  0.20205819011E+02 -0.12634265188E+03  0.12891429032E+03  0.00000000000E+00 0.  1.
         12    1    3    3    0    0 -0.70592307773E+02  0.38869085420E+02 -0.10032122857E+04  0.10064437241E+04  0.00000000000E+00 0. -1.
         13    1    5    5    0    0 -0.23806235486E+02 -0.29730771019E+02  0.55519806929E+02  0.67328333968E+02  0.00000000000E+00 0. -1.
        -14    1    5    5    0    0  0.35308316466E+02 -0.13999078151E+02  0.20027585056E+03  0.20384569586E+03  0.00000000000E+00 0.  1.
          5    1    4    4  501    0  0.39464674680E+02  0.26104803720E+01 -0.37968633107E+02  0.54985131221E+02  0.41800000000E+01 0.  1.
         -5    1    4    4    0  501  0.38726653385E+01 -0.17955535633E+02  0.83887034325E+02  0.85976192778E+02  0.41800000000E+01 0.  1.
</event>
<event>
11    1  0.9238666E-009  0.2849304E+03  0.7561462E-02  0.1006779E+00
         22   -1    0    0    0    0  0.00000000000E+00  0.00000000000E+00  0.23319518336E+04  0.23319518336E+04  0.00000000000E+00 0. -1.
         22   -1    0    0    0    0 -0.00000000000E+00 -0.00000000000E+00 -0.95102194565E+02  0.95102194565E+02  0.00000000000E+00 0.  1.
        -24    2    1    2    0    0  0.31478301152E+02 -0.24752642808E+03  0.17213805756E+03  0.31369942811E+03  0.80719293217E+02 0.  0.
         25    2    1    2    0    0 -0.39770820468E+02  0.28237609249E+03  0.10677417375E+04  0.11122200962E+04  0.12507257398E+03 0.  0.
         24    2    1    2    0    0  0.82925193153E+01 -0.34849664409E+02  0.99696984402E+03  0.10011345038E+04  0.83893741657E+02 0.  0.
        -11    1    5    5    0    0 -0.31282131657E+02 -0.43537485872E+01  0.18894590110E+03  0.19156743050E+03  0.00000000000E+00 0.  1.
         12    1    5    5    0    0  0.39574650972E+02 -0.30495915822E+02  0.80802394292E+03  0.80956707333E+03  0.00000000000E+00 0. -1.
         11    1    3    3    0    0 -0.77529064242E+01 -0.84743313684E+02  0.10019185890E+03  0.13145320598E+03  0.00000000000E+00 0. -1.
        -12    1    3    3    0    0  0.39231207576E+02 -0.16278311440E+03  0.71946198651E+02  0.18224622213E+03  0.00000000000E+00 0.  1.
          5    1    4    4  501    0 -0.73693936968E+02  0.18034004377E+03  0.80601400240E+03  0.82923420829E+03  0.41800000000E+01 0.  1.
         -5    1    4    4    0  501  0.33923116501E+02  0.10203604872E+03  0.26172773509E+03  0.28298588796E+03  0.41800000000E+01 0.  1.
</event>
<event>
11    1  0.9238666E-009  0.1387566E+03  0.7561462E-02  0.1108955E+00
         22   -1    0    0    0    0  0.00000000000E+00  0.00000000000E+00  0.14306186800E+04  0.14306186800E+04  0.00000000000E+00 0.  1.
         22   -1    0    0    0    0 -0.00000000000E+00 -0.00000000000E+00 -0.31054911920E+03  0.31054911920E+03  0.00000000000E+00 0.  1.
        -24    2    1    2    0    0  0.48590308564E+02 -0.35670769726E+02 -0.28410339720E+03  0.30159343812E+03  0.81304610655E+02 0.  0.
         25    2    1    2    0    0 -0.49216070661E+02  0.21557898747E+02  0.26872681428E+03  0.30124577190E+03  0.12509176538E+03 0.  0.
         24    2    1    2    0    0  0.62576209722E+00  0.14112870978E+02  0.11354461437E+04  0.11383285892E+04  0.79714910586E+02 0.  0.
        -11    1    5    5    0    0 -0.37533004874E+02  0.76186602320E+01  0.74063095364E+03  0.74162050937E+03  0.00000000000E+00 0.  1.
         12    1    5    5    0    0  0.38158766971E+02  0.64942107463E+01  0.39481519008E+03  0.39670807981E+03  0.00000000000E+00 0. -1.
         11    1    3    3    0    0 -0.28568668312E+01  0.13495086929E+02 -0.69425619909E+01  0.15442740246E+02  0.00000000000E+00 0. -1.
        -12    1    3    3    0    0  0.51447175395E+02 -0.49165856654E+02 -0.27716083521E+03  0.28615069787E+03  0.00000000000E+00 0.  1.
          5    1    4    4  501    0 -0.88875107137E+02  0.24963081413E+02  0.15241929574E+03  0.17824436657E+03  0.41800000000E+01 0. -1.
         -5    1    4    4    0  501  0.39659036475E+02 -0.34051826658E+01  0.11630751855E+03  0.12300140533E+03  0.41800000000E+01 0. -1.
</event>
<event>
11    1  0.9238666E-009  0.1588692E+03  0.7561462E-02  0.1088146E+00
         22   -1    0    0    0    0  0.00000000000E+00  0.00000000000E+00  0.49246391298E+03  0.49246391298E+03  0.00000000000E+00 0. -1.
         22   -1    0    0    0    0 -0.00000000000E+00 -0.00000000000E+00 -0.40107787257E+03  0.40107787257E+03  0.00000000000E+00 0. -1.
        -24    2    1    2    0    0 -0.37055166211E+02  0.89346299755E+02 -0.33778990268E+03  0.36038385367E+03  0.80116521458E+02 0.  0.
         25    2    1    2    0    0 -0.11340414633E+02 -0.13269892588E+03  0.15634091616E+03  0.24047308184E+03  0.12508881281E+03 0.  0.
         24    2    1    2    0    0  0.48395580844E+02  0.43352626125E+02  0.27283502693E+03  0.29268485004E+03  0.83689229215E+02 0.  0.
        -13    1    5    5    0    0  0.26079938463E+02 -0.71098770008E+01  0.19298071390E+02  0.33213387369E+02  0.00000000000E+00 0.  1.
         14    1    5    5    0    0  0.22315642381E+02  0.50462503126E+02  0.25353695554E+03  0.25947146267E+03  0.00000000000E+00 0. -1.
         11    1    3    3    0    0 -0.80347128226E+01  0.31133620469E+02 -0.24479917720E+03  0.24690179443E+03  0.00000000000E+00 0. -1.
        -12    1    3    3    0    0 -0.29020453389E+02  0.58212679286E+02 -0.92990725476E+02  0.11348205924E+03  0.00000000000E+00 0.  1.
          5    1    4    4  501    0  0.52752932603E+02 -0.67696954838E+02  0.10492708237E+03  0.13562048004E+03  0.41800000000E+01 0.  1.
         -5    1    4    4    0  501 -0.64093347236E+02 -0.65001971041E+02  0.51413833795E+02  0.10485260180E+03  0.41800000000E+01 0.  1.
</event>
<event>
11    1  0.9238666E-009  0.1714605E+03  0.7561462E-02  0.1076768E+00
         22   -1    0    0    0    0  0.00000000000E+00  0.00000000000E+00  0.20317313017E+03  0.20317313017E+03  0.00000000000E+00 0. -1.
         22   -1    0    0    0    0 -0.00000000000E+00 -0.00000000000E+00 -0.78646628053E+03  0.78646628053E+03  0.00000000000E+00 0.  1.
         24    2    1    2    0    0  0.48018685793E+02 -0.31165138674E+02 -0.43778459310E+03  0.44865871880E+03  0.79763625468E+02 0.  0.
         25    2    1    2    0    0  0.60708820611E+02  0.81438394652E+02 -0.29343849661E+03  0.33476919711E+03  0.12508593452E+03 0.  0.
        -24    2    1    2    0    0 -0.10872750640E+03 -0.50273255978E+02  0.14792993935E+03  0.20621149479E+03  0.79314832865E+02 0.  0.
        -11    1    3    3    0    0  0.30613103180E+02  0.60403652264E+01 -0.35374002972E+03  0.35511358285E+03  0.00000000000E+00 0.  1.
         12    1    3    3    0    0  0.17405582612E+02 -0.37205503900E+02 -0.84044563377E+02  0.93545135949E+02  0.00000000000E+00 0. -1.
         13    1    5    5    0    0 -0.11787328435E+03 -0.34838595771E+02  0.11309455153E+03  0.16702759204E+03  0.00000000000E+00 0. -1.
        -14    1    5    5    0    0  0.91457779438E+01 -0.15434660207E+02  0.34835387822E+02  0.39183902749E+02  0.00000000000E+00 0.  1.
          5    1    4    4  501    0  0.41876954224E+02 -0.11722104691E+01 -0.21548408999E+03  0.21955846331E+03  0.41800000000E+01 0.  1.
         -5    1    4    4    0  501  0.18831866386E+02  0.82610605121E+02 -0.77954406618E+02  0.11521073379E+03  0.41800000000E+01 0.  1.
</event>
<event>
11    1  0.9238666E-009  0.1377694E+03  0.7561462E-02  0.1110075E+00
         22   -1    0    0    0    0  0.00000000000E+00  0.00000000000E+00  0.14978230492E+03  0.14978230492E+03  0.00000000000E+00 0. -1.
         22   -1    0    0    0    0 -0.00000000000E+00 -0.00000000000E+00 -0.16509489606E+04  0.16509489606E+04  0.00000000000E+00 0.  1.
        -24    2    1    2    0    0 -0.42010913235E+02 -0.21597509707E+01 -0.14530960302E+04  0.14557970309E+04  0.78021411756E+02 0.  0.
         25    2    1    2    0    0  0.42640494315E+02  0.59447192703E+02 -0.14611987328E+03  0.20579264839E+03  0.12508963301E+03 0.  0.
         24    2    1    2    0    0 -0.62958107994E+00 -0.57287441733E+02  0.98049247804E+02  0.13914158629E+03  0.80401981859E+02 0.  0.
        -13    1    5    5    0    0 -0.10981175130E+02  0.17843861034E+02  0.10916422260E+02  0.23625364733E+02  0.00000000000E+00 0.  1.
         14    1    5    5    0    0  0.10351594050E+02 -0.75131302766E+02  0.87132825544E+02  0.11551622155E+03  0.00000000000E+00 0. -1.
         13    1    3    3    0    0  0.15433346768E+02 -0.72756029637E+01 -0.97992796246E+02  0.99467133803E+02  0.00000000000E+00 0. -1.
        -14    1    3    3    0    0 -0.57444260003E+02  0.51158519930E+01 -0.13551032340E+04  0.13563298971E+04  0.00000000000E+00 0.  1.
          5    1    4    4  501    0  0.54546072483E+02  0.35543661551E+02 -0.87902679034E+01  0.65828315409E+02  0.41800000000E+01 0. -1.
         -5    1    4    4    0  501 -0.11905578167E+02  0.23903531152E+02 -0.13732960538E+03  0.13996433298E+03  0.41800000000E+01 0. -1.
</event>
<event>
11    1  0.9238666E-009  0.1444953E+03  0.7561462E-02  0.1102640E+00
         22   -1    0    0    0    0  0.00000000000E+00  0.00000000000E+00  0.17365913584E+03  0.17365913584E+03  0.00000000000E+00 0.  1.
         22   -1    0    0    0    0 -0.00000000000E+00 -0.00000000000E+00 -0.14419708625E+04  0.14419708625E+04  0.00000000000E+00 0. -1.
         24    2    1    2    0    0  0.45909972301E+02  0.17781923850E+02 -0.95236122717E+03  0.95700633789E+03  0.80282634278E+02 0.  0.
         25    2    1    2    0    0 -0.21827948788E+02  0.51677355099E+02 -0.45880140443E+03  0.47884653728E+03  0.12509304208E+03 0.  0.
        -24    2    1    2    0    0 -0.24082023513E+02 -0.69459278949E+02  0.14285090495E+03  0.17977712317E+03  0.80677739689E+02 0.  0.
        -11    1    3    3    0    0  0.52395142487E+02 -0.84573639860E+01 -0.34636225893E+03  0.35040489776E+03  0.00000000000E+00 0.  1.
         12    1    3    3    0    0 -0.64851701853E+01  0.26239287836E+02 -0.60599896824E+03  0.60660144013E+03  0.00000000000E+00 0. -1.
         11    1    5    5    0    0  0.28525942187E+02 -0.11185007177E+02  0.40317467384E+02  0.50639233203E+02  0.00000000000E+00 0. -1.
        -12    1    5    5    0    0 -0.52607965699E+02 -0.58274271772E+02  0.10253343757E+03  0.12913788996E+03  0.00000000000E+00 0.  1.
          5    1    4    4  501    0 -0.62692552746E+02  0.67521704721E+02 -0.28487498778E+03  0.29943407929E+03  0.41800000000E+01 0.  1.
         -5    1    4    4    0  501  0.40864603958E+02 -0.15844349621E+02 -0.17392641665E+03  0.17941245799E+03  0.41800000000E+01 0.  1.
</event>
<event>
11    1  0.9238666E-009  0.1772694E+03  0.7561462E-02  0.1071873E+00
         22   -1    0    0    0    0  0.00000000000E+00  0.00000000000E+00  0.97066011593E+03  0.97066011593E+03  0.00000000000E+00 0.  1.
         22   -1    0    0    0    0 -0.00000000000E+00 -0.00000000000E+00 -0.56274511347E+03  0.56274511347E+03  0.00000000000E+00 0. -1.
        -24    2    1    2    0    0  0.77334411637E+02  0.36063818734E+02 -0.49832344463E+03  0.51209193698E+03  0.81429025598E+02 0.  0.
         25    2    1    2    0    0  0.57818170365E+02 -0.37457020730E+02  0.50966627170E+02  0.15162855019E+03  0.12509057088E+03 0.  0.
         24    2    1    2    0    0 -0.13515258200E+03  0.13932019956E+01  0.85527181992E+03  0.86968474223E+03  0.81200390829E+02 0.  0.
        -11    1    5    5    0    0 -0.40858132506E+02  0.28020981666E+02  0.45079557111E+03  0.45350987788E+03  0.00000000000E+00 0.  1.
         12    1    5    5    0    0 -0.94294449496E+02 -0.26627779670E+02  0.40447624882E+03  0.41617486435E+03  0.00000000000E+00 0. -1.
         11    1    3    3    0    0  0.70159524612E+02  0.60390434808E+02 -0.38773885370E+03  0.39863615262E+03  0.00000000000E+00 0. -1.
        -12    1    3    3    0    0  0.71748870256E+01 -0.24326616073E+02 -0.11058459093E+03  0.11345578436E+03  0.00000000000E+00 0.  1.
          5    1    4    4  501    0 -0.13312107141E+02  0.29351658117E+02  0.42620536285E+02  0.53597710249E+02  0.41800000000E+01 0. -1.
         -5    1    4    4    0  501  0.71130277506E+02 -0.66808678847E+02  0.83460908854E+01  0.98030839946E+02  0.41800000000E+01 0. -1.
</event>
<event>
11    1  0.9238666E-009  0.2272577E+03  0.7561462E-02  0.1036764E+00
         22   -1    0    0    0    0  0.00000000000E+00  0.00000000000E+00  0.80494260534E+03  0.80494260534E+03  0.00000000000E+00 0. -1.
         22   -1    0    0    0    0 -0.00000000000E+00 -0.00000000000E+00 -0.16691454753E+04  0.16691454753E+04  0.00000000000E+00 0.  1.
        -24    2    1    2    0    0  0.45799011907E+02  0.20124075335E+02 -0.15541139145E+04  0.15569920581E+04  0.80322362304E+02 0.  0.
         25    2    1    2    0    0 -0.22544000200E+02  0.17169649710E+03  0.19245371456E+02  0.21448560533E+03  0.12508305844E+03 0.  0.
         24    2    1    2    0    0 -0.23255011707E+02 -0.19182057244E+03  0.67066567304E+03  0.70261041725E+03  0.80827135672E+02 0.  0.
        -13    1    5    5    0    0 -0.20985145896E+01  0.57366208506E+01  0.62819049158E+02  0.63115335057E+02  0.00000000000E+00 0.  1.
         14    1    5    5    0    0 -0.21156497117E+02 -0.19755719329E+03  0.60784662388E+03  0.63949508220E+03  0.00000000000E+00 0. -1.
         13    1    3    3    0    0  0.36450231557E+02  0.28385443781E+02 -0.37810626989E+03  0.38091823811E+03  0.00000000000E+00 0. -1.
        -14    1    3    3    0    0  0.93487803496E+01 -0.82613684460E+01 -0.11760076446E+04  0.11760738200E+04  0.00000000000E+00 0.  1.
          5    1    4    4  501    0 -0.63420885291E+01  0.10136622200E+03  0.72362498508E+02  0.12477634647E+03  0.41800000000E+01 0.  1.
         -5    1    4    4    0  501 -0.16201911671E+02  0.70330275102E+02 -0.53117127051E+02  0.89709258852E+02  0.41800000000E+01 0.  1.
</event>
<event>
11    1  0.9238666E-009  0.1602226E+03  0.7561462E-02  0.1086868E+00
         22   -1    0    0    0    0  0.00000000000E+00  0.00000000000E+00  0.29405952621E+04  0.29405952621E+04  0.00000000000E+00 0.  1.
         22   -1    0    0    0    0 -0.00000000000E+00 -0.00000000000E+00 -0.39005971513E+02  0.39005971513E+02  0.00000000000E+00 0.  1.
         24    2    1    2    0    0 -0.72370733106E+02 -0.58971574614E+02  0.11590164210E+03  0.16880569439E+03  0.79668075139E+02 0.  0.
         25    2    1    2    0    0  0.86053584762E+02  0.10951956099E+03  0.75702821267E+03  0.77983282369E+03  0.12509102464E+03 0.  0.
        -24    2    1    2    0    0 -0.13682851656E+02 -0.50547986372E+02  0.20286594359E+04  0.20309627156E+04  0.81290380402E+02 0.  0.
        -13    1    3    3    0    0 -0.36126644839E+02 -0.31100015929E+02  0.38966654955E+01  0.47828124154E+02  0.00000000000E+00 0.  1.
         14    1    3    3    0    0 -0.36244088267E+02 -0.27871558685E+02  0.11200497660E+03  0.12097757024E+03  0.00000000000E+00 0. -1.
         13    1    5    5    0    0 -0.35098317236E+01  0.17492064889E+02  0.91874528305E+03  0.91891848735E+03  0.00000000000E+00 0. -1.
        -14    1    5    5    0    0 -0.10173019932E+02 -0.68040051261E+02  0.11099141528E+04  0.11120442282E+04  0.00000000000E+00 0.  1.
          5    1    4    4  501    0  0.57846641977E+02 -0.13508634920E+02  0.28856145406E+03  0.29464199017E+03  0.41800000000E+01 0.  1.
         -5    1    4    4    0  501  0.28206942785E+02  0.12302819591E+03  0.46846675861E+03  0.48519083352E+03  0.41800000000E+01 0.  1.
</event>
<event>
11    1  0.9238666E-009  0.2362526E+03  0.7561462E-02  0.1031489E+00
         22   -1    0    0    0    0  0.00000000000E+00  0.00000000000E+00  0.15704096766E+04  0.15704096766E+04  0.00000000000E+00 0.  1.
         22   -1    0    0    0    0 -0.00000000000E+00 -0.00000000000E+00 -0.21304232482E+03  0.21304232482E+03  0.00000000000E+00 0.  1.
         24    2    1    2    0    0  0.14849853894E+02  0.20023533092E+03 -0.12984570322E+03  0.25295253310E+03  0.82524974691E+02 0.  0.
         25    2    1    2    0    0 -0.32214245546E+02 -0.19438247852E+03  0.67638691237E+03  0.71551971748E+03  0.12508759051E+03 0.  0.
        -24    2    1    2    0    0  0.17364391652E+02 -0.58528523947E+01  0.81082614262E+03  0.81497975084E+03  0.80107320156E+02 0.  0.
        -13    1    3    3    0    0  0.11377254926E+02  0.18869795575E+03 -0.14154407514E+03  0.23615902617E+03  0.00000000000E+00 0.  1.
         14    1    3    3    0    0  0.34725989679E+01  0.11537375166E+02  0.11698371921E+02  0.16793506928E+02  0.00000000000E+00 0. -1.
         11    1    5    5    0    0  0.27396586707E+02 -0.34918309869E+02  0.62970402766E+03  0.63126620675E+03  0.00000000000E+00 0. -1.
        -12    1    5    5    0    0 -0.10032195055E+02  0.29065457474E+02  0.18112211496E+03  0.18371354409E+03  0.00000000000E+00 0.  1.
          5    1    4    4  501    0 -0.55971921627E+02 -0.26024565514E+02  0.14718299986E+03  0.15965726376E+03  0.41800000000E+01 0. -1.
         -5    1    4    4    0  501  0.23757676081E+02 -0.16835791301E+03  0.52920391251E+03  0.55586245372E+03  0.41800000000E+01 0. -1.
</event>
<event>
11    1  0.9238666E-009  0.1546847E+03  0.7561462E-02  0.1092186E+00
         22   -1    0    0    0    0  0.00000000000E+00  0.00000000000E+00  0.63890718284E+03  0.63890718284E+03  0.00000000000E+00 0. -1.
         22   -1    0    0    0    0 -0.00000000000E+00 -0.00000000000E+00 -0.19270321938E+04  0.19270321938E+04  0.00000000000E+00 0.  1.
        -24    2    1    2    0    0  0.82688639690E+02  0.15292605614E+02 -0.15336963777E+04  0.15379120844E+04  0.76666326303E+02 0.  0.
         25    2    1    2    0    0 -0.13688309597E+03  0.57103815089E+02 -0.36086638664E+03  0.40971628171E+03  0.12508019360E+03 0.  0.
         24    2    1    2    0    0  0.54194456282E+02 -0.72396420703E+02  0.60643775336E+03  0.61831101052E+03  0.79771399669E+02 0.  0.
        -11    1    5    5    0    0  0.12235766871E+01 -0.57422906308E+02  0.19740618783E+03  0.20559204825E+03  0.00000000000E+00 0.  1.
         12    1    5    5    0    0  0.52970879595E+02 -0.14973514396E+02  0.40903156552E+03  0.41271896227E+03  0.00000000000E+00 0. -1.
         11    1    3    3    0    0  0.38956601187E+02  0.21308710829E+02 -0.28523751119E+03  0.28867302563E+03  0.00000000000E+00 0. -1.
        -12    1    3    3    0    0  0.43732038503E+02 -0.60161052148E+01 -0.12484588665E+04  0.12492390588E+04  0.00000000000E+00 0.  1.
          5    1    4    4  501    0 -0.46253690814E+02  0.29649083155E+02 -0.24593071491E+02  0.60338740551E+02  0.41800000000E+01 0.  1.
         -5    1    4    4    0  501 -0.90629405158E+02  0.27454731934E+02 -0.33627331515E+03  0.34937754116E+03  0.41800000000E+01 0.  1.
</event>
<event>
11    1  0.9238666E-009  0.1638814E+03  0.7561462E-02  0.1083482E+00
         22   -1    0    0    0    0  0.00000000000E+00  0.00000000000E+00  0.36821699890E+02  0.36821699890E+02  0.00000000000E+00 0.  1.
         22   -1    0    0    0    0 -0.00000000000E+00 -0.00000000000E+00 -0.26017625724E+04  0.26017625724E+04  0.00000000000E+00 0.  1.
         24    2    1    2    0    0  0.65116720021E+02 -0.82118524477E+02 -0.20354434741E+04  0.20397210341E+04  0.80300196675E+02 0.  0.
         25    2    1    2    0    0 -0.52447954903E+02  0.10290645660E+03 -0.45936308788E+03  0.48990074392E+03  0.12509102927E+03 0.  0.
        -24    2    1    2    0    0 -0.12668765118E+02 -0.20787932124E+02 -0.70134310492E+02  0.10896249419E+03  0.79758183902E+02 0.  0.
        -13    1    3    3    0    0  0.69029278263E+02 -0.39803269507E+02 -0.91208524733E+03  0.91555930443E+03  0.00000000000E+00 0.  1.
         14    1    3    3    0    0 -0.39125582427E+01 -0.42315254970E+02 -0.11233582268E+04  0.11241617297E+04  0.00000000000E+00 0. -1.
         13    1    5    5    0    0 -0.85767507982E+01 -0.37170965440E+02 -0.80546988738E+02  0.89123839239E+02  0.00000000000E+00 0. -1.
        -14    1    5    5    0    0 -0.40920143196E+01  0.16383033316E+02  0.10412678246E+02  0.19838654946E+02  0.00000000000E+00 0.  1.
          5    1    4    4  501    0 -0.76684661110E+02  0.95548003068E+02 -0.24450462928E+03  0.27351406597E+03  0.41800000000E+01 0.  1.
         -5    1    4    4    0  501  0.24236706207E+02  0.73584535329E+01 -0.21485845859E+03  0.21638667795E+03  0.41800000000E+01 0.  1.
</event>
<event>
11    1  0.9238666E-009  0.1595714E+03  0.7561462E-02  0.1087481E+00
         22   -1    0    0    0    0  0.00000000000E+00  0.00000000000E+00  0.89594522883E+03  0.89594522883E+03  0.00000000000E+00 0. -1.
         22   -1    0    0    0    0 -0.00000000000E+00 -0.00000000000E+00 -0.10680635045E+04  0.10680635045E+04  0.00000000000E+00 0.  1.
        -24    2    1    2    0    0 -0.86033086695E+02  0.46454815781E+02 -0.96719373161E+03  0.97546889139E+03  0.80722374147E+02 0.  0.
         25    2    1    2    0    0  0.13028156559E+03 -0.24999665962E+02 -0.55720915264E+01  0.18241857620E+03  0.12508884486E+03 0.  0.
         24    2    1    2    0    0 -0.44248478892E+02 -0.21455149819E+02  0.80064754742E+03  0.80612126578E+03  0.79854546594E+02 0.  0.
        -13    1    5    5    0    0  0.16413941139E+02 -0.23947246634E+01  0.47861281838E+02  0.50654264077E+02  0.00000000000E+00 0.  1.
         14    1    5    5    0    0 -0.60662420032E+02 -0.19060425156E+02  0.75278626559E+03  0.75546700171E+03  0.00000000000E+00 0. -1.
         13    1    3    3    0    0  0.59111478026E+01 -0.69702075117E+01 -0.27524940113E+03  0.27540108621E+03  0.00000000000E+00 0. -1.
        -14    1    3    3    0    0 -0.91944234497E+02  0.53425023292E+02 -0.69194433047E+03  0.70006780518E+03  0.00000000000E+00 0.  1.
          5    1    4    4  501    0  0.17700846889E+00 -0.45907950056E+02 -0.19074768330E+02  0.49888780273E+02  0.41800000000E+01 0.  1.
         -5    1    4    4    0  501  0.13010455712E+03  0.20908284094E+02  0.13502676803E+02  0.13252979592E+03  0.41800000000E+01 0.  1.
</event>
<event>
11    1  0.9238666E-009  0.1297957E+03  0.7561462E-02  0.1119520E+00
         22   -1    0    0    0    0  0.00000000000E+00  0.00000000000E+00  0.76380027830E+02  0.76380027830E+02  0.00000000000E+00 0. -1.
         22   -1    0    0    0    0 -0.00000000000E+00 -0.00000000000E+00 -0.14921094336E+04  0.14921094336E+04  0.00000000000E+00 0.  1.
        -24    2    1    2    0    0  0.62197697269E+01  0.35431669659E+02 -0.12419255911E+04  0.12450334439E+04  0.80218538491E+02 0.  0.
         25    2    1    2    0    0 -0.54091714256E+01 -0.18414867313E+02 -0.20078704744E+03  0.23733969313E+03  0.12508527108E+03 0.  0.
         24    2    1    2    0    0 -0.81059830135E+00 -0.17016802346E+02  0.26983232766E+02  0.86116324381E+02  0.79985610223E+02 0.  0.
        -11    1    5    5    0    0 -0.18556880942E+02  0.25744946577E+02 -0.14774109160E+01  0.31770156555E+02  0.00000000000E+00 0.  1.
         12    1    5    5    0    0  0.17746282641E+02 -0.42761748923E+02  0.28460643682E+02  0.54346167826E+02  0.00000000000E+00 0. -1.
         11    1    3    3    0    0  0.28670419353E+02 -0.10926857515E+02 -0.69811129152E+03  0.69878520628E+03  0.00000000000E+00 0. -1.
        -12    1    3    3    0    0 -0.22450649627E+02  0.46358527174E+02 -0.54381429959E+03  0.54624823766E+03  0.00000000000E+00 0.  1.
          5    1    4    4  501    0 -0.19694590895E+02 -0.58180705002E+02 -0.46049724939E+02  0.76882513694E+02  0.41800000000E+01 0.  1.
         -5    1    4    4    0  501  0.14285419469E+02  0.39765837689E+02 -0.15473732251E+03  0.16045717944E+03  0.41800000000E+01 0.  1.
</event>
<event>
11    1  0.9238666E-009  0.1346527E+03  0.7561462E-02  0.1113681E+00
         22   -1    0    0    0    0  0.00000000000E+00  0.00000000000E+00  0.49188202770E+03  0.49188202770E+03  0.00000000000E+00 0. -1.
         22   -1    0    0    0    0 -0.00000000000E+00 -0.00000000000E+00 -0.96413844750E+03  0.96413844750E+03  0.00000000000E+00 0.  1.
        -24    2    1    2    0    0  0.50654604270E+02 -0.17968710088E+02 -0.58702157031E+03  0.59501012024E+03  0.80956505031E+02 0.  0.
         25    2    1    2    0    0 -0.89052824940E+02 -0.13211999669E+02 -0.35190453348E+03  0.38417207181E+03  0.12508564072E+03 0.  0.
         24    2    1    2    0    0  0.38398220670E+02  0.31180709758E+02  0.46666968399E+03  0.47683828314E+03  0.84542854803E+02 0.  0.
        -13    1    5    5    0    0  0.61979683687E+02  0.34513838803E+02  0.28901078421E+03  0.29759018742E+03  0.00000000000E+00 0.  1.
         14    1    5    5    0    0 -0.23581463017E+02 -0.33331290452E+01  0.17765889978E+03  0.17924809572E+03  0.00000000000E+00 0. -1.
         11    1    3    3    0    0  0.19487553347E+02 -0.17555271601E+02 -0.44947612364E+02  0.52040754738E+02  0.00000000000E+00 0. -1.
        -12    1    3    3    0    0  0.31167050923E+02 -0.41343848714E+00 -0.54207395794E+03  0.54296936550E+03  0.00000000000E+00 0.  1.
          5    1    4    4  501    0 -0.12051571525E+03 -0.17991385734E+02 -0.28391474556E+03  0.30898670316E+03  0.41800000000E+01 0. -1.
         -5    1    4    4    0  501  0.31462890315E+02  0.47793860647E+01 -0.67989787923E+02  0.75185368656E+02  0.41800000000E+01 0. -1.
</event>
<event>
11    1  0.9238666E-009  0.1557941E+03  0.7561462E-02  0.1091101E+00
         22   -1    0    0    0    0  0.00000000000E+00  0.00000000000E+00  0.25926040578E+03  0.25926040578E+03  0.00000000000E+00 0. -1.
         22   -1    0    0    0    0 -0.00000000000E+00 -0.00000000000E+00 -0.13416903108E+04  0.13416903108E+04  0.00000000000E+00 0.  1.
         24    2    1    2    0    0  0.91326913193E+02 -0.27789228945E+02 -0.91582759913E+03  0.92476537075E+03  0.85661854322E+02 0.  0.
         25    2    1    2    0    0 -0.61693875436E+02  0.74052792770E+02 -0.39630419326E+03  0.42661045127E+03  0.12509801416E+03 0.  0.
        -24    2    1    2    0    0 -0.29633037757E+02 -0.46263563826E+02  0.22970188733E+03  0.24957489460E+03  0.80661246628E+02 0.  0.
        -11    1    3    3    0    0  0.43777169047E+02 -0.62933141944E+00 -0.72268683498E+03  0.72401180794E+03  0.00000000000E+00 0.  1.
         12    1    3    3    0    0  0.47549744146E+02 -0.27159897525E+02 -0.19314076415E+03  0.20075356280E+03  0.00000000000E+00 0. -1.
         11    1    5    5    0    0 -0.54346462640E+01 -0.39558211932E+02  0.21843186934E+03  0.22205150091E+03  0.00000000000E+00 0. -1.
        -12    1    5    5    0    0 -0.24198391493E+02 -0.67053518933E+01  0.11270017986E+02  0.27523393691E+02  0.00000000000E+00 0.  1.
          5    1    4    4  501    0 -0.71378247851E+01 -0.57816810036E+01 -0.25579099563E+03  0.25599000415E+03  0.41800000000E+01 0. -1.
         -5    1    4    4    0  501 -0.54556050651E+02  0.79834473774E+02 -0.14051319763E+03  0.17062044711E+03  0.41800000000E+01 0. -1.
</event>
<event>
11    1  0.9238666E-009  0.1449050E+03  0.7561462E-02  0.1102202E+00
         22   -1    0    0    0    0  0.00000000000E+00  0.00000000000E+00  0.18724374813E+03  0.18724374813E+03  0.00000000000E+00 0. -1.
         22   -1    0    0    0    0 -0.00000000000E+00 -0.00000000000E+00 -0.37155203354E+03  0.37155203354E+03  0.00000000000E+00 0. -1.
        -24    2    1    2    0    0 -0.77880080752E+01  0.71549958682E+02 -0.18990364760E+03  0.21825241776E+03  0.79941683926E+02 0.  0.
         25    2    1    2    0    0  0.46975969553E+02 -0.68571300320E+02 -0.11576315551E+03  0.18962435778E+03  0.12509006335E+03 0.  0.
         24    2    1    2    0    0 -0.39187961477E+02 -0.29786583616E+01  0.12135851770E+03  0.15091900613E+03  0.80647925342E+02 0.  0.
        -13    1    5    5    0    0 -0.59963402438E+02 -0.93145513133E+01  0.58006838409E+02  0.83947387097E+02  0.00000000000E+00 0.  1.
         14    1    5    5    0    0  0.20775440961E+02  0.63358929517E+01  0.63351679294E+02  0.66971619033E+02  0.00000000000E+00 0. -1.
         13    1    3    3    0    0 -0.29763337465E+02  0.23770193154E+02 -0.14232224135E+03  0.14733125507E+03  0.00000000000E+00 0. -1.
        -14    1    3    3    0    0  0.21975329390E+02  0.47779765528E+02 -0.47581406255E+02  0.70921162687E+02  0.00000000000E+00 0.  1.
          5    1    4    4  501    0  0.41108316599E+02 -0.22911516399E+02 -0.13233698053E+03  0.14051825537E+03  0.41800000000E+01 0.  1.
         -5    1    4    4    0  501  0.58676529538E+01 -0.45659783921E+02  0.16573825015E+02  0.49106102416E+02  0.41800000000E+01 0.  1.
</event>
<event>
11    1  0.9816471E-009  0.1885992E+03  0.7561462E-02  0.1062892E+00
         22   -1    0    0    0    0  0.00000000000E+00  0.00000000000E+00  0.40243885138E+03  0.40243885138E+03  0.00000000000E+00 0.  1.
         22   -1    0    0    0    0 -0.00000000000E+00 -0.00000000000E+00 -0.25768601631E+04  0.25768601631E+04  0.00000000000E+00 0.  1.
         24    2    1    2    0    0 -0.12204812731E+02 -0.53385882699E+02 -0.18399273457E+04  0.18426084337E+04  0.82910750669E+02 0.  0.
         25    2    1    2    0    0 -0.82837652756E+02  0.15677770563E+03 -0.70245833037E+03  0.73521124500E+03  0.12508614299E+03 0.  0.
        -24    2    1    2    0    0  0.95042465488E+02 -0.10339182293E+03  0.36796436433E+03  0.40147933579E+03  0.77877752639E+02 0.  0.
        -13    1    3    3    0    0 -0.25662932778E+02 -0.40735902033E+02 -0.17565550946E+04  0.17572147849E+04  0.00000000000E+00 0.  1.
         14    1    3    3    0    0  0.13458120047E+02 -0.12649980666E+02 -0.83372251086E+02  0.85393648811E+02  0.00000000000E+00 0. -1.
         11    1    5    5    0    0  0.11051699398E+01  0.97717031754E+01  0.52540347334E+02  0.53452742507E+02  0.00000000000E+00 0. -1.
        -12    1    5    5    0    0  0.93937295548E+02 -0.11316352610E+03  0.31542401700E+03  0.34802659329E+03  0.00000000000E+00 0.  1.
          5    1    4    4  501    0 -0.11556481763E+03  0.11301153239E+03 -0.54546139163E+03  0.56892217014E+03  0.41800000000E+01 0. -1.
         -5    1    4    4    0  501  0.32727164872E+02  0.43766173236E+02 -0.15699693874E+03  0.16628907485E+03  0.41800000000E+01 0. -1.
</event>
<event>
11    1  0.9238666E-009  0.1507704E+03  0.7561462E-02  0.1096094E+00
         22   -1    0    0    0    0  0.00000000000E+00  0.00000000000E+00  0.30585730806E+03  0.30585730806E+03  0.00000000000E+00 0. -1.
         22   -1    0    0    0    0 -0.00000000000E+00 -0.00000000000E+00 -0.13766739801E+04  0.13766739801E+04  0.00000000000E+00 0. -1.
        -24    2    1    2    0    0 -0.10712170493E+02  0.29469071608E+02 -0.12615883402E+04  0.12646694989E+04  0.82465899648E+02 0.  0.
         25    2    1    2    0    0  0.45821790481E+02 -0.10165498128E+03 -0.28744956131E+02  0.17002404326E+03  0.12509408891E+03 0.  0.
         24    2    1    2    0    0 -0.35109619988E+02  0.72185909676E+02  0.21951662425E+03  0.24783774601E+03  0.82416679483E+02 0.  0.
        -11    1    5    5    0    0 -0.32339190083E+02  0.72035058852E+02  0.96050919573E+02  0.12434087047E+03  0.00000000000E+00 0.  1.
         12    1    5    5    0    0 -0.27704299055E+01  0.15085082396E+00  0.12346570467E+03  0.12349687554E+03  0.00000000000E+00 0. -1.
         13    1    3    3    0    0  0.19310867400E+01 -0.24031586995E+02 -0.69558304656E+03  0.69600073343E+03  0.00000000000E+00 0. -1.
        -14    1    3    3    0    0 -0.12643257233E+02  0.53500658602E+02 -0.56600529361E+03  0.56866876547E+03  0.00000000000E+00 0.  1.
          5    1    4    4  501    0 -0.16105775222E+02 -0.55482728728E+02  0.36804906058E+02  0.68628002248E+02  0.41800000000E+01 0. -1.
         -5    1    4    4    0  501  0.61927565703E+02 -0.46172252555E+02 -0.65549862189E+02  0.10139604101E+03  0.41800000000E+01 0. -1.
</event>
<event>
11    1  0.9238666E-009  0.1361107E+03  0.7561462E-02  0.1111981E+00
         22   -1    0    0    0    0  0.00000000000E+00  0.00000000000E+00  0.10727704356E+04  0.10727704356E+04  0.00000000000E+00 0. -1.
         22   -1    0    0    0    0 -0.00000000000E+00 -0.00000000000E+00 -0.12334450531E+03  0.12334450531E+03  0.00000000000E+00 0. -1.
         24    2    1    2    0    0  0.68111178935E+01 -0.75666792664E+01 -0.49061381483E+02  0.92315074627E+02  0.77533269558E+02 0.  0.
         25    2    1    2    0    0  0.31840721526E+02 -0.30290390390E+02  0.36976148572E+02  0.13764397648E+03  0.12508912583E+03 0.  0.
        -24    2    1    2    0    0 -0.38651839419E+02  0.37857069657E+02  0.96151116321E+03  0.96615588981E+03  0.77629659528E+02 0.  0.
        -11    1    3    3    0    0  0.34189537576E+02 -0.27437016167E+02 -0.22316414795E+02  0.49190819318E+02  0.00000000000E+00 0.  1.
         12    1    3    3    0    0 -0.27378419683E+02  0.19870336901E+02 -0.26744966688E+02  0.43124255309E+02  0.00000000000E+00 0. -1.
         11    1    5    5    0    0 -0.23924287059E+02  0.47216930381E+02  0.91416786901E+03  0.91569902411E+03  0.00000000000E+00 0. -1.
        -12    1    5    5    0    0 -0.14727552360E+02 -0.93598607240E+01  0.47343294195E+02  0.50456865703E+02  0.00000000000E+00 0.  1.
          5    1    4    4  501    0  0.58921686085E+02 -0.39574047740E+02 -0.19899134632E+02  0.73833043448E+02  0.41800000000E+01 0. -1.
         -5    1    4    4    0  501 -0.27080964559E+02  0.92836573499E+01  0.56875283204E+02  0.63810933035E+02  0.41800000000E+01 0. -1.
</event>
<event>
11    1  0.9238666E-009  0.1401912E+03  0.7561462E-02  0.1107345E+00
         22   -1    0    0    0    0  0.00000000000E+00  0.00000000000E+00  0.49037225791E+03  0.49037225791E+03  0.00000000000E+00 0. -1.
         22   -1    0    0    0    0 -0.00000000000E+00 -0.00000000000E+00 -0.29928027277E+03  0.29928027277E+03  0.00000000000E+00 0.  1.
         24    2    1    2    0    0  0.54009706256E+01 -0.10435519605E+01 -0.23973889779E+03  0.25252764718E+03  0.79153104751E+02 0.  0.
         25    2    1    2    0    0  0.21044125405E+02  0.58725231973E+02  0.59362044625E+02  0.15186619267E+03  0.12509188643E+03 0.  0.
        -24    2    1    2    0    0 -0.26445096030E+02 -0.57681680013E+02  0.37146883831E+03  0.38525869084E+03  0.80053992536E+02 0.  0.
        -11    1    3    3    0    0  0.18436163553E+02  0.28242383414E+02 -0.19254364826E+03  0.19547526911E+03  0.00000000000E+00 0.  1.
         12    1    3    3    0    0 -0.13035192927E+02 -0.29285935374E+02 -0.47195249529E+02  0.57052378070E+02  0.00000000000E+00 0. -1.
         11    1    5    5    0    0 -0.47590997199E+02 -0.58213157010E+02  0.33273989302E+03  0.34112975694E+03  0.00000000000E+00 0. -1.
        -12    1    5    5    0    0  0.21145901168E+02  0.53147699711E+00  0.38728945290E+02  0.44128933901E+02  0.00000000000E+00 0.  1.
          5    1    4    4  501    0 -0.49843514717E+02  0.44457981974E+01  0.25155780789E+02  0.56164283918E+02  0.41800000000E+01 0.  1.
         -5    1    4    4    0  501  0.70887640122E+02  0.54279433776E+02  0.34206263836E+02  0.95701908752E+02  0.41800000000E+01 0.  1.
</event>
<event>
11    1  0.9238666E-009  0.1357819E+03  0.7561462E-02  0.1112362E+00
         22   -1    0    0    0    0  0.00000000000E+00  0.00000000000E+00  0.98458753559E+03  0.98458753559E+03  0.00000000000E+00 0.  1.
         22   -1    0    0    0    0 -0.00000000000E+00 -0.00000000000E+00 -0.57511070166E+03  0.57511070166E+03  0.00000000000E+00 0. -1.
        -24    2    1    2    0    0  0.56210611541E+02  0.18629676331E+02 -0.35134057932E+03  0.36506369506E+03  0.79527360584E+02 0.  0.
         25    2    1    2    0    0 -0.35241973305E+02 -0.21241958763E+01 -0.19505841835E+03  0.23440418517E+03  0.12510406295E+03 0.  0.
         24    2    1    2    0    0 -0.20968638236E+02 -0.16505480454E+02  0.95587583161E+03  0.96023035701E+03  0.87359134661E+02 0.  0.
        -11    1    5    5    0    0 -0.49255964693E+02  0.54638994328E+00  0.34933271027E+03  0.35278859259E+03  0.00000000000E+00 0.  1.
         12    1    5    5    0    0  0.28287326457E+02 -0.17051870398E+02  0.60654312134E+03  0.60744176442E+03  0.00000000000E+00 0. -1.
         11    1    3    3    0    0  0.23446642372E+02  0.21075790325E+02 -0.31294800002E+03  0.31453200901E+03  0.00000000000E+00 0. -1.
        -12    1    3    3    0    0  0.32763969169E+02 -0.24461139940E+01 -0.38392579305E+02  0.50531686050E+02  0.00000000000E+00 0.  1.
          5    1    4    4  501    0 -0.44675280118E+02 -0.57359906326E+02 -0.95711837121E+02  0.12026748385E+03  0.41800000000E+01 0.  1.
         -5    1    4    4    0  501  0.94333068132E+01  0.55235710450E+02 -0.99346581227E+02  0.11413670132E+03  0.41800000000E+01 0.  1.
</event>
<event>
11    1  0.9238666E-009  0.1660823E+03  0.7561462E-02  0.1081492E+00
         22   -1    0    0    0    0  0.00000000000E+00  0.00000000000E+00  0.13714473302E+03  0.13714473302E+03  0.00000000000E+00 0. -1.
         22   -1    0    0    0    0 -0.00000000000E+00 -0.00000000000E+00 -0.89936063943E+03  0.89936063943E+03  0.00000000000E+00 0. -1.
         24    2    1    2    0    0  0.21629367679E+02 -0.10150477117E+03 -0.64929205330E+03  0.66277715430E+03  0.83200586896E+02 0.  0.
         25    2    1    2    0    0  0.23478646771E+02  0.15341600710E+03 -0.16604632849E+03  0.25944691755E+03  0.12511435464E+03 0.  0.
        -24    2    1    2    0    0 -0.45108014450E+02 -0.51911235929E+02  0.53122475380E+02  0.11428130060E+03  0.74220676999E+02 0.  0.
        -13    1    3    3    0    0  0.35776959131E+02 -0.19860178622E+02 -0.11425047847E+03  0.12135727968E+03  0.00000000000E+00 0.  1.
         14    1    3    3    0    0 -0.14147591452E+02 -0.81644592548E+02 -0.53504157483E+03  0.54141987462E+03  0.00000000000E+00 0. -1.
         11    1    5    5    0    0 -0.51541056346E+02 -0.57025358783E+01  0.14857756703E+02  0.53942120267E+02  0.00000000000E+00 0. -1.
        -12    1    5    5    0    0  0.64330418960E+01 -0.46208700051E+02  0.38264718677E+02  0.60339180338E+02  0.00000000000E+00 0.  1.
          5    1    4    4  501    0 -0.34168643159E+02  0.76049892128E+02 -0.13366410057E+03  0.15759012168E+03  0.41800000000E+01 0.  1.
         -5    1    4    4    0  501  0.57647289930E+02  0.77366114971E+02 -0.32382227912E+02  0.10185679588E+03  0.41800000000E+01 0.  1.
</event>
<event>
11    1  0.9238666E-009  0.3092445E+03  0.7561462E-02  0.9963529E-01
         22   -1    0    0    0    0  0.00000000000E+00  0.00000000000E+00  0.23683386405E+03  0.23683386405E+03  0.00000000000E+00 0. -1.
         22   -1    0    0    0    0 -0.00000000000E+00 -0.00000000000E+00 -0.17693488878E+04  0.17693488878E+04  0.00000000000E+00 0. -1.
         24    2    1    2    0    0 -0.56876732494E+02  0.64575740446E+02 -0.11122012957E+04  0.11183862258E+04  0.79943973762E+02 0.  0.
         25    2    1    2    0    0 -0.89678903028E+02  0.19464971372E+03 -0.50900199688E+03  0.56626988573E+03  0.12509090278E+03 0.  0.
        -24    2    1    2    0    0  0.14655563552E+03 -0.25922545416E+03  0.88688268869E+02  0.32152664029E+03  0.82688457450E+02 0.  0.
        -13    1    3    3    0    0 -0.55436453731E+02  0.15641042560E+02 -0.35861809082E+03  0.36321450642E+03  0.00000000000E+00 0.  1.
         14    1    3    3    0    0 -0.14402787627E+01  0.48934697886E+02 -0.75358320487E+03  0.75517171936E+03  0.00000000000E+00 0. -1.
         11    1    5    5    0    0  0.13102522870E+03 -0.20150247151E+03  0.38385124048E+02  0.24340146739E+03  0.00000000000E+00 0. -1.
        -12    1    5    5    0    0  0.15530406824E+02 -0.57722982654E+02  0.50303144821E+02  0.78125172905E+02  0.00000000000E+00 0.  1.
          5    1    4    4  501    0 -0.30828522143E+02 -0.73466048457E+01 -0.33607783444E+02  0.46382387695E+02  0.41800000000E+01 0.  1.
         -5    1    4    4    0  501 -0.58850380885E+02  0.20199631856E+03 -0.47539421344E+03  0.51988749804E+03  0.41800000000E+01 0.  1.
</event>
<event>
11    1  0.9238666E-009  0.1387411E+03  0.7561462E-02  0.1108972E+00
         22   -1    0    0    0    0  0.00000000000E+00  0.00000000000E+00  0.23158359402E+04  0.23158359402E+04  0.00000000000E+00 0.  1.
         22   -1    0    0    0    0 -0.00000000000E+00 -0.00000000000E+00 -0.10320005588E+04  0.10320005588E+04  0.00000000000E+00 0.  1.
        -24    2    1    2    0    0 -0.58068457335E+02  0.11798990595E+02 -0.88798701371E+03  0.89319468127E+03  0.75925227711E+02 0.  0.
         25    2    1    2    0    0  0.75424077393E+02  0.15985400913E+02 -0.10221306856E+03  0.17899460098E+03  0.12508889360E+03 0.  0.
         24    2    1    2    0    0 -0.17355620058E+02 -0.27784391508E+02  0.22740354638E+04  0.22756472167E+04  0.79118738207E+02 0.  0.
        -13    1    5    5    0    0 -0.47415163862E+02 -0.28849417134E+02  0.14364544683E+04  0.14375263219E+04  0.00000000000E+00 0.  1.
         14    1    5    5    0    0  0.30059543804E+02  0.10650256260E+01  0.83758099544E+03  0.83812089485E+03  0.00000000000E+00 0. -1.
         13    1    3    3    0    0 -0.54930169734E+02  0.25509774406E+02 -0.36288536947E+03  0.36790469352E+03  0.00000000000E+00 0. -1.
        -14    1    3    3    0    0 -0.31382876019E+01 -0.13710783812E+02 -0.52510164424E+03  0.52528998775E+03  0.00000000000E+00 0.  1.
          5    1    4    4  501    0  0.65611647388E+02  0.49211787180E+02 -0.11544437232E+03  0.14167414645E+03  0.41800000000E+01 0.  1.
         -5    1    4    4    0  501  0.98124300052E+01 -0.33226386267E+02  0.13231303767E+02  0.37320454530E+02  0.41800000000E+01 0.  1.
</event>
<event>
11    1  0.9238666E-009  0.1801251E+03  0.7561462E-02  0.1069542E+00
         22   -1    0    0    0    0  0.00000000000E+00  0.00000000000E+00  0.12286399039E+04  0.12286399039E+04  0.00000000000E+00 0. -1.
         22   -1    0    0    0    0 -0.00000000000E+00 -0.00000000000E+00 -0.94617282122E+03  0.94617282122E+03  0.00000000000E+00 0.  1.
        -24    2    1    2    0    0  0.54184015718E+02  0.11779672044E+03 -0.90923345324E+03  0.92202134794E+03  0.81276802712E+02 0.  0.
         25    2    1    2    0    0 -0.13315563421E+03 -0.75967516309E+02  0.34617833902E+03  0.39874005030E+03  0.12511074635E+03 0.  0.
         24    2    1    2    0    0  0.78971618495E+02 -0.41829204126E+02  0.84552219693E+03  0.85405132690E+03  0.80682616718E+02 0.  0.
        -11    1    5    5    0    0  0.35970204971E+02  0.20603085752E+02  0.21244630218E+03  0.21645270637E+03  0.00000000000E+00 0.  1.
         12    1    5    5    0    0  0.43001413524E+02 -0.62432289878E+02  0.63307589475E+03  0.63759862053E+03  0.00000000000E+00 0. -1.
         11    1    3    3    0    0 -0.17466094138E+02  0.43819899067E+02 -0.20917515273E+03  0.21442829225E+03  0.00000000000E+00 0. -1.
        -12    1    3    3    0    0  0.71650109856E+02  0.73976821368E+02 -0.70005830051E+03  0.70759305569E+03  0.00000000000E+00 0.  1.
          5    1    4    4  501    0  0.39293154061E+01  0.22352688730E+02  0.16455311889E+02  0.28343110316E+02  0.41800000000E+01 0.  1.
         -5    1    4    4    0  501 -0.13708494962E+03 -0.98320205039E+02  0.32972302713E+03  0.37039693998E+03  0.41800000000E+01 0.  1.
</event>
<event>
11    1  0.9238666E-009  0.1752065E+03  0.7561462E-02  0.1073588E+00
         22   -1    0    0    0    0  0.00000000000E+00  0.00000000000E+00  0.11874665421E+04  0.11874665421E+04  0.00000000000E+00 0. -1.
         22   -1    0    0    0    0 -0.00000000000E+00 -0.00000000000E+00 -0.96514272050E+03  0.96514272050E+03  0.00000000000E+00 0.  1.
        -24    2    1    2    0    0  0.37983386014E+02  0.11642251909E+03 -0.93165256781E+03  0.94309030878E+03  0.80286255553E+02 0.  0.
         25    2    1    2    0    0 -0.96380594114E+02 -0.11248312771E+03  0.35489260051E+03  0.40439812863E+03  0.12508963028E+03 0.  0.
         24    2    1    2    0    0  0.58397208100E+02 -0.39393913843E+01  0.79908378886E+03  0.80512082516E+03  0.79113139007E+02 0.  0.
        -11    1    5    5    0    0  0.47747607289E+01 -0.34722178108E+02  0.22442735311E+03  0.22714767183E+03  0.00000000000E+00 0.  1.
         12    1    5    5    0    0  0.53622447371E+02  0.30782786723E+02  0.57465643575E+03  0.57797315333E+03  0.00000000000E+00 0. -1.
         13    1    3    3    0    0 -0.15628617059E+02  0.17714098441E+02 -0.64445595014E+02  0.68638747595E+02  0.00000000000E+00 0. -1.
        -14    1    3    3    0    0  0.53612003073E+02  0.98708420649E+02 -0.86720697280E+03  0.87445156118E+03  0.00000000000E+00 0.  1.
          5    1    4    4  501    0 -0.44248699998E+02 -0.88545673277E+02  0.91715560968E+02  0.13500925980E+03  0.41800000000E+01 0.  1.
         -5    1    4    4    0  501 -0.52131894116E+02 -0.23937454429E+02  0.26317703954E+03  0.26938886883E+03  0.41800000000E+01 0.  1.
</event>
<event>
11    1  0.9238666E-009  0.2898095E+03  0.7561462E-02  0.1004599E+00
         22   -1    0    0    0    0  0.00000000000E+00  0.00000000000E+00  0.10535744731E+04  0.10535744731E+04  0.00000000000E+00 0. -1.
         22   -1    0    0    0    0 -0.00000000000E+00 -0.00000000000E+00 -0.12199571925E+04  0.12199571925E+04  0.00000000000E+00 0. -1.
         24    2    1    2    0    0  0.26732261187E+03 -0.27547950231E+02 -0.95511500331E+03  0.99557130205E+03  0.81836908222E+02 0.  0.
         25    2    1    2    0    0 -0.23474486167E+03  0.13884062242E+02 -0.16939327229E+03  0.31565742496E+03  0.12509041518E+03 0.  0.
        -24    2    1    2    0    0 -0.32577750199E+02  0.13663887989E+02  0.95812555616E+03  0.96230293864E+03  0.82306456004E+02 0.  0.
        -11    1    3    3    0    0  0.10711840301E+03 -0.38504305848E+02 -0.29482516098E+03  0.31603608873E+03  0.00000000000E+00 0.  1.
         12    1    3    3    0    0  0.16020420886E+03  0.10956355617E+02 -0.66028984233E+03  0.67953521332E+03  0.00000000000E+00 0. -1.
         11    1    5    5    0    0 -0.56138681122E+01  0.46626634524E+02  0.51209551398E+03  0.51424446910E+03  0.00000000000E+00 0. -1.
        -12    1    5    5    0    0 -0.26963882087E+02 -0.32962746535E+02  0.44603004219E+03  0.44805846954E+03  0.00000000000E+00 0.  1.
          5    1    4    4  501    0 -0.23563560602E+03  0.25347549731E+02 -0.12175644021E+03  0.26647465214E+03  0.41800000000E+01 0. -1.
         -5    1    4    4    0  501  0.89074435408E+00 -0.11463487489E+02 -0.47636832084E+02  0.49182772817E+02  0.41800000000E+01 0. -1.
</event>
<event>
11    1  0.9238666E-009  0.1446794E+03  0.7561462E-02  0.1102443E+00
         22   -1    0    0    0    0  0.00000000000E+00  0.00000000000E+00  0.59804192898E+03  0.59804192898E+03  0.00000000000E+00 0. -1.
         22   -1    0    0    0    0 -0.00000000000E+00 -0.00000000000E+00 -0.41933252212E+03  0.41933252212E+03  0.00000000000E+00 0.  1.
        -24    2    1    2    0    0  0.40516425779E+01 -0.56179592190E+02 -0.38075956456E+03  0.39312757339E+03  0.79993003266E+02 0.  0.
         25    2    1    2    0    0 -0.29444406242E+02  0.10916113330E+03  0.27352533106E+03  0.32132043810E+03  0.12509033188E+03 0.  0.
         24    2    1    2    0    0  0.25392763664E+02 -0.52981541107E+02  0.28594364037E+03  0.30292643961E+03  0.80924818203E+02 0.  0.
        -13    1    5    5    0    0  0.20565677568E+02  0.18905946323E+02  0.82538383649E+02  0.87137630652E+02  0.00000000000E+00 0.  1.
         14    1    5    5    0    0  0.48270860960E+01 -0.71887487430E+02  0.20340525672E+03  0.21578880896E+03  0.00000000000E+00 0. -1.
         11    1    3    3    0    0  0.15709124239E+01 -0.28832335450E+02 -0.31276844727E+02  0.42567738364E+02  0.00000000000E+00 0. -1.
        -12    1    3    3    0    0  0.24807301541E+01 -0.27347256740E+02 -0.34948271983E+03  0.35055983503E+03  0.00000000000E+00 0.  1.
          5    1    4    4  501    0  0.34591934532E+02  0.65162340106E+02  0.63792874080E+02  0.97620365120E+02  0.41800000000E+01 0.  1.
         -5    1    4    4    0  501 -0.64036340774E+02  0.43998793191E+02  0.20973245698E+03  0.22370007298E+03  0.41800000000E+01 0.  1.
</event>
<event>
11    1  0.9238666E-009  0.1508541E+03  0.7561462E-02  0.1096009E+00
         22   -1    0    0    0    0  0.00000000000E+00  0.00000000000E+00  0.52346346168E+03  0.52346346168E+03  0.00000000000E+00 0. -1.
         22   -1    0    0    0    0 -0.00000000000E+00 -0.00000000000E+00 -0.68610883079E+03  0.68610883079E+03  0.00000000000E+00 0.  1.
         24    2    1    2    0    0  0.51887049972E+02 -0.56865469156E+02 -0.64167452436E+03  0.64998702795E+03  0.69361327534E+02 0.  0.
         25    2    1    2    0    0  0.33546745067E+02 -0.89810265664E+01  0.12431337575E+03  0.17974155072E+03  0.12508863547E+03 0.  0.
        -24    2    1    2    0    0 -0.85433795039E+02  0.65846495723E+02  0.35471577949E+03  0.37984371379E+03  0.82603077137E+02 0.  0.
        -11    1    3    3    0    0  0.52553722877E+02 -0.12653452068E+02 -0.24714762351E+03  0.25299002242E+03  0.00000000000E+00 0.  1.
         12    1    3    3    0    0 -0.66667290526E+00 -0.44212017088E+02 -0.39452690084E+03  0.39699700553E+03  0.00000000000E+00 0. -1.
         13    1    5    5    0    0 -0.47051955840E+02  0.75080368176E+02  0.29687225727E+03  0.30981298451E+03  0.00000000000E+00 0. -1.
        -14    1    5    5    0    0 -0.38381839198E+02 -0.92338724537E+01  0.57843522222E+02  0.70030729282E+02  0.00000000000E+00 0.  1.
          5    1    4    4  501    0  0.69127232928E+02 -0.21502534454E+02  0.12174443654E+03  0.14170431732E+03  0.41800000000E+01 0.  1.
         -5    1    4    4    0  501 -0.35580487861E+02  0.12521507887E+02  0.25689392125E+01  0.38037233402E+02  0.41800000000E+01 0. -1.
</event>
<event>
11    1  0.9238666E-009  0.1932501E+03  0.7561462E-02  0.1059402E+00
         22   -1    0    0    0    0  0.00000000000E+00  0.00000000000E+00  0.79889169728E+03  0.79889169728E+03  0.00000000000E+00 0. -1.
         22   -1    0    0    0    0 -0.00000000000E+00 -0.00000000000E+00 -0.46397317543E+03  0.46397317543E+03  0.00000000000E+00 0.  1.
        -24    2    1    2    0    0 -0.10120052927E+03 -0.93678172387E+02 -0.33991876158E+03  0.37583922923E+03  0.81812069065E+02 0.  0.
         25    2    1    2    0    0  0.21874745988E+03  0.16445807187E+03  0.14433932090E+03  0.33373315789E+03  0.12508825889E+03 0.  0.
         24    2    1    2    0    0 -0.11754693060E+03 -0.70779899485E+02  0.53049796253E+03  0.55329248559E+03  0.76664276525E+02 0.  0.
        -13    1    5    5    0    0 -0.62512425407E+02 -0.43613463341E+02  0.15406882482E+03  0.17189281631E+03  0.00000000000E+00 0.  1.
         14    1    5    5    0    0 -0.55034505195E+02 -0.27166436144E+02  0.37642913771E+03  0.38139966929E+03  0.00000000000E+00 0. -1.
         11    1    3    3    0    0  0.61109568726E+01  0.50332705059E+01 -0.57109735743E+02  0.57655871535E+02  0.00000000000E+00 0. -1.
        -12    1    3    3    0    0 -0.10731148615E+03 -0.98711442892E+02 -0.28280902584E+03  0.31818335769E+03  0.00000000000E+00 0.  1.
          5    1    4    4  501    0  0.15096963966E+03  0.77902831870E+02  0.14549677360E+03  0.22371291165E+03  0.41800000000E+01 0.  1.
         -5    1    4    4    0  501  0.67777820220E+02  0.86555240002E+02 -0.11574527031E+01  0.11002024624E+03  0.41800000000E+01 0.  1.
</event>
<event>
11    1  0.9238666E-009  0.2698266E+03  0.7561462E-02  0.1013837E+00
         22   -1    0    0    0    0  0.00000000000E+00  0.00000000000E+00  0.28705075712E+03  0.28705075712E+03  0.00000000000E+00 0.  1.
         22   -1    0    0    0    0 -0.00000000000E+00 -0.00000000000E+00 -0.66649656097E+03  0.66649656097E+03  0.00000000000E+00 0.  1.
         24    2    1    2    0    0 -0.33040462475E+02  0.61714084786E+01 -0.15925366566E+03  0.18087966744E+03  0.78904788359E+02 0.  0.
         25    2    1    2    0    0  0.15022119304E+03  0.20045923656E+03 -0.38282354485E+03  0.47429093664E+03  0.12509082189E+03 0.  0.
        -24    2    1    2    0    0 -0.11718073056E+03 -0.20663064504E+03  0.16263140666E+03  0.29837671401E+03  0.78435591065E+02 0.  0.
        -13    1    3    3    0    0 -0.20958039703E+02 -0.35032636187E+02 -0.97135930580E+02  0.10536562075E+03  0.00000000000E+00 0.  1.
         14    1    3    3    0    0 -0.12082422772E+02  0.41204044666E+02 -0.62117735077E+02  0.75514046693E+02  0.00000000000E+00 0. -1.
         11    1    5    5    0    0 -0.39943811031E+02 -0.14265584870E+03  0.11393299131E+03  0.18688746806E+03  0.00000000000E+00 0. -1.
        -12    1    5    5    0    0 -0.77236919533E+02 -0.63974796342E+02  0.48698415356E+02  0.11148924596E+03  0.00000000000E+00 0.  1.
          5    1    4    4  501    0  0.59428560714E+02  0.69046586958E+01 -0.47124350071E+02  0.76273225380E+02  0.41800000000E+01 0. -1.
         -5    1    4    4    0  501  0.90792632325E+02  0.19355457787E+03 -0.33569919478E+03  0.39801771126E+03  0.41800000000E+01 0. -1.
</event>
<event>
11    1  0.9238666E-009  0.1788184E+03  0.7561462E-02  0.1070603E+00
         22   -1    0    0    0    0  0.00000000000E+00  0.00000000000E+00  0.19546301021E+03  0.19546301021E+03  0.00000000000E+00 0. -1.
         22   -1    0    0    0    0 -0.00000000000E+00 -0.00000000000E+00 -0.12658580187E+04  0.12658580187E+04  0.00000000000E+00 0. -1.
        -24    2    1    2    0    0 -0.78520991767E+02 -0.99958185200E+02 -0.10226662108E+04  0.10335679144E+04  0.79115548454E+02 0.  0.
         25    2    1    2    0    0  0.78987026419E+02  0.10612676122E+03 -0.19066770271E+03  0.26363689325E+03  0.12509356033E+03 0.  0.
         24    2    1    2    0    0 -0.46603465216E+00 -0.61685760157E+01  0.14293890496E+03  0.16411622133E+03  0.80401088513E+02 0.  0.
        -11    1    5    5    0    0  0.19729214239E+02  0.10100703846E+02  0.36857986116E+01  0.22468894589E+02  0.00000000000E+00 0.  1.
         12    1    5    5    0    0 -0.20195248891E+02 -0.16269279861E+02  0.13925310635E+03  0.14164732674E+03  0.00000000000E+00 0. -1.
         11    1    3    3    0    0 -0.48472852711E+01 -0.63828527832E+02 -0.56384737297E+03  0.56746932705E+03  0.00000000000E+00 0. -1.
        -12    1    3    3    0    0 -0.73673706496E+02 -0.36129657368E+02 -0.45881883780E+03  0.46609858731E+03  0.00000000000E+00 0.  1.
          5    1    4    4  501    0  0.94907289060E+02  0.99218344141E+02 -0.96698846610E+02  0.16798753724E+03  0.41800000000E+01 0. -1.
         -5    1    4    4    0  501 -0.15920262641E+02  0.69084170749E+01 -0.93968856104E+02  0.95649356017E+02  0.41800000000E+01 0. -1.
</event>
<event>
11    1  0.9238666E-009  0.1264859E+03  0.7561462E-02  0.1123664E+00
         22   -1    0    0    0    0  0.00000000000E+00  0.00000000000E+00  0.37198292475E+03  0.37198292475E+03  0.00000000000E+00 0.  1.
         22   -1    0    0    0    0 -0.00000000000E+00 -0.00000000000E+00 -0.41063993149E+03  0.41063993149E+03  0.00000000000E+00 0. -1.
         24    2    1    2    0    0 -0.10113964111E+02  0.27644900662E+02 -0.25725101916E+03  0.27837879660E+03  0.10222590050E+03 0.  0.
         25    2    1    2    0    0 -0.21358763239E+02  0.67835459936E+01 -0.10723591159E+03  0.16628939793E+03  0.12510159817E+03 0.  0.
        -24    2    1    2    0    0  0.31472727351E+02 -0.34428446656E+02  0.32582992401E+03  0.33795466171E+03  0.76631347928E+02 0.  0.
        -11    1    3    3    0    0  0.18015126449E+02 -0.15374596909E+02 -0.97755761646E+01  0.25621961292E+02  0.00000000000E+00 0.  1.
         12    1    3    3    0    0 -0.28129090560E+02  0.43019497571E+02 -0.24747544300E+03  0.25275683531E+03  0.00000000000E+00 0. -1.
         13    1    5    5    0    0 -0.22853976546E+02 -0.17628498878E+02  0.67013477748E+02  0.72964884818E+02  0.00000000000E+00 0. -1.
        -14    1    5    5    0    0  0.54326703897E+02 -0.16799947778E+02  0.25881644626E+03  0.26498977689E+03  0.00000000000E+00 0.  1.
          5    1    4    4  501    0 -0.26323640241E+02  0.14582543561E+02  0.21458426535E+02  0.37195713215E+02  0.41800000000E+01 0.  1.
         -5    1    4    4    0  501  0.49648770019E+01 -0.77989975671E+01 -0.12869433813E+03  0.12909368471E+03  0.41800000000E+01 0.  1.
</event>
<event>
11    1  0.9238666E-009  0.1648451E+03  0.7561462E-02  0.1082607E+00
         22   -1    0    0    0    0  0.00000000000E+00  0.00000000000E+00  0.13300211301E+04  0.13300211301E+04  0.00000000000E+00 0. -1.
         22   -1    0    0    0    0 -0.00000000000E+00 -0.00000000000E+00 -0.20072594498E+03  0.20072594498E+03  0.00000000000E+00 0.  1.
         24    2    1    2    0    0 -0.99184592281E+01 -0.10540355589E+03 -0.14713061539E+03  0.20137416887E+03  0.87726007972E+02 0.  0.
         25    2    1    2    0    0 -0.72194194103E+02  0.13724008622E+03  0.42311066649E+03  0.46767278276E+03  0.12509337594E+03 0.  0.
        -24    2    1    2    0    0  0.82112653331E+02 -0.31836530325E+02  0.85331513401E+03  0.86170012345E+03  0.81390001343E+02 0.  0.
        -13    1    3    3    0    0 -0.28618147472E+01 -0.39552100611E+02 -0.12563463038E+03  0.13174452170E+03  0.00000000000E+00 0.  1.
         14    1    3    3    0    0 -0.70566444809E+01 -0.65851455284E+02 -0.21495985013E+02  0.69629647177E+02  0.00000000000E+00 0. -1.
         11    1    5    5    0    0  0.76363197778E+02 -0.24900702913E+02  0.84675449801E+03  0.85055544374E+03  0.00000000000E+00 0. -1.
        -12    1    5    5    0    0  0.57494555529E+01 -0.69358274123E+01  0.65606360063E+01  0.11144679711E+02  0.00000000000E+00 0.  1.
          5    1    4    4  501    0 -0.63395189348E+02  0.11487652503E+03  0.17706121228E+03  0.22041713030E+03  0.41800000000E+01 0. -1.
         -5    1    4    4    0  501 -0.87990047542E+01  0.22363561190E+02  0.24604945422E+03  0.24725565246E+03  0.41800000000E+01 0. -1.
</event>
<event>
11    1  0.9238666E-009  0.1809400E+03  0.7561462E-02  0.1068885E+00
         22   -1    0    0    0    0  0.00000000000E+00  0.00000000000E+00  0.23773254376E+03  0.23773254376E+03  0.00000000000E+00 0.  1.
         22   -1    0    0    0    0 -0.00000000000E+00 -0.00000000000E+00 -0.76812243211E+03  0.76812243211E+03  0.00000000000E+00 0. -1.
         24    2    1    2    0    0 -0.59369720633E+01 -0.15534950841E+02 -0.46493814057E+03  0.47221307799E+03  0.80877278234E+02 0.  0.
         25    2    1    2    0    0 -0.78257638386E+02  0.11452693711E+03 -0.23832053844E+03  0.30279529062E+03  0.12509049399E+03 0.  0.
        -24    2    1    2    0    0  0.84194610450E+02 -0.98991986274E+02  0.17286879066E+03  0.23084660726E+03  0.80736556300E+02 0.  0.
        -13    1    3    3    0    0 -0.10493417263E+02  0.24262042887E+02 -0.33965303642E+03  0.34068011929E+03  0.00000000000E+00 0.  1.
         14    1    3    3    0    0  0.45564451995E+01 -0.39796993728E+02 -0.12528510415E+03  0.13153295871E+03  0.00000000000E+00 0. -1.
         13    1    5    5    0    0 -0.76014382176E+01 -0.33222244096E+02  0.16235543732E+02  0.37750393985E+02  0.00000000000E+00 0. -1.
        -14    1    5    5    0    0  0.91796048667E+02 -0.65769742178E+02  0.15663324693E+03  0.19309621327E+03  0.00000000000E+00 0.  1.
          5    1    4    4  501    0 -0.74001120107E+02  0.14115055679E+03 -0.20044179422E+03  0.25611331619E+03  0.41800000000E+01 0. -1.
         -5    1    4    4    0  501 -0.42565182793E+01 -0.26623619679E+02 -0.37878744216E+02  0.46681974423E+02  0.41800000000E+01 0. -1.
</event>
<event>
11    1  0.9238666E-009  0.1517803E+03  0.7561462E-02  0.1095073E+00
         22   -1    0    0    0    0  0.00000000000E+00  0.00000000000E+00  0.66276178063E+03  0.66276178063E+03  0.00000000000E+00 0.  1.
         22   -1    0    0    0    0 -0.00000000000E+00 -0.00000000000E+00 -0.60747374533E+03  0.60747374533E+03  0.00000000000E+00 0.  1.
        -24    2    1    2    0    0 -0.52013252786E+02  0.13431371070E+02 -0.48275692316E+03  0.49245174128E+03  0.81047457920E+02 0.  0.
         25    2    1    2    0    0  0.11789270281E+03 -0.65317244243E+02 -0.41080657958E+02  0.18841451333E+03  0.12508947440E+03 0.  0.
         24    2    1    2    0    0 -0.65879450021E+02  0.51885873173E+02  0.57912561642E+03  0.58936927136E+03  0.70266725124E+02 0.  0.
        -13    1    5    5    0    0 -0.55971335726E+02  0.66976495072E+01  0.41630294779E+03  0.42010212243E+03  0.00000000000E+00 0.  1.
         14    1    5    5    0    0 -0.99081142954E+01  0.45188223666E+02  0.16282266862E+03  0.16926714892E+03  0.00000000000E+00 0. -1.
         11    1    3    3    0    0 -0.33666430689E+02 -0.33053715233E+02 -0.24437654603E+03  0.24888927839E+03  0.00000000000E+00 0. -1.
        -12    1    3    3    0    0 -0.18346822097E+02  0.46485086303E+02 -0.23838037713E+03  0.24356246289E+03  0.00000000000E+00 0.  1.
          5    1    4    4  501    0  0.13444918922E+03 -0.59221785411E+02 -0.63052318203E+02  0.15992770736E+03  0.41800000000E+01 0. -1.
         -5    1    4    4    0  501 -0.16556486413E+02 -0.60954588323E+01  0.21971660245E+02  0.28486805975E+02  0.41800000000E+01 0. -1.
</event>
<event>
11    1  0.9238666E-009  0.1288374E+03  0.7561462E-02  0.1120706E+00
         22   -1    0    0    0    0  0.00000000000E+00  0.00000000000E+00  0.33278311954E+03  0.33278311954E+03  0.00000000000E+00 0. -1.
         22   -1    0    0    0    0 -0.00000000000E+00 -0.00000000000E+00 -0.86296028485E+03  0.86296028485E+03  0.00000000000E+00 0. -1.
        -24    2    1    2    0    0 -0.22069753170E+02  0.21986120435E+02 -0.79192624210E+03  0.79667188456E+03  0.81046006853E+02 0.  0.
         25    2    1    2    0    0 -0.14749660009E+02 -0.44084007422E+02  0.79596307663E+01  0.13368677730E+03  0.12509135271E+03 0.  0.
         24    2    1    2    0    0  0.36819413178E+02  0.22097886987E+02  0.25378944602E+03  0.26538474252E+03  0.64621922373E+02 0.  0.
        -11    1    5    5    0    0  0.41890572370E+01  0.37514518160E+02  0.88722085293E+02  0.96418336908E+02  0.00000000000E+00 0.  1.
         12    1    5    5    0    0  0.32630355941E+02 -0.15416631173E+02  0.16506736073E+03  0.16896640561E+03  0.00000000000E+00 0. -1.
         11    1    3    3    0    0  0.29307109169E+02  0.19373523646E+02 -0.35157592284E+03  0.35332685942E+03  0.00000000000E+00 0. -1.
        -12    1    3    3    0    0 -0.51376862338E+02  0.26125967899E+01 -0.44035031926E+03  0.44334502514E+03  0.00000000000E+00 0.  1.
          5    1    4    4  501    0  0.23638878602E+02  0.36149470870E+02  0.10353213372E+02  0.44612131230E+02  0.41800000000E+01 0. -1.
         -5    1    4    4    0  501 -0.38388538610E+02 -0.80233478293E+02 -0.23935826057E+01  0.89074646074E+02  0.41800000000E+01 0. -1.
</event>
<event>
11    1  0.9238666E-009  0.1541565E+03  0.7561462E-02  0.1092706E+00
         22   -1    0    0    0    0  0.00000000000E+00  0.00000000000E+00  0.52475673784E+03  0.52475673784E+03  0.00000000000E+00 0. -1.
         22   -1    0    0    0    0 -0.00000000000E+00 -0.00000000000E+00 -0.10999743699E+04  0.10999743699E+04  0.00000000000E+00 0.  1.
        -24    2    1    2    0    0 -0.76231290827E+02  0.48008253522E+02 -0.10628803920E+04  0.10696128432E+04  0.78999396234E+02 0.  0.
         25    2    1    2    0    0  0.71409184121E+02 -0.56020559026E+02  0.18098885289E+03  0.23799623573E+03  0.12509064211E+03 0.  0.
         24    2    1    2    0    0  0.48221067061E+01  0.80123055040E+01  0.30667390700E+03  0.31712202883E+03  0.80187568764E+02 0.  0.
        -13    1    5    5    0    0  0.35173928126E+02 -0.13811618303E+02  0.96232600116E+02  0.10338606940E+03  0.00000000000E+00 0.  1.
         14    1    5    5    0    0 -0.30351821420E+02  0.21823923807E+02  0.21044130688E+03  0.21373595943E+03  0.00000000000E+00 0. -1.
         13    1    3    3    0    0 -0.43178151566E+02 -0.71057174037E+01 -0.22146204933E+03  0.22574384440E+03  0.00000000000E+00 0. -1.
        -14    1    3    3    0    0 -0.33053139261E+02  0.55113970926E+02 -0.84141834263E+03  0.84386899879E+03  0.00000000000E+00 0.  1.
          5    1    4    4  501    0  0.48409085146E+02  0.34621818706E+02  0.55883418734E+02  0.81746796540E+02  0.41800000000E+01 0. -1.
         -5    1    4    4    0  501  0.23000098975E+02 -0.90642377732E+02  0.12510543415E+03  0.15624943919E+03  0.41800000000E+01 0. -1.
</event>
<event>
11    1  0.9238666E-009  0.1480087E+03  0.7561462E-02  0.1098931E+00
         22   -1    0    0    0    0  0.00000000000E+00  0.00000000000E+00  0.26548582098E+04  0.26548582098E+04  0.00000000000E+00 0. -1.
         22   -1    0    0    0    0 -0.00000000000E+00 -0.00000000000E+00 -0.65791892878E+02  0.65791892878E+02  0.00000000000E+00 0.  1.
         24    2    1    2    0    0 -0.11958598723E+02 -0.80882412968E+02  0.65100480048E+01  0.11288191444E+03  0.77556257465E+02 0.  0.
         25    2    1    2    0    0  0.34611406049E+02  0.55435630175E+02  0.41173776216E+03  0.43525228522E+03  0.12508200701E+03 0.  0.
        -24    2    1    2    0    0 -0.22652807326E+02  0.25446782793E+02  0.21708185068E+04  0.21725159030E+04  0.78814155813E+02 0.  0.
        -11    1    3    3    0    0  0.12933640806E+02 -0.91488767962E+01 -0.25870641584E+02  0.30335970515E+02  0.00000000000E+00 0.  1.
         12    1    3    3    0    0 -0.24892239529E+02 -0.71733536172E+02  0.32380689589E+02  0.82545943926E+02  0.00000000000E+00 0. -1.
         13    1    5    5    0    0  0.25592082838E+02  0.27305433489E+02  0.88308644404E+03  0.88387906924E+03  0.00000000000E+00 0. -1.
        -14    1    5    5    0    0 -0.48244890164E+02 -0.18586506957E+01  0.12877320627E+04  0.12886368338E+04  0.00000000000E+00 0.  1.
          5    1    4    4  501    0  0.13580756185E+02  0.10607237460E+02  0.36980960074E+03  0.37023447115E+03  0.41800000000E+01 0.  1.
         -5    1    4    4    0  501  0.21030649864E+02  0.44828392714E+02  0.41928161425E+02  0.65017814078E+02  0.41800000000E+01 0.  1.
</event>
<event>
11    1  0.9238666E-009  0.1536617E+03  0.7561462E-02  0.1093195E+00
         22   -1    0    0    0    0  0.00000000000E+00  0.00000000000E+00  0.83686874927E+03  0.83686874927E+03  0.00000000000E+00 0.  1.
         22   -1    0    0    0    0 -0.00000000000E+00 -0.00000000000E+00 -0.26534265671E+03  0.26534265671E+03  0.00000000000E+00 0.  1.
        -24    2    1    2    0    0  0.83121355592E+02 -0.33442730309E+02 -0.23514518107E+03  0.26387393533E+03  0.79426831747E+02 0.  0.
         25    2    1    2    0    0 -0.69277644054E+02  0.34177035773E+02  0.53934298557E+03  0.55901694943E+03  0.12506651000E+03 0.  0.
         24    2    1    2    0    0 -0.13843711538E+02 -0.73430546436E+00  0.26732828805E+03  0.27932052122E+03  0.79770623840E+02 0.  0.
        -13    1    5    5    0    0  0.57765317894E+01  0.30268054684E+02  0.20249256054E+03  0.20482373038E+03  0.00000000000E+00 0.  1.
         14    1    5    5    0    0 -0.19620243328E+02 -0.31002360148E+02  0.64835727515E+02  0.74496790840E+02  0.00000000000E+00 0. -1.
         13    1    3    3    0    0 -0.15257010164E+02 -0.64087431171E+01 -0.21620987402E+02  0.27227108619E+02  0.00000000000E+00 0. -1.
        -14    1    3    3    0    0  0.98378365756E+02 -0.27033987192E+02 -0.21352419367E+03  0.23664682671E+03  0.00000000000E+00 0.  1.
          5    1    4    4  501    0 -0.20283405164E+02  0.43193108905E+01  0.46271403560E+03  0.46319739217E+03  0.41800000000E+01 0.  1.
         -5    1    4    4    0  501 -0.48994238889E+02  0.29857724883E+02  0.76628949968E+02  0.95819557256E+02  0.41800000000E+01 0.  1.
</event>
<event>
11    1  0.9238666E-009  0.1435491E+03  0.7561462E-02  0.1103659E+00
         22   -1    0    0    0    0  0.00000000000E+00  0.00000000000E+00  0.35381419388E+03  0.35381419388E+03  0.00000000000E+00 0. -1.
         22   -1    0    0    0    0 -0.00000000000E+00 -0.00000000000E+00 -0.90894496779E+03  0.90894496779E+03  0.00000000000E+00 0.  1.
        -24    2    1    2    0    0 -0.30341504889E+01 -0.63753167168E+02 -0.80637205385E+03  0.81300409929E+03  0.81646211377E+02 0.  0.
         25    2    1    2    0    0 -0.54476304946E+02  0.16259828116E+02 -0.36364299039E+02  0.14213389662E+03  0.12509049729E+03 0.  0.
         24    2    1    2    0    0  0.57510455435E+02  0.47493339052E+02  0.28760557897E+03  0.30762116577E+03  0.79691548065E+02 0.  0.
        -13    1    5    5    0    0  0.61372498199E+02  0.72390546758E+01  0.11733197901E+03  0.13261138996E+03  0.00000000000E+00 0.  1.
         14    1    5    5    0    0 -0.38620427640E+01  0.40254284376E+02  0.17027359996E+03  0.17500977581E+03  0.00000000000E+00 0. -1.
         13    1    3    3    0    0  0.23033442389E+02 -0.23336545822E+02 -0.10536202326E+03  0.11034622687E+03  0.00000000000E+00 0. -1.
        -14    1    3    3    0    0 -0.26067592877E+02 -0.40416621346E+02 -0.70101003059E+03  0.70265787241E+03  0.00000000000E+00 0.  1.
          5    1    4    4  501    0 -0.35561587314E+02  0.32209350348E+02  0.39461865316E+02  0.62263793302E+02  0.41800000000E+01 0.  1.
         -5    1    4    4    0  501 -0.18914717633E+02 -0.15949522232E+02 -0.75826164355E+02  0.79870103314E+02  0.41800000000E+01 0.  1.
</event>
<event>
11    1  0.9238666E-009  0.1290748E+03  0.7561462E-02  0.1120411E+00
         22   -1    0    0    0    0  0.00000000000E+00  0.00000000000E+00  0.56388857264E+03  0.56388857264E+03  0.00000000000E+00 0. -1.
         22   -1    0    0    0    0 -0.00000000000E+00 -0.00000000000E+00 -0.88110064029E+03  0.88110064029E+03  0.00000000000E+00 0. -1.
         24    2    1    2    0    0 -0.34415228423E+02 -0.21641662573E+00 -0.67971922404E+03  0.68527291279E+03  0.79976788406E+02 0.  0.
         25    2    1    2    0    0  0.12260895292E+02  0.14021270982E+02 -0.17482778766E+03  0.21577585866E+03  0.12509012850E+03 0.  0.
        -24    2    1    2    0    0  0.22154333131E+02 -0.13804854356E+02  0.53733494405E+03  0.54394044149E+03  0.80380179800E+02 0.  0.
        -11    1    3    3    0    0  0.16373415001E+02 -0.21179230441E+02 -0.34856128539E+03  0.34958778324E+03  0.00000000000E+00 0.  1.
         12    1    3    3    0    0 -0.50788643424E+02  0.20962813815E+02 -0.33115793865E+03  0.33568512954E+03  0.00000000000E+00 0. -1.
         11    1    5    5    0    0  0.38609624038E+02 -0.22629911007E+02  0.50185977621E+03  0.50385121903E+03  0.00000000000E+00 0. -1.
        -12    1    5    5    0    0 -0.16455290907E+02  0.88250566512E+01  0.35475167843E+02  0.40089222458E+02  0.00000000000E+00 0.  1.
          5    1    4    4  501    0  0.34001912489E+02 -0.40283235361E+02 -0.33077551351E+02  0.62373599443E+02  0.41800000000E+01 0.  1.
         -5    1    4    4    0  501 -0.21741017197E+02  0.54304506343E+02 -0.14175023631E+03  0.15340225922E+03  0.41800000000E+01 0.  1.
</event>
<event>
11    1  0.9238666E-009  0.1569142E+03  0.7561462E-02  0.1090016E+00
         22   -1    0    0    0    0  0.00000000000E+00  0.00000000000E+00  0.72486706412E+03  0.72486706412E+03  0.00000000000E+00 0. -1.
         22   -1    0    0    0    0 -0.00000000000E+00 -0.00000000000E+00 -0.19257842129E+03  0.19257842129E+03  0.00000000000E+00 0.  1.
         24    2    1    2    0    0 -0.81335307188E+02  0.49281256312E+02 -0.13935684451E+03  0.18674328771E+03  0.80054050332E+02 0.  0.
         25    2    1    2    0    0  0.97826509909E+02 -0.12520793696E+02  0.22687204782E+03  0.27720849038E+03  0.12508726849E+03 0.  0.
        -24    2    1    2    0    0 -0.16491202720E+02 -0.36760462616E+02  0.44477343953E+03  0.45349370732E+03  0.78802529756E+02 0.  0.
        -11    1    3    3    0    0 -0.94357427659E+02  0.51686654842E+02 -0.13536584104E+03  0.17291253674E+03  0.00000000000E+00 0.  1.
         12    1    3    3    0    0  0.13022120471E+02 -0.24053985299E+01 -0.39910034724E+01  0.13830750969E+02  0.00000000000E+00 0. -1.
         11    1    5    5    0    0 -0.48060139108E+02 -0.15746300940E+02  0.25709713457E+03  0.26202415837E+03  0.00000000000E+00 0. -1.
        -12    1    5    5    0    0  0.31568936387E+02 -0.21014161675E+02  0.18767630496E+03  0.19146954896E+03  0.00000000000E+00 0.  1.
          5    1    4    4  501    0  0.12555043195E+02  0.51010434912E+02  0.81312467618E+02  0.96896250545E+02  0.41800000000E+01 0.  1.
         -5    1    4    4    0  501  0.85271466714E+02 -0.63531228608E+02  0.14555958020E+03  0.18031223983E+03  0.41800000000E+01 0.  1.
</event>
<event>
11    1  0.9238666E-009  0.1703555E+03  0.7561462E-02  0.1077723E+00
         22   -1    0    0    0    0  0.00000000000E+00  0.00000000000E+00  0.64960553933E+02  0.64960553933E+02  0.00000000000E+00 0. -1.
         22   -1    0    0    0    0 -0.00000000000E+00 -0.00000000000E+00 -0.15046887169E+04  0.15046887169E+04  0.00000000000E+00 0.  1.
        -24    2    1    2    0    0  0.55910774193E+02  0.10207854133E+03 -0.12355506559E+04  0.12436250606E+04  0.80447652013E+02 0.  0.
         25    2    1    2    0    0 -0.24547684770E+02 -0.10981209794E+03 -0.14407546906E+03  0.22151018580E+03  0.12509091072E+03 0.  0.
         24    2    1    2    0    0 -0.31363089423E+02  0.77335566080E+01 -0.60102037993E+02  0.10451402445E+03  0.79167386338E+02 0.  0.
        -11    1    5    5    0    0 -0.52497719398E+02  0.23907015843E+02 -0.48965267587E+02  0.75664743298E+02  0.00000000000E+00 0.  1.
         12    1    5    5    0    0  0.21134629975E+02 -0.16173459235E+02 -0.11136770407E+02  0.28849281151E+02  0.00000000000E+00 0. -1.
         13    1    3    3    0    0  0.39974972282E+02  0.10352859835E+02 -0.22202271447E+03  0.22583017039E+03  0.00000000000E+00 0. -1.
        -14    1    3    3    0    0  0.15935801910E+02  0.91725681499E+02 -0.10135279414E+04  0.10177948902E+04  0.00000000000E+00 0.  1.
          5    1    4    4  501    0 -0.21577029313E+02 -0.11871428037E+03 -0.56436575085E+02  0.13327118205E+03  0.41800000000E+01 0.  1.
         -5    1    4    4    0  501 -0.29706554570E+01  0.89021824256E+01 -0.87638893974E+02  0.88239003750E+02  0.41800000000E+01 0.  1.
</event>
<event>
11    1  0.9238666E-009  0.1335683E+03  0.7561462E-02  0.1114961E+00
         22   -1    0    0    0    0  0.00000000000E+00  0.00000000000E+00  0.17954412936E+04  0.17954412936E+04  0.00000000000E+00 0.  1.
         22   -1    0    0    0    0 -0.00000000000E+00 -0.00000000000E+00 -0.33151191294E+03  0.33151191294E+03  0.00000000000E+00 0.  1.
         24    2    1    2    0    0 -0.25728762783E+02  0.18410321775E+01 -0.31897014672E+03  0.32831883309E+03  0.73388984402E+02 0.  0.
         25    2    1    2    0    0  0.56596977184E+02  0.27750939257E+02  0.79689964596E+03  0.80911701864E+03  0.12509185290E+03 0.  0.
        -24    2    1    2    0    0 -0.30868214400E+02 -0.29591971434E+02  0.98599988142E+03  0.98951735482E+03  0.71556256842E+02 0.  0.
        -11    1    3    3    0    0 -0.21874582448E+02  0.58255775377E+01 -0.32144984355E+03  0.32224592570E+03  0.00000000000E+00 0.  1.
         12    1    3    3    0    0 -0.38541803357E+01 -0.39845453602E+01  0.24796968345E+01  0.60729073909E+01  0.00000000000E+00 0. -1.
         11    1    5    5    0    0 -0.24888693391E+02 -0.43250649558E+01  0.10014427664E+03  0.10328131191E+03  0.00000000000E+00 0. -1.
        -12    1    5    5    0    0 -0.59795210090E+01 -0.25266906479E+02  0.88585560478E+03  0.88623604291E+03  0.00000000000E+00 0.  1.
          5    1    4    4  501    0  0.76251503036E+01 -0.40339029572E+02  0.11726241253E+03  0.12431140743E+03  0.41800000000E+01 0.  1.
         -5    1    4    4    0  501  0.48971826880E+02  0.68089968829E+02  0.67963723342E+03  0.68480561121E+03  0.41800000000E+01 0.  1.
</event>
<event>
11    1  0.9238666E-009  0.1409873E+03  0.7561462E-02  0.1106461E+00
         22   -1    0    0    0    0  0.00000000000E+00  0.00000000000E+00  0.53924099207E+03  0.53924099207E+03  0.00000000000E+00 0. -1.
         22   -1    0    0    0    0 -0.00000000000E+00 -0.00000000000E+00 -0.86790311966E+02  0.86790311966E+02  0.00000000000E+00 0.  1.
        -24    2    1    2    0    0 -0.55201430077E+02 -0.10107296008E+02  0.98123518395E+01  0.96289898941E+02  0.77628004446E+02 0.  0.
         25    2    1    2    0    0  0.89660775163E+02  0.16621065103E+02  0.11695783059E+03  0.19401443211E+03  0.12508857391E+03 0.  0.
         24    2    1    2    0    0 -0.34459345086E+02 -0.65137690948E+01  0.32568049768E+03  0.33572697299E+03  0.73586263484E+02 0.  0.
        -11    1    5    5    0    0 -0.38415872193E+02 -0.25932340645E+02  0.11315747508E+03  0.12228196799E+03  0.00000000000E+00 0.  1.
         12    1    5    5    0    0  0.39565271064E+01  0.19418571550E+02  0.21252302259E+03  0.21344500500E+03  0.00000000000E+00 0. -1.
         11    1    3    3    0    0 -0.87693244919E+01  0.15269870096E+02  0.33861784745E+02  0.38166614350E+02  0.00000000000E+00 0. -1.
        -12    1    3    3    0    0 -0.46432105585E+02 -0.25377166104E+02 -0.24049432906E+02  0.58123284591E+02  0.00000000000E+00 0.  1.
          5    1    4    4  501    0  0.11815581388E+03  0.31060061751E+02  0.97639095968E+02  0.15644931847E+03  0.41800000000E+01 0.  1.
         -5    1    4    4    0  501 -0.28495038712E+02 -0.14438996648E+02  0.19318734625E+02  0.37565113642E+02  0.41800000000E+01 0.  1.
</event>
<event>
11    1  0.9238666E-009  0.1435917E+03  0.7561462E-02  0.1103613E+00
         22   -1    0    0    0    0  0.00000000000E+00  0.00000000000E+00  0.18120597580E+02  0.18120597580E+02  0.00000000000E+00 0. -1.
         22   -1    0    0    0    0 -0.00000000000E+00 -0.00000000000E+00 -0.45386763602E+04  0.45386763602E+04  0.00000000000E+00 0. -1.
        -24    2    1    2    0    0 -0.18865352651E+02 -0.88556437739E+00 -0.36641404440E+04  0.36650338472E+04  0.78684321838E+02 0.  0.
         25    2    1    2    0    0 -0.57873291219E+02 -0.12790360674E+02 -0.51709862075E+03  0.53530563380E+03  0.12509287286E+03 0.  0.
         24    2    1    2    0    0  0.76738643870E+02  0.13675925051E+02 -0.33931669787E+03  0.35645747670E+03  0.76486997959E+02 0.  0.
        -13    1    5    5    0    0  0.74859551984E+02  0.20299788252E+02 -0.34071470122E+03  0.34943174091E+03  0.00000000000E+00 0.  1.
         14    1    5    5    0    0  0.18790918856E+01 -0.66238632010E+01  0.13980033569E+01  0.70257357911E+01  0.00000000000E+00 0. -1.
         11    1    3    3    0    0 -0.17678559065E+02  0.33216295208E+02 -0.27489302003E+04  0.27491877163E+04  0.00000000000E+00 0. -1.
        -12    1    3    3    0    0 -0.11867935864E+01 -0.34101859585E+02 -0.91521024372E+03  0.91584613092E+03  0.00000000000E+00 0.  1.
          5    1    4    4  501    0 -0.82294584133E+02 -0.33395878823E+02 -0.46936953787E+03  0.47771635808E+03  0.41800000000E+01 0. -1.
         -5    1    4    4    0  501  0.24421292914E+02  0.20605518149E+02 -0.47729082878E+02  0.57589275722E+02  0.41800000000E+01 0. -1.
</event>
<event>
11    1  0.9238666E-009  0.1432357E+03  0.7561462E-02  0.1103998E+00
         22   -1    0    0    0    0  0.00000000000E+00  0.00000000000E+00  0.21401521215E+04  0.21401521215E+04  0.00000000000E+00 0. -1.
         22   -1    0    0    0    0 -0.00000000000E+00 -0.00000000000E+00 -0.45801885630E+03  0.45801885630E+03  0.00000000000E+00 0. -1.
        -24    2    1    2    0    0 -0.19963725981E+02 -0.67316556117E+02 -0.44278993302E+03  0.45552747503E+03  0.80698740069E+02 0.  0.
         25    2    1    2    0    0 -0.30581093670E+02  0.35785279340E+02  0.61351742048E+03  0.62790848494E+03  0.12509856402E+03 0.  0.
         24    2    1    2    0    0  0.50544819651E+02  0.31531276777E+02  0.15114057778E+04  0.15147350178E+04  0.80782108251E+02 0.  0.
        -13    1    5    5    0    0 -0.12928730637E+02  0.49756433721E+01  0.55446530667E+02  0.57150913080E+02  0.00000000000E+00 0.  1.
         14    1    5    5    0    0  0.63473550288E+02  0.26555633405E+02  0.14559592471E+04  0.14575841048E+04  0.00000000000E+00 0. -1.
         11    1    3    3    0    0 -0.43507620925E+02 -0.15342002901E+02 -0.25925819600E+03  0.26333078499E+03  0.00000000000E+00 0. -1.
        -12    1    3    3    0    0  0.23543894944E+02 -0.51974553216E+02 -0.18353173702E+03  0.19219669004E+03  0.00000000000E+00 0.  1.
          5    1    4    4  501    0 -0.75294060374E+02  0.44730839945E+02  0.38674100917E+03  0.39655532292E+03  0.41800000000E+01 0. -1.
         -5    1    4    4    0  501  0.44712966704E+02 -0.89455606051E+01  0.22677641131E+03  0.23135316201E+03  0.41800000000E+01 0. -1.
</event>
<event>
11    1  0.9238666E-009  0.1473704E+03  0.7561462E-02  0.1099596E+00
         22   -1    0    0    0    0  0.00000000000E+00  0.00000000000E+00  0.20112727029E+04  0.20112727029E+04  0.00000000000E+00 0. -1.
         22   -1    0    0    0    0 -0.00000000000E+00 -0.00000000000E+00 -0.34989624141E+03  0.34989624141E+03  0.00000000000E+00 0.  1.
         24    2    1    2    0    0 -0.11065178269E+02  0.49468349780E+02 -0.32389499474E+03  0.33572270606E+03  0.72334030353E+02 0.  0.
         25    2    1    2    0    0  0.86820953958E+02 -0.57866617635E+02  0.34682801873E+03  0.38317407263E+03  0.12508505856E+03 0.  0.
        -24    2    1    2    0    0 -0.75755775689E+02  0.83982678554E+01  0.16384434375E+04  0.16422721656E+04  0.82167509665E+02 0.  0.
        -13    1    3    3    0    0 -0.28050322560E+02  0.92881810267E+00 -0.19398011124E+03  0.19599991545E+03  0.00000000000E+00 0.  1.
         14    1    3    3    0    0  0.16985144291E+02  0.48539531677E+02 -0.12991488351E+03  0.13972279062E+03  0.00000000000E+00 0. -1.
         13    1    5    5    0    0 -0.85297555898E+02  0.25853928201E+02  0.14612018853E+04  0.14639177054E+04  0.00000000000E+00 0. -1.
        -14    1    5    5    0    0  0.95417802087E+01 -0.17455660345E+02  0.17724155223E+03  0.17835446023E+03  0.00000000000E+00 0.  1.
          5    1    4    4  501    0  0.62419842594E+02 -0.91776073786E+02  0.18315205429E+03  0.21419904729E+03  0.41800000000E+01 0. -1.
         -5    1    4    4    0  501  0.24401111364E+02  0.33909456152E+02  0.16367596444E+03  0.16897502534E+03  0.41800000000E+01 0. -1.
</event>
<event>
11    1  0.9238666E-009  0.1495689E+03  0.7561462E-02  0.1097320E+00
         22   -1    0    0    0    0  0.00000000000E+00  0.00000000000E+00  0.17156524223E+03  0.17156524223E+03  0.00000000000E+00 0. -1.
         22   -1    0    0    0    0 -0.00000000000E+00 -0.00000000000E+00 -0.55405588429E+03  0.55405588429E+03  0.00000000000E+00 0. -1.
         24    2    1    2    0    0  0.39969578842E+01  0.23097630697E+02 -0.34881970417E+03  0.35889265378E+03  0.81112728366E+02 0.  0.
         25    2    1    2    0    0 -0.63564243918E+02  0.35513648252E+02 -0.14668961009E+03  0.20606913998E+03  0.12508004008E+03 0.  0.
        -24    2    1    2    0    0  0.59567286034E+02 -0.58611278950E+02  0.11301867221E+03  0.16065933276E+03  0.77811678737E+02 0.  0.
        -11    1    3    3    0    0 -0.89871298443E+00 -0.29737040717E+01  0.40069865131E+01  0.50701619156E+01  0.00000000000E+00 0.  1.
         12    1    3    3    0    0  0.48956708686E+01  0.26071334769E+02 -0.35282669069E+03  0.35382249187E+03  0.00000000000E+00 0. -1.
         11    1    5    5    0    0  0.67210560562E+02 -0.13718605431E+02  0.65589641685E+02  0.94907642908E+02  0.00000000000E+00 0. -1.
        -12    1    5    5    0    0 -0.76432745289E+01 -0.44892673519E+02  0.47429030525E+02  0.65751689847E+02  0.00000000000E+00 0.  1.
          5    1    4    4  501    0 -0.13948607736E+02  0.15684617933E+01 -0.14504765950E+03  0.14578518325E+03  0.41800000000E+01 0.  1.
         -5    1    4    4    0  501 -0.49615636181E+02  0.33945186459E+02 -0.16419505982E+01  0.60283956731E+02  0.41800000000E+01 0.  1.
</event>
<event>
11    1  0.9238666E-009  0.2197706E+03  0.7561462E-02  0.1041361E+00
         22   -1    0    0    0    0  0.00000000000E+00  0.00000000000E+00  0.52058239084E+03  0.52058239084E+03  0.00000000000E+00 0. -1.
         22   -1    0    0    0    0 -0.00000000000E+00 -0.00000000000E+00 -0.42173831283E+03  0.42173831283E+03  0.00000000000E+00 0. -1.
         24    2    1    2    0    0  0.91790687620E+02 -0.65183702109E+02 -0.31383279598E+03  0.34316860294E+03  0.81235588592E+02 0.  0.
         25    2    1    2    0    0 -0.49374187934E+02 -0.14592259506E+03  0.14825401204E+03  0.24771152840E+03  0.12510209844E+03 0.  0.
        -24    2    1    2    0    0 -0.42416499686E+02  0.21110629717E+03  0.26442286194E+03  0.35144057233E+03  0.85005869277E+02 0.  0.
        -11    1    3    3    0    0  0.63582456310E+02 -0.72122434996E+02 -0.16039466924E+03  0.18700487775E+03  0.00000000000E+00 0.  1.
         12    1    3    3    0    0  0.28208231310E+02  0.69387328871E+01 -0.15343812674E+03  0.15616372519E+03  0.00000000000E+00 0. -1.
         13    1    5    5    0    0 -0.23803787381E+02  0.20313269242E+03  0.25984728618E+03  0.33068130149E+03  0.00000000000E+00 0. -1.
        -14    1    5    5    0    0 -0.18612712305E+02  0.79736047492E+01  0.45755757635E+01  0.20759270835E+02  0.00000000000E+00 0.  1.
          5    1    4    4  501    0 -0.47667275512E+01  0.21190222838E+02  0.40609562667E+01  0.22488019060E+02  0.41800000000E+01 0. -1.
         -5    1    4    4    0  501 -0.44607460383E+02 -0.16711281789E+03  0.14419305578E+03  0.22522350934E+03  0.41800000000E+01 0. -1.
</event>
<event>
11    1  0.9238666E-009  0.1301960E+03  0.7561462E-02  0.1119028E+00
         22   -1    0    0    0    0  0.00000000000E+00  0.00000000000E+00  0.51870920605E+03  0.51870920605E+03  0.00000000000E+00 0. -1.
         22   -1    0    0    0    0 -0.00000000000E+00 -0.00000000000E+00 -0.90326716815E+02  0.90326716815E+02  0.00000000000E+00 0. -1.
         24    2    1    2    0    0 -0.32243916946E+02  0.83779164860E+01 -0.23588874697E+02  0.90053029206E+02  0.80269878503E+02 0.  0.
         25    2    1    2    0    0  0.43921217375E+02 -0.27100870291E+02  0.13555005881E+03  0.19153183517E+03  0.12508834851E+03 0.  0.
        -24    2    1    2    0    0 -0.11677300429E+02  0.18722953805E+02  0.31642130512E+03  0.32745105849E+03  0.81331697565E+02 0.  0.
        -11    1    3    3    0    0 -0.10028216855E+02 -0.34185924364E+02  0.19324619096E+01  0.35678802768E+02  0.00000000000E+00 0.  1.
         12    1    3    3    0    0 -0.22215700091E+02  0.42563840850E+02 -0.25521336606E+02  0.54374226437E+02  0.00000000000E+00 0. -1.
         13    1    5    5    0    0  0.25285967231E+01  0.36787180004E+02  0.29041196253E+03  0.29274357106E+03  0.00000000000E+00 0. -1.
        -14    1    5    5    0    0 -0.14205897152E+02 -0.18064226199E+02  0.26009342586E+02  0.34707487432E+02  0.00000000000E+00 0.  1.
          5    1    4    4  501    0  0.15374414836E+02 -0.87465256968E+00  0.14932884650E+03  0.15017894142E+03  0.41800000000E+01 0.  1.
         -5    1    4    4    0  501  0.28546802539E+02 -0.26226217722E+02 -0.13778787689E+02  0.41352893748E+02  0.41800000000E+01 0.  1.
</event>
<event>
11    1  0.9238666E-009  0.1303087E+03  0.7561462E-02  0.1118890E+00
         22   -1    0    0    0    0  0.00000000000E+00  0.00000000000E+00  0.58981484299E+03  0.58981484299E+03  0.00000000000E+00 0. -1.
         22   -1    0    0    0    0 -0.00000000000E+00 -0.00000000000E+00 -0.13861465373E+03  0.13861465373E+03  0.00000000000E+00 0.  1.
        -24    2    1    2    0    0  0.35960234781E+02  0.77689259429E+00 -0.87876333625E+02  0.12435598981E+03  0.80302055658E+02 0.  0.
         25    2    1    2    0    0 -0.39915743533E+02  0.26960924129E+02  0.13062161388E+03  0.18717798358E+03  0.12511368235E+03 0.  0.
         24    2    1    2    0    0  0.39555087526E+01 -0.27737816724E+02  0.40845490900E+03  0.41689552333E+03  0.78622084473E+02 0.  0.
        -11    1    5    5    0    0  0.37154632882E+02 -0.72895540942E+01  0.28298433586E+03  0.28550610972E+03  0.00000000000E+00 0.  1.
         12    1    5    5    0    0 -0.33199124130E+02 -0.20448262629E+02  0.12547057314E+03  0.13138941362E+03  0.00000000000E+00 0. -1.
         11    1    3    3    0    0  0.55636298487E+01  0.29293703269E+02 -0.32136488910E+01  0.29990041139E+02  0.00000000000E+00 0. -1.
        -12    1    3    3    0    0  0.30396604932E+02 -0.28516810675E+02 -0.84662684734E+02  0.94365948672E+02  0.00000000000E+00 0.  1.
          5    1    4    4  501    0  0.89468017783E+01 -0.40104123878E+02  0.13247545741E+02  0.43374599505E+02  0.41800000000E+01 0.  1.
         -5    1    4    4    0  501 -0.48862545312E+02  0.67065048007E+02  0.11737406814E+03  0.14380338407E+03  0.41800000000E+01 0.  1.
</event>
<event>
11    1  0.9238666E-009  0.1312053E+03  0.7561462E-02  0.1117797E+00
         22   -1    0    0    0    0  0.00000000000E+00  0.00000000000E+00  0.12136580047E+03  0.12136580047E+03  0.00000000000E+00 0. -1.
         22   -1    0    0    0    0 -0.00000000000E+00 -0.00000000000E+00 -0.11494012751E+04  0.11494012751E+04  0.00000000000E+00 0. -1.
        -24    2    1    2    0    0  0.35102798297E+02  0.25243184334E+02 -0.64116548322E+03  0.64772397005E+03  0.81140247060E+02 0.  0.
         25    2    1    2    0    0 -0.53624137511E+02  0.99838942065E+01 -0.47354939279E+03  0.49282069171E+03  0.12509188824E+03 0.  0.
         24    2    1    2    0    0  0.18521339214E+02 -0.35227078541E+02  0.86679401425E+02  0.13022241377E+03  0.88659863226E+02 0.  0.
        -11    1    5    5    0    0 -0.46002123462E+01  0.23232380473E+02  0.54878654724E+02  0.59770997987E+02  0.00000000000E+00 0.  1.
         12    1    5    5    0    0  0.23121551560E+02 -0.58459459014E+02  0.31800746701E+02  0.70451415781E+02  0.00000000000E+00 0. -1.
         13    1    3    3    0    0  0.42030358161E+02  0.48477935533E+02 -0.53452611650E+03  0.53836310280E+03  0.00000000000E+00 0. -1.
        -14    1    3    3    0    0 -0.69275598646E+01 -0.23234751199E+02 -0.10663936673E+03  0.10936086725E+03  0.00000000000E+00 0.  1.
          5    1    4    4  501    0 -0.93038596408E+02  0.13632221389E+02 -0.37267229522E+03  0.38437498605E+03  0.41800000000E+01 0. -1.
         -5    1    4    4    0  501  0.39414458898E+02 -0.36483271828E+01 -0.10087709757E+03  0.10844570566E+03  0.41800000000E+01 0. -1.
</event>
<event>
11    1  0.9238666E-009  0.1831208E+03  0.7561462E-02  0.1067146E+00
         22   -1    0    0    0    0  0.00000000000E+00  0.00000000000E+00  0.13504515216E+04  0.13504515216E+04  0.00000000000E+00 0.  1.
         22   -1    0    0    0    0 -0.00000000000E+00 -0.00000000000E+00 -0.52843289873E+03  0.52843289873E+03  0.00000000000E+00 0.  1.
        -24    2    1    2    0    0 -0.13011834427E+03 -0.44115866984E+02 -0.44993362539E+03  0.47737086618E+03  0.81028904637E+02 0.  0.
         25    2    1    2    0    0  0.75081746995E+02  0.91445831524E+02  0.56782875330E+02  0.18130727536E+03  0.12509366224E+03 0.  0.
         24    2    1    2    0    0  0.55036597279E+02 -0.47329964539E+02  0.12151693729E+04  0.12202062788E+04  0.83651690379E+02 0.  0.
        -11    1    5    5    0    0  0.18897550909E+02 -0.61519028042E+02  0.95384202843E+03  0.95601062936E+03  0.00000000000E+00 0.  1.
         12    1    5    5    0    0  0.36139046369E+02  0.14189063502E+02  0.26132734450E+03  0.26419564943E+03  0.00000000000E+00 0. -1.
         13    1    3    3    0    0 -0.11522136093E+02  0.10124577527E+02 -0.95149470859E+01  0.18049955908E+02  0.00000000000E+00 0. -1.
        -14    1    3    3    0    0 -0.11859620818E+03 -0.54240444511E+02 -0.44041867831E+03  0.45932091027E+03  0.00000000000E+00 0.  1.
          5    1    4    4  501    0 -0.18268263071E+02  0.67290695210E+02  0.10564921914E+01  0.69859542463E+02  0.41800000000E+01 0. -1.
         -5    1    4    4    0  501  0.93350010066E+02  0.24155136314E+02  0.55726383138E+02  0.11144773289E+03  0.41800000000E+01 0. -1.
</event>
<event>
11    1  0.9238666E-009  0.1581747E+03  0.7561462E-02  0.1088807E+00
         22   -1    0    0    0    0  0.00000000000E+00  0.00000000000E+00  0.89520908088E+03  0.89520908088E+03  0.00000000000E+00 0.  1.
         22   -1    0    0    0    0 -0.00000000000E+00 -0.00000000000E+00 -0.59695157908E+03  0.59695157908E+03  0.00000000000E+00 0.  1.
        -24    2    1    2    0    0 -0.88747673913E+02 -0.36836983308E+02 -0.48535935385E+03  0.50122457061E+03  0.80120252382E+02 0.  0.
         25    2    1    2    0    0  0.10524246092E+03  0.13326582031E+02 -0.35234017081E+02  0.16776133049E+03  0.12509538233E+03 0.  0.
         24    2    1    2    0    0 -0.16494787003E+02  0.23510401277E+02  0.81885087274E+03  0.82317475886E+03  0.79215622670E+02 0.  0.
        -11    1    5    5    0    0  0.18538955619E+02  0.39558905050E+02  0.52368493892E+03  0.52550405812E+03  0.00000000000E+00 0.  1.
         12    1    5    5    0    0 -0.35033742622E+02 -0.16048503773E+02  0.29516593382E+03  0.29767070075E+03  0.00000000000E+00 0. -1.
         11    1    3    3    0    0 -0.72916213711E+01 -0.41468119613E+02 -0.20265630975E+03  0.20698394278E+03  0.00000000000E+00 0. -1.
        -12    1    3    3    0    0 -0.81456052542E+02  0.46311363050E+01 -0.28270304410E+03  0.29424062783E+03  0.00000000000E+00 0.  1.
          5    1    4    4  501    0  0.92837740420E+02 -0.97774329662E+00 -0.77660987472E+02  0.12111359710E+03  0.41800000000E+01 0.  1.
         -5    1    4    4    0  501  0.12404720495E+02  0.14304325328E+02  0.42426970391E+02  0.46647733388E+02  0.41800000000E+01 0.  1.
</event>
<event>
11    1  0.9238666E-009  0.1726684E+03  0.7561462E-02  0.1075733E+00
         22   -1    0    0    0    0  0.00000000000E+00  0.00000000000E+00  0.81449741314E+03  0.81449741314E+03  0.00000000000E+00 0. -1.
         22   -1    0    0    0    0 -0.00000000000E+00 -0.00000000000E+00 -0.11210965446E+03  0.11210965446E+03  0.00000000000E+00 0. -1.
        -24    2    1    2    0    0 -0.47113173274E+02 -0.80858206756E+02 -0.26347161802E+02  0.12607830046E+03  0.80273683208E+02 0.  0.
         25    2    1    2    0    0  0.47169870336E+02 -0.76704125208E+02  0.31755321352E+03  0.35297933302E+03  0.12508335873E+03 0.  0.
         24    2    1    2    0    0 -0.56697061910E-01  0.15756233196E+03  0.41118170697E+03  0.44754943412E+03  0.80026296726E+02 0.  0.
        -11    1    5    5    0    0  0.45236249063E+01 -0.69220597120E+01  0.49632136547E+02  0.50316270442E+02  0.00000000000E+00 0.  1.
         12    1    5    5    0    0 -0.45803219683E+01  0.16448439168E+03  0.36154957042E+03  0.39723316368E+03  0.00000000000E+00 0. -1.
         13    1    3    3    0    0 -0.33355990150E+02 -0.62444462452E+02 -0.54781824749E+02  0.89515257318E+02  0.00000000000E+00 0. -1.
        -14    1    3    3    0    0 -0.13757183125E+02 -0.18413744304E+02  0.28434662947E+02  0.36563043141E+02  0.00000000000E+00 0.  1.
          5    1    4    4  501    0 -0.36848662608E+02 -0.72784945207E+01  0.13626960486E+03  0.14141314659E+03  0.41800000000E+01 0.  1.
         -5    1    4    4    0  501  0.84018532944E+02 -0.69425630687E+02  0.18128360866E+03  0.21156618643E+03  0.41800000000E+01 0.  1.
</event>
<event>
11    1  0.9238666E-009  0.1575514E+03  0.7561462E-02  0.1089403E+00
         22   -1    0    0    0    0  0.00000000000E+00  0.00000000000E+00  0.71204437771E+03  0.71204437771E+03  0.00000000000E+00 0.  1.
         22   -1    0    0    0    0 -0.00000000000E+00 -0.00000000000E+00 -0.18936860028E+04  0.18936860028E+04  0.00000000000E+00 0.  1.
        -24    2    1    2    0    0  0.46324600678E+02  0.78295899316E+00 -0.18003557191E+04  0.18028981547E+04  0.83752369021E+02 0.  0.
         25    2    1    2    0    0  0.51036718713E+02 -0.18173733730E+02 -0.31563677820E+02  0.13992451629E+03  0.12509026040E+03 0.  0.
         24    2    1    2    0    0 -0.97361319391E+02  0.17390774737E+02  0.65027777183E+03  0.66290770951E+03  0.82485060639E+02 0.  0.
        -13    1    5    5    0    0 -0.98810039337E+02 -0.11751550162E+02  0.51348626231E+03  0.52303887464E+03  0.00000000000E+00 0.  1.
         14    1    5    5    0    0  0.14487199464E+01  0.29142324899E+02  0.13679150953E+03  0.13986883487E+03  0.00000000000E+00 0. -1.
         11    1    3    3    0    0  0.15055967969E+02  0.14482407409E+02 -0.98079456164E+02  0.10027961915E+03  0.00000000000E+00 0. -1.
        -12    1    3    3    0    0  0.31268632709E+02 -0.13699448416E+02 -0.17022762629E+04  0.17026185355E+04  0.00000000000E+00 0.  1.
          5    1    4    4  501    0  0.46351324553E+02  0.16216809987E+02  0.37892181341E+02  0.62166872374E+02  0.41800000000E+01 0.  1.
         -5    1    4    4    0  501  0.46853941596E+01 -0.34390543717E+02 -0.69455859161E+02  0.77757643916E+02  0.41800000000E+01 0.  1.
</event>
<event>
11    1  0.9238666E-009  0.2455888E+03  0.7561462E-02  0.1026276E+00
         22   -1    0    0    0    0  0.00000000000E+00  0.00000000000E+00  0.26864234888E+04  0.26864234888E+04  0.00000000000E+00 0.  1.
         22   -1    0    0    0    0 -0.00000000000E+00 -0.00000000000E+00 -0.20394110472E+03  0.20394110472E+03  0.00000000000E+00 0.  1.
        -24    2    1    2    0    0 -0.89456012195E+02 -0.16469859443E+03 -0.86833563416E+02  0.22166472524E+03  0.80418763699E+02 0.  0.
         25    2    1    2    0    0 -0.22318068170E+02  0.33009775607E+03  0.67498931786E+03  0.76205046111E+03  0.12509077235E+03 0.  0.
         24    2    1    2    0    0  0.11177408036E+03 -0.16539916164E+03  0.18943266296E+04  0.19066494071E+04  0.83595779881E+02 0.  0.
        -13    1    5    5    0    0  0.69480256581E+02 -0.11311780955E+03  0.15592851566E+04  0.15649259869E+04  0.00000000000E+00 0.  1.
         14    1    5    5    0    0  0.42293823784E+02 -0.52281352085E+02  0.33504147297E+03  0.34172342021E+03  0.00000000000E+00 0. -1.
         11    1    3    3    0    0  0.14758715737E+02 -0.31476340642E+02 -0.16523410508E+02  0.38491593956E+02  0.00000000000E+00 0. -1.
        -12    1    3    3    0    0 -0.10421472793E+03 -0.13322225379E+03 -0.70310152908E+02  0.18317313128E+03  0.00000000000E+00 0.  1.
          5    1    4    4  501    0 -0.48085468702E+02  0.94945339116E+02  0.13098831189E+03  0.16882606426E+03  0.41800000000E+01 0. -1.
         -5    1    4    4    0  501  0.25767400532E+02  0.23515241695E+03  0.54400100597E+03  0.59322439686E+03  0.41800000000E+01 0. -1.
</event>
<event>
11    1  0.9238666E-009  0.1587051E+03  0.7561462E-02  0.1088302E+00
         22   -1    0    0    0    0  0.00000000000E+00  0.00000000000E+00  0.80318229949E+03  0.80318229949E+03  0.00000000000E+00 0.  1.
         22   -1    0    0    0    0 -0.00000000000E+00 -0.00000000000E+00 -0.30934310663E+03  0.30934310663E+03  0.00000000000E+00 0. -1.
         24    2    1    2    0    0  0.88601047322E+01 -0.79640441807E+02 -0.24016997151E+03  0.26655856139E+03  0.83371158142E+02 0.  0.
         25    2    1    2    0    0 -0.10420450700E+03  0.86469088281E+02  0.12182397097E+03  0.22096275190E+03  0.12509186751E+03 0.  0.
        -24    2    1    2    0    0  0.95344402271E+02 -0.68286464740E+01  0.61218519340E+03  0.62500409283E+03  0.81989143092E+02 0.  0.
        -11    1    3    3    0    0  0.11173866104E+02 -0.65807476188E+02 -0.73447597389E+02  0.99247311138E+02  0.00000000000E+00 0.  1.
         12    1    3    3    0    0 -0.23137613722E+01 -0.13832965619E+02 -0.16672237412E+03  0.16731125025E+03  0.00000000000E+00 0. -1.
         13    1    5    5    0    0  0.55188062341E+02 -0.11224744055E+02  0.13726728366E+03  0.14837123801E+03  0.00000000000E+00 0. -1.
        -14    1    5    5    0    0  0.40156339931E+02  0.43960975806E+01  0.47491790974E+03  0.47663285483E+03  0.00000000000E+00 0.  1.
          5    1    4    4  501    0 -0.10053720911E+03  0.11566338891E+03  0.91666391220E+02  0.17862236598E+03  0.41800000000E+01 0.  1.
         -5    1    4    4    0  501 -0.36672978893E+01 -0.29194300630E+02  0.30157579751E+02  0.42340385916E+02  0.41800000000E+01 0.  1.
</event>
<event>
11    1  0.9238666E-009  0.2271415E+03  0.7561462E-02  0.1036834E+00
         22   -1    0    0    0    0  0.00000000000E+00  0.00000000000E+00  0.31899729448E+03  0.31899729448E+03  0.00000000000E+00 0.  1.
         22   -1    0    0    0    0 -0.00000000000E+00 -0.00000000000E+00 -0.18180684308E+04  0.18180684308E+04  0.00000000000E+00 0.  1.
         24    2    1    2    0    0  0.11614440431E+03  0.15275781858E+03 -0.14651171449E+04  0.14797707588E+04  0.79553607992E+02 0.  0.
         25    2    1    2    0    0 -0.13794073659E+03 -0.11822663380E+03 -0.30231329664E+03  0.37423023058E+03  0.12509897042E+03 0.  0.
        -24    2    1    2    0    0  0.21796332278E+02 -0.34531184785E+02  0.26835930522E+03  0.28306473590E+03  0.80258614416E+02 0.  0.
        -13    1    3    3    0    0  0.36098036847E+02  0.98876785241E+02 -0.93871391691E+03  0.94459700651E+03  0.00000000000E+00 0.  1.
         14    1    3    3    0    0  0.80046367461E+02  0.53881033344E+02 -0.52640322796E+03  0.53517375225E+03  0.00000000000E+00 0. -1.
         13    1    5    5    0    0  0.25920301889E+02  0.19290294183E+02  0.63959923986E+02  0.71657863323E+02  0.00000000000E+00 0. -1.
        -14    1    5    5    0    0 -0.41239696118E+01 -0.53821478967E+02  0.20439938124E+03  0.21140687258E+03  0.00000000000E+00 0.  1.
          5    1    4    4  501    0  0.44468852070E+01 -0.69007759570E+02 -0.10820216144E+03  0.12847967080E+03  0.41800000000E+01 0.  1.
         -5    1    4    4    0  501 -0.14238762179E+03 -0.49218874230E+02 -0.19411113521E+03  0.24575055978E+03  0.41800000000E+01 0.  1.
</event>
<event>
11    1  0.9238666E-009  0.1382519E+03  0.7561462E-02  0.1109526E+00
         22   -1    0    0    0    0  0.00000000000E+00  0.00000000000E+00  0.31647620138E+04  0.31647620138E+04  0.00000000000E+00 0. -1.
         22   -1    0    0    0    0 -0.00000000000E+00 -0.00000000000E+00 -0.19199263655E+03  0.19199263655E+03  0.00000000000E+00 0. -1.
        -24    2    1    2    0    0  0.43452160342E+02  0.10442001393E+02 -0.14302894143E+03  0.17016536139E+03  0.80634028168E+02 0.  0.
         25    2    1    2    0    0  0.14026748103E+02  0.64491523127E+01  0.80319528284E+02  0.14945820195E+03  0.12509271073E+03 0.  0.
         24    2    1    2    0    0 -0.57478908445E+02 -0.16891153706E+02  0.30354787904E+04  0.30371310871E+04  0.80278370483E+02 0.  0.
        -13    1    5    5    0    0  0.10957079993E+02 -0.72522988872E+01  0.15401446538E+04  0.15402007038E+04  0.00000000000E+00 0.  1.
         14    1    5    5    0    0 -0.68435988437E+02 -0.96388548189E+01  0.14953341367E+04  0.14969303832E+04  0.00000000000E+00 0. -1.
         11    1    3    3    0    0  0.63526449856E+02  0.10577779238E+02 -0.13289605469E+03  0.14767823332E+03  0.00000000000E+00 0. -1.
        -12    1    3    3    0    0 -0.20074289514E+02 -0.13577784436E+00 -0.10132886744E+02  0.22487128071E+02  0.00000000000E+00 0.  1.
          5    1    4    4  501    0  0.54714410059E+02  0.56741378308E+01 -0.44377962120E+01  0.55344637893E+02  0.41800000000E+01 0.  1.
         -5    1    4    4    0  501 -0.40687661957E+02  0.77501448195E+00  0.84757324497E+02  0.94113564053E+02  0.41800000000E+01 0.  1.
</event>
<event>
11    1  0.9238666E-009  0.1937924E+03  0.7561462E-02  0.1059002E+00
         22   -1    0    0    0    0  0.00000000000E+00  0.00000000000E+00  0.39588023798E+04  0.39588023798E+04  0.00000000000E+00 0. -1.
         22   -1    0    0    0    0 -0.00000000000E+00 -0.00000000000E+00 -0.19346307478E+03  0.19346307478E+03  0.00000000000E+00 0.  1.
        -24    2    1    2    0    0 -0.27441699996E+02  0.15439426417E+02 -0.17001649421E+03  0.19109156769E+03  0.81356967457E+02 0.  0.
         25    2    1    2    0    0  0.11046171901E+03  0.10637539723E+03  0.91642025881E+03  0.93754501920E+03  0.12508819201E+03 0.  0.
         24    2    1    2    0    0 -0.83020019015E+02 -0.12181482365E+03  0.30189355404E+04  0.30236288677E+04  0.81415953516E+02 0.  0.
        -11    1    5    5    0    0 -0.27576395182E+02 -0.21440604815E+01  0.24437457947E+03  0.24593492972E+03  0.00000000000E+00 0.  1.
         12    1    5    5    0    0 -0.55443623833E+02 -0.11967076317E+03  0.27745609609E+04  0.27776939380E+04  0.00000000000E+00 0. -1.
         13    1    3    3    0    0 -0.74234065726E+01 -0.21116544123E+02 -0.79524242189E+01  0.23754082845E+02  0.00000000000E+00 0. -1.
        -14    1    3    3    0    0 -0.20018293423E+02  0.36555970540E+02 -0.16206406999E+03  0.16733748485E+03  0.00000000000E+00 0.  1.
          5    1    4    4  501    0  0.16099772233E+02  0.97384262604E+02  0.37075623551E+03  0.38369330961E+03  0.41800000000E+01 0.  1.
         -5    1    4    4    0  501  0.94361946778E+02  0.89911346308E+01  0.54566402330E+03  0.55385170960E+03  0.41800000000E+01 0.  1.
</event>
<event>
11    1  0.9238666E-009  0.1788639E+03  0.7561462E-02  0.1070565E+00
         22   -1    0    0    0    0  0.00000000000E+00  0.00000000000E+00  0.40968544827E+03  0.40968544827E+03  0.00000000000E+00 0.  1.
         22   -1    0    0    0    0 -0.00000000000E+00 -0.00000000000E+00 -0.33327357134E+04  0.33327357134E+04  0.00000000000E+00 0.  1.
        -24    2    1    2    0    0 -0.12512362240E+03 -0.65641614240E+02 -0.29170331261E+04  0.29215893190E+04  0.81468689032E+02 0.  0.
         25    2    1    2    0    0  0.15735501081E+02  0.73096293200E+02 -0.38884804265E+03  0.41526360694E+03  0.12510151439E+03 0.  0.
         24    2    1    2    0    0  0.10938812132E+03 -0.74546789601E+01  0.38283090369E+03  0.40556823574E+03  0.76842434217E+02 0.  0.
        -13    1    5    5    0    0  0.91788894920E+02  0.26344033760E+02  0.28528666911E+03  0.30084496492E+03  0.00000000000E+00 0.  1.
         14    1    5    5    0    0  0.17599226397E+02 -0.33798712720E+02  0.97544234580E+02  0.10472327082E+03  0.00000000000E+00 0. -1.
         11    1    3    3    0    0  0.79991195209E+01  0.18758551765E+01 -0.49776056097E+02  0.50449583807E+02  0.00000000000E+00 0. -1.
        -12    1    3    3    0    0 -0.13312274192E+03 -0.67517469416E+02 -0.28672570700E+04  0.28711397352E+04  0.00000000000E+00 0.  1.
          5    1    4    4  501    0  0.49959040037E+02  0.87708000348E+02 -0.21672892729E+03  0.23911817022E+03  0.41800000000E+01 0.  1.
         -5    1    4    4    0  501 -0.34223538956E+02 -0.14611707148E+02 -0.17211911536E+03  0.17614543672E+03  0.41800000000E+01 0.  1.
</event>
<event>
11    1  0.9238666E-009  0.2027438E+03  0.7561462E-02  0.1052600E+00
         22   -1    0    0    0    0  0.00000000000E+00  0.00000000000E+00  0.25052778947E+04  0.25052778947E+04  0.00000000000E+00 0. -1.
         22   -1    0    0    0    0 -0.00000000000E+00 -0.00000000000E+00 -0.28781312168E+04  0.28781312168E+04  0.00000000000E+00 0. -1.
        -24    2    1    2    0    0 -0.31764588226E+02  0.30131847331E+02 -0.28345211062E+04  0.28360184358E+04  0.81078661147E+02 0.  0.
         25    2    1    2    0    0 -0.67249054149E+02 -0.15479041280E+03  0.24131142158E+03  0.31993910599E+03  0.12508925684E+03 0.  0.
         24    2    1    2    0    0  0.99013642374E+02  0.12465856547E+03  0.22203563626E+04  0.22274515697E+04  0.78833107587E+02 0.  0.
        -13    1    5    5    0    0 -0.74889406436E+01  0.21721388679E+01  0.27160192859E+02  0.28257361790E+02  0.00000000000E+00 0.  1.
         14    1    5    5    0    0  0.10650258302E+03  0.12248642660E+03  0.21931961698E+04  0.21991942079E+04  0.00000000000E+00 0. -1.
         13    1    3    3    0    0 -0.41415849948E+02  0.52271402397E+02 -0.18514996645E+04  0.18527003481E+04  0.00000000000E+00 0. -1.
        -14    1    3    3    0    0  0.96512617219E+01 -0.22139555065E+02 -0.98302144171E+03  0.98331808771E+03  0.00000000000E+00 0.  1.
          5    1    4    4  501    0 -0.11275425433E+02 -0.13665919827E+03  0.21570735046E+03  0.25563647066E+03  0.41800000000E+01 0. -1.
         -5    1    4    4    0  501 -0.55973628715E+02 -0.18131214530E+02  0.25604071121E+02  0.64302635326E+02  0.41800000000E+01 0. -1.
</event>
<event>
11    1  0.9238666E-009  0.1496977E+03  0.7561462E-02  0.1097188E+00
         22   -1    0    0    0    0  0.00000000000E+00  0.00000000000E+00  0.31395452566E+03  0.31395452566E+03  0.00000000000E+00 0. -1.
         22   -1    0    0    0    0 -0.00000000000E+00 -0.00000000000E+00 -0.28430519793E+03  0.28430519793E+03  0.00000000000E+00 0. -1.
         24    2    1    2    0    0  0.33905447456E+02 -0.17410323654E+02 -0.18842147265E+03  0.20890268517E+03  0.81761737848E+02 0.  0.
         25    2    1    2    0    0 -0.17022210961E+01 -0.63633543676E+02 -0.57520594820E+00  0.14035068320E+03  0.12508340407E+03 0.  0.
        -24    2    1    2    0    0 -0.32203226360E+02  0.81043867329E+02  0.21864600633E+03  0.24900635522E+03  0.81196875788E+02 0.  0.
        -13    1    3    3    0    0 -0.16117307542E+02 -0.45496691586E+01 -0.37734260779E+01  0.17166998463E+02  0.00000000000E+00 0.  1.
         14    1    3    3    0    0  0.50022754998E+02 -0.12860654495E+02 -0.18464804658E+03  0.19173568670E+03  0.00000000000E+00 0. -1.
         13    1    5    5    0    0 -0.61826017045E+01  0.53050600206E+02  0.19898203344E+03  0.20602533916E+03  0.00000000000E+00 0. -1.
        -14    1    5    5    0    0 -0.26020624655E+02  0.27993267123E+02  0.19663972893E+02  0.42981016061E+02  0.00000000000E+00 0.  1.
          5    1    4    4  501    0  0.42506924942E+02 -0.11467911585E+02 -0.41419530038E+02  0.60592091338E+02  0.41800000000E+01 0.  1.
         -5    1    4    4    0  501 -0.44209146038E+02 -0.52165632090E+02  0.40844324090E+02  0.79758591858E+02  0.41800000000E+01 0.  1.
</event>
<event>
11    1  0.9238666E-009  0.1325615E+03  0.7561462E-02  0.1116161E+00
         22   -1    0    0    0    0  0.00000000000E+00  0.00000000000E+00  0.69047147407E+03  0.69047147407E+03  0.00000000000E+00 0. -1.
         22   -1    0    0    0    0 -0.00000000000E+00 -0.00000000000E+00 -0.10256418576E+04  0.10256418576E+04  0.00000000000E+00 0. -1.
         24    2    1    2    0    0  0.39178583986E+02 -0.19888402084E+02 -0.99086651732E+03  0.99524483915E+03  0.82251594066E+02 0.  0.
         25    2    1    2    0    0 -0.46416994756E+02 -0.57433289271E+01  0.12319170464E+03  0.18169208872E+03  0.12509314842E+03 0.  0.
        -24    2    1    2    0    0  0.72384107703E+01  0.25631731011E+02  0.53250442915E+03  0.53917640380E+03  0.80254888490E+02 0.  0.
        -11    1    3    3    0    0  0.98193538247E+01 -0.48860234312E+02 -0.43380661161E+03  0.43665995750E+03  0.00000000000E+00 0.  1.
         12    1    3    3    0    0  0.29359230161E+02  0.28971832228E+02 -0.55705990572E+03  0.55858488166E+03  0.00000000000E+00 0. -1.
         11    1    5    5    0    0  0.26353668167E+02  0.12678547485E+02  0.48943259636E+03  0.49030554532E+03  0.00000000000E+00 0. -1.
        -12    1    5    5    0    0 -0.19115257397E+02  0.12953183526E+02  0.43071832793E+02  0.48870858484E+02  0.00000000000E+00 0.  1.
          5    1    4    4  501    0 -0.51995830832E+02 -0.56851210289E+02  0.96688925042E+02  0.12370063525E+03  0.41800000000E+01 0.  1.
         -5    1    4    4    0  501  0.55788360757E+01  0.51107881362E+02  0.26502779595E+02  0.57991453470E+02  0.41800000000E+01 0.  1.
</event>
<event>
11    1  0.9238666E-009  0.1667897E+03  0.7561462E-02  0.1080860E+00
         22   -1    0    0    0    0  0.00000000000E+00  0.00000000000E+00  0.84391488313E+03  0.84391488313E+03  0.00000000000E+00 0. -1.
         22   -1    0    0    0    0 -0.00000000000E+00 -0.00000000000E+00 -0.64691418088E+03  0.64691418088E+03  0.00000000000E+00 0. -1.
         24    2    1    2    0    0  0.83045449658E+02  0.71317040729E+02 -0.59853863797E+03  0.61358562360E+03  0.79095823794E+02 0.  0.
         25    2    1    2    0    0 -0.14492340375E+03 -0.47059668141E+02  0.23211978580E+03  0.30453883961E+03  0.12508758752E+03 0.  0.
        -24    2    1    2    0    0  0.61877954096E+02 -0.24257372588E+02  0.56341955442E+03  0.57270460080E+03  0.78304943300E+02 0.  0.
        -13    1    3    3    0    0  0.44517013523E+01  0.53784146222E+02 -0.21335896850E+03  0.22007862565E+03  0.00000000000E+00 0.  1.
         14    1    3    3    0    0  0.78593748306E+02  0.17532894507E+02 -0.38517966947E+03  0.39350699795E+03  0.00000000000E+00 0. -1.
         13    1    5    5    0    0 -0.29894280963E+01  0.22434850353E+02  0.13765766828E+03  0.13950588815E+03  0.00000000000E+00 0. -1.
        -14    1    5    5    0    0  0.64867382193E+02 -0.46692222942E+02  0.42576188614E+03  0.43319871265E+03  0.00000000000E+00 0.  1.
          5    1    4    4  501    0 -0.38554142492E+02  0.37410952615E+02  0.32093904706E+02  0.62717560524E+02  0.41800000000E+01 0. -1.
         -5    1    4    4    0  501 -0.10636926126E+03 -0.84470620755E+02  0.20002588109E+03  0.24182127909E+03  0.41800000000E+01 0. -1.
</event>
<event>
11    1  0.9238666E-009  0.1348662E+03  0.7561462E-02  0.1113430E+00
         22   -1    0    0    0    0  0.00000000000E+00  0.00000000000E+00  0.12937661407E+03  0.12937661407E+03  0.00000000000E+00 0. -1.
         22   -1    0    0    0    0 -0.00000000000E+00 -0.00000000000E+00 -0.83400763129E+03  0.83400763129E+03  0.00000000000E+00 0.  1.
         24    2    1    2    0    0 -0.80961296961E+01 -0.26767597959E+02 -0.52627033244E+03  0.53312838890E+03  0.80519343239E+02 0.  0.
         25    2    1    2    0    0  0.21726531864E+02 -0.23436444824E+02 -0.26883961201E+03  0.29823390292E+03  0.12508962679E+03 0.  0.
        -24    2    1    2    0    0 -0.13630402168E+02  0.50204042782E+02  0.90478927229E+02  0.13202195353E+03  0.80852496361E+02 0.  0.
        -11    1    3    3    0    0 -0.21959000062E+02  0.19399165096E+02 -0.31825905347E+03  0.31960499121E+03  0.00000000000E+00 0.  1.
         12    1    3    3    0    0  0.13862870366E+02 -0.46166763054E+02 -0.20801127896E+03  0.21352339769E+03  0.00000000000E+00 0. -1.
         13    1    5    5    0    0 -0.59816259265E+01  0.44335699166E+02  0.10526123748E+03  0.11437378277E+03  0.00000000000E+00 0. -1.
        -14    1    5    5    0    0 -0.76487762417E+01  0.58683436164E+01 -0.14782310254E+02  0.17648170762E+02  0.00000000000E+00 0.  1.
          5    1    4    4  501    0 -0.21864721313E+02 -0.51193707096E+02 -0.22011862699E+03  0.22708708469E+03  0.41800000000E+01 0. -1.
         -5    1    4    4    0  501  0.43591253177E+02  0.27757262272E+02 -0.48720985016E+02  0.71146818224E+02  0.41800000000E+01 0. -1.
</event>
<event>
11    1  0.9238666E-009  0.2572427E+03  0.7561462E-02  0.1020110E+00
         22   -1    0    0    0    0  0.00000000000E+00  0.00000000000E+00  0.33219184390E+03  0.33219184390E+03  0.00000000000E+00 0.  1.
         22   -1    0    0    0    0 -0.00000000000E+00 -0.00000000000E+00 -0.53270845541E+03  0.53270845541E+03  0.00000000000E+00 0. -1.
        -24    2    1    2    0    0 -0.55649236694E+02  0.29048905706E+02 -0.21760005821E+03  0.24064025179E+03  0.81346597841E+02 0.  0.
         25    2    1    2    0    0 -0.15318900526E+03  0.81942897167E+02 -0.20049988639E+03  0.29330777182E+03  0.12509090628E+03 0.  0.
         24    2    1    2    0    0  0.20883824196E+03 -0.11099180287E+03  0.21758333310E+03  0.33095227570E+03  0.79084197785E+02 0.  0.
        -11    1    5    5    0    0  0.46912607131E+02 -0.65268500424E+02  0.82462338235E+02  0.11515557773E+03  0.00000000000E+00 0.  1.
         12    1    5    5    0    0  0.16192563483E+03 -0.45723302448E+02  0.13512099487E+03  0.21579669797E+03  0.00000000000E+00 0. -1.
         13    1    3    3    0    0 -0.24964179506E+02 -0.28244694147E+02 -0.75859617470E+02  0.84709235439E+02  0.00000000000E+00 0. -1.
        -14    1    3    3    0    0 -0.30685057188E+02  0.57293599853E+02 -0.14174044074E+03  0.15593101635E+03  0.00000000000E+00 0.  1.
          5    1    4    4  501    0 -0.73532724023E+01 -0.72567711817E+01 -0.87805570520E+02  0.88510010492E+02  0.41800000000E+01 0. -1.
         -5    1    4    4    0  501 -0.14583573286E+03  0.89199668348E+02 -0.11269431587E+03  0.20479776132E+03  0.41800000000E+01 0. -1.
</event>
<event>
11    1  0.9238666E-009  0.1497340E+03  0.7561462E-02  0.1097151E+00
         22   -1    0    0    0    0  0.00000000000E+00  0.00000000000E+00  0.18015437786E+03  0.18015437786E+03  0.00000000000E+00 0.  1.
         22   -1    0    0    0    0 -0.00000000000E+00 -0.00000000000E+00 -0.96101492727E+03  0.96101492727E+03  0.00000000000E+00 0. -1.
         24    2    1    2    0    0  0.14666904299E+02 -0.25717573515E+01 -0.69243116921E+03  0.69730591584E+03  0.80949886666E+02 0.  0.
         25    2    1    2    0    0 -0.87556049756E+02  0.38265094964E+02 -0.21931451689E+03  0.26995082017E+03  0.12507721076E+03 0.  0.
        -24    2    1    2    0    0  0.72889145457E+02 -0.35693337613E+02  0.13088513669E+03  0.17391256911E+03  0.80794930617E+02 0.  0.
        -11    1    3    3    0    0 -0.29929582525E+02  0.10519160171E+02 -0.18027259405E+03  0.18304272946E+03  0.00000000000E+00 0.  1.
         12    1    3    3    0    0  0.44596486824E+02 -0.13090917523E+02 -0.51215857516E+03  0.51426318638E+03  0.00000000000E+00 0. -1.
         13    1    5    5    0    0  0.27114846031E+02 -0.42602666545E+02  0.21032753316E+02  0.54704467679E+02  0.00000000000E+00 0. -1.
        -14    1    5    5    0    0  0.45774299426E+02  0.69093289326E+01  0.10985238337E+03  0.11920810143E+03  0.00000000000E+00 0.  1.
          5    1    4    4  501    0 -0.74956162058E+02  0.74455770860E+01 -0.36000165811E+02  0.83590353432E+02  0.41800000000E+01 0.  1.
         -5    1    4    4    0  501 -0.12599887698E+02  0.30819517878E+02 -0.18331435108E+03  0.18636046674E+03  0.41800000000E+01 0.  1.
</event>
<event>
11    1  0.9238666E-009  0.1765859E+03  0.7561462E-02  0.1072438E+00
         22   -1    0    0    0    0  0.00000000000E+00  0.00000000000E+00  0.20660793303E+04  0.20660793303E+04  0.00000000000E+00 0. -1.
         22   -1    0    0    0    0 -0.00000000000E+00 -0.00000000000E+00 -0.12385188256E+04  0.12385188256E+04  0.00000000000E+00 0.  1.
        -24    2    1    2    0    0 -0.27451607651E+02  0.12140832467E+03 -0.11857917234E+04  0.11949853329E+04  0.79964756941E+02 0.  0.
         25    2    1    2    0    0  0.12877111769E+03 -0.10673537504E+03  0.19203971775E+03  0.28372703042E+03  0.12508930236E+03 0.  0.
         24    2    1    2    0    0 -0.10131951004E+03 -0.14672949634E+02  0.18213125104E+04  0.18258857926E+04  0.78732005310E+02 0.  0.
        -11    1    5    5    0    0 -0.34671603417E+02  0.24955949233E+02  0.36148416540E+03  0.36399961720E+03  0.00000000000E+00 0.  1.
         12    1    5    5    0    0 -0.66647906625E+02 -0.39628898867E+02  0.14598283450E+04  0.14618861754E+04  0.00000000000E+00 0. -1.
         13    1    3    3    0    0 -0.28616671522E+02  0.28935062648E+02 -0.16231679037E+03  0.16734064711E+03  0.00000000000E+00 0. -1.
        -14    1    3    3    0    0  0.11650638713E+01  0.92473262024E+02 -0.10234749330E+04  0.10276446857E+04  0.00000000000E+00 0.  1.
          5    1    4    4  501    0  0.35997437669E+02 -0.11011654328E+03  0.10728053548E+03  0.15794953092E+03  0.41800000000E+01 0.  1.
         -5    1    4    4    0  501  0.92773680024E+02  0.33811682471E+01  0.84759182262E+02  0.12577749950E+03  0.41800000000E+01 0.  1.
</event>
<event>
11    1  0.9238666E-009  0.1421323E+03  0.7561462E-02  0.1105200E+00
         22   -1    0    0    0    0  0.00000000000E+00  0.00000000000E+00  0.38733410195E+03  0.38733410195E+03  0.00000000000E+00 0.  1.
         22   -1    0    0    0    0 -0.00000000000E+00 -0.00000000000E+00 -0.15047801877E+04  0.15047801877E+04  0.00000000000E+00 0.  1.
        -24    2    1    2    0    0  0.53723643734E+02 -0.42245064972E+02 -0.14542566534E+04  0.14580020781E+04  0.78973225762E+02 0.  0.
         25    2    1    2    0    0 -0.92514661583E+01  0.24063500953E+02  0.57638665485E+02  0.14012190321E+03  0.12508912940E+03 0.  0.
         24    2    1    2    0    0 -0.44472177576E+02  0.18181564019E+02  0.27917190216E+03  0.29399030834E+03  0.78644812857E+02 0.  0.
        -13    1    5    5    0    0 -0.11231119031E+02  0.45664706293E+02  0.11490562970E+03  0.12415597920E+03  0.00000000000E+00 0.  1.
         14    1    5    5    0    0 -0.33241058545E+02 -0.27483142274E+02  0.16426627247E+03  0.16983432913E+03  0.00000000000E+00 0. -1.
         13    1    3    3    0    0  0.71197293280E+02 -0.29928573015E+02 -0.89136473941E+03  0.89470434933E+03  0.00000000000E+00 0. -1.
        -14    1    3    3    0    0 -0.17473649546E+02 -0.12316491957E+02 -0.56289191400E+03  0.56329772878E+03  0.00000000000E+00 0.  1.
          5    1    4    4  501    0  0.25935082419E+02 -0.78563003248E+01  0.82075616614E+02  0.86534554933E+02  0.41800000000E+01 0.  1.
         -5    1    4    4    0  501 -0.35186548578E+02  0.31919801277E+02 -0.24436951129E+02  0.53587348273E+02  0.41800000000E+01 0.  1.
</event>
<event>
11    1  0.9238666E-009  0.1318291E+03  0.7561462E-02  0.1117042E+00
         22   -1    0    0    0    0  0.00000000000E+00  0.00000000000E+00  0.51828950947E+03  0.51828950947E+03  0.00000000000E+00 0.  1.
         22   -1    0    0    0    0 -0.00000000000E+00 -0.00000000000E+00 -0.14428821038E+03  0.14428821038E+03  0.00000000000E+00 0.  1.
         24    2    1    2    0    0 -0.15261348096E+02  0.43475290928E+02 -0.71371490454E+02  0.11729603033E+03  0.80879289163E+02 0.  0.
         25    2    1    2    0    0  0.42057321988E+02 -0.62535091430E+01  0.52967557983E+02  0.14231520882E+03  0.12506051236E+03 0.  0.
        -24    2    1    2    0    0 -0.26795973892E+02 -0.37221781785E+02  0.39240523156E+03  0.40296648070E+03  0.79351329910E+02 0.  0.
        -13    1    3    3    0    0 -0.17730783096E+02 -0.44731641031E+01 -0.66579990614E+02  0.69045528576E+02  0.00000000000E+00 0.  1.
         14    1    3    3    0    0  0.24694350003E+01  0.47948455031E+02 -0.47914998402E+01  0.48250501757E+02  0.00000000000E+00 0. -1.
         13    1    5    5    0    0 -0.48598339061E+02 -0.16983859370E+02  0.14677476080E+03  0.15554124998E+03  0.00000000000E+00 0. -1.
        -14    1    5    5    0    0  0.21802365169E+02 -0.20237922416E+02  0.24563047076E+03  0.24742523072E+03  0.00000000000E+00 0.  1.
          5    1    4    4  501    0  0.78529014586E+02 -0.30949420990E+02  0.49487381620E+02  0.97934397079E+02  0.41800000000E+01 0. -1.
         -5    1    4    4    0  501 -0.36471692598E+02  0.24695911847E+02  0.34801763627E+01  0.44380811737E+02  0.41800000000E+01 0. -1.
</event>
<event>
11    1  0.9238666E-009  0.1990241E+03  0.7561462E-02  0.1055216E+00
         22   -1    0    0    0    0  0.00000000000E+00  0.00000000000E+00  0.30018461263E+04  0.30018461263E+04  0.00000000000E+00 0. -1.
         22   -1    0    0    0    0 -0.00000000000E+00 -0.00000000000E+00 -0.10251013164E+03  0.10251013164E+03  0.00000000000E+00 0. -1.
         24    2    1    2    0    0  0.50879699987E+02  0.85022452790E+02 -0.42309924564E+02  0.13299934960E+03  0.77981638403E+02 0.  0.
         25    2    1    2    0    0  0.11013829017E+03 -0.11105500937E+03  0.94001101369E+03  0.96110973991E+03  0.12509024037E+03 0.  0.
        -24    2    1    2    0    0 -0.16101799016E+03  0.26032556575E+02  0.20016349056E+04  0.20102471685E+04  0.89145364192E+02 0.  0.
        -11    1    3    3    0    0 -0.50030008719E+01  0.20524022380E+02  0.18604520508E+02  0.28149488374E+02  0.00000000000E+00 0.  1.
         12    1    3    3    0    0  0.55882700859E+02  0.64498430410E+02 -0.60914445071E+02  0.10484986123E+03  0.00000000000E+00 0. -1.
         13    1    5    5    0    0 -0.12252873247E+03  0.54458930786E+02  0.16377639351E+04  0.16432436741E+04  0.00000000000E+00 0. -1.
        -14    1    5    5    0    0 -0.38489257687E+02 -0.28426374211E+02  0.36387097049E+03  0.36700349436E+03  0.00000000000E+00 0.  1.
          5    1    4    4  501    0 -0.12997244805E+02 -0.34546765605E+02  0.71506321900E+02  0.80579363723E+02  0.41800000000E+01 0. -1.
         -5    1    4    4    0  501  0.12313553498E+03 -0.76508243760E+02  0.86850469179E+03  0.88053037619E+03  0.41800000000E+01 0. -1.
</event>
<event>
11    1  0.9238666E-009  0.1518214E+03  0.7561462E-02  0.1095032E+00
         22   -1    0    0    0    0  0.00000000000E+00  0.00000000000E+00  0.92891402934E+03  0.92891402934E+03  0.00000000000E+00 0. -1.
         22   -1    0    0    0    0 -0.00000000000E+00 -0.00000000000E+00 -0.18202068223E+03  0.18202068223E+03  0.00000000000E+00 0.  1.
         24    2    1    2    0    0  0.55497719241E+02  0.61966786844E+02 -0.12825788772E+03  0.17254693494E+03  0.80015495249E+02 0.  0.
         25    2    1    2    0    0 -0.10289146728E+03 -0.70737334460E+02  0.24916757442E+03  0.30548764527E+03  0.12509115373E+03 0.  0.
        -24    2    1    2    0    0  0.47393748039E+02  0.87705476159E+01  0.62598366041E+03  0.63290013137E+03  0.79899582808E+02 0.  0.
        -11    1    3    3    0    0  0.63293379101E+02  0.72853353992E+02 -0.89799224800E+02  0.13182398796E+03  0.00000000000E+00 0.  1.
         12    1    3    3    0    0 -0.77956598595E+01 -0.10886567148E+02 -0.38458662924E+02  0.40722946981E+02  0.00000000000E+00 0. -1.
         11    1    5    5    0    0  0.24452886099E+02  0.40849070523E+02  0.45212290025E+03  0.45462259857E+03  0.00000000000E+00 0. -1.
        -12    1    5    5    0    0  0.22940861939E+02 -0.32078522907E+02  0.17386076016E+03  0.17827753280E+03  0.00000000000E+00 0.  1.
          5    1    4    4  501    0 -0.71540224686E+02  0.24986425312E+02  0.10395663688E+03  0.12871200390E+03  0.41800000000E+01 0. -1.
         -5    1    4    4    0  501 -0.31351242594E+02 -0.95723759772E+02  0.14521093754E+03  0.17677564136E+03  0.41800000000E+01 0. -1.
</event>
<event>
11    1  0.9238666E-009  0.1548494E+03  0.7561462E-02  0.1092024E+00
         22   -1    0    0    0    0  0.00000000000E+00  0.00000000000E+00  0.43206840161E+03  0.43206840161E+03  0.00000000000E+00 0. -1.
         22   -1    0    0    0    0 -0.00000000000E+00 -0.00000000000E+00 -0.11292762555E+04  0.11292762555E+04  0.00000000000E+00 0. -1.
        -24    2    1    2    0    0  0.80226194783E+02 -0.37534557207E+02 -0.10042963607E+04  0.10112835529E+04  0.78982017040E+02 0.  0.
         25    2    1    2    0    0 -0.14356934192E+03  0.82861385921E+02 -0.15554840618E+02  0.20825769962E+03  0.12510456094E+03 0.  0.
         24    2    1    2    0    0  0.63343147134E+02 -0.45326828714E+02  0.32264334740E+03  0.34180340458E+03  0.81633094218E+02 0.  0.
        -13    1    5    5    0    0 -0.44789843153E+01 -0.23279567163E+01 -0.33542580974E+01  0.60606707842E+01  0.00000000000E+00 0.  1.
         14    1    5    5    0    0  0.67822131449E+02 -0.42998871997E+02  0.32599760549E+03  0.33574273379E+03  0.00000000000E+00 0. -1.
         11    1    3    3    0    0  0.85349346959E+02 -0.46776443986E+02 -0.97957986966E+03  0.98440300070E+03  0.00000000000E+00 0. -1.
        -12    1    3    3    0    0 -0.51231521765E+01  0.92418867788E+01 -0.24716491028E+02  0.26880552230E+02  0.00000000000E+00 0.  1.
          5    1    4    4  501    0 -0.10813025376E+03  0.11371676724E+03 -0.28038051165E+02  0.15945927268E+03  0.41800000000E+01 0.  1.
         -5    1    4    4    0  501 -0.35439088152E+02 -0.30855381322E+02  0.12483210547E+02  0.48798426933E+02  0.41800000000E+01 0.  1.
</event>
<event>
11    1  0.9238666E-009  0.1477078E+03  0.7561462E-02  0.1099244E+00
         22   -1    0    0    0    0  0.00000000000E+00  0.00000000000E+00  0.31591158340E+03  0.31591158340E+03  0.00000000000E+00 0. -1.
         22   -1    0    0    0    0 -0.00000000000E+00 -0.00000000000E+00 -0.15274327948E+04  0.15274327948E+04  0.00000000000E+00 0.  1.
        -24    2    1    2    0    0  0.32491863074E+02  0.69471308136E+01 -0.13239369250E+04  0.13267767890E+04  0.80147880666E+02 0.  0.
         25    2    1    2    0    0  0.24923672898E+02 -0.62029291977E+02 -0.16461010102E+03  0.21728392016E+03  0.12508794533E+03 0.  0.
         24    2    1    2    0    0 -0.57415535972E+02  0.55082161163E+02  0.27702581458E+03  0.29928366904E+03  0.80602880580E+02 0.  0.
        -11    1    5    5    0    0 -0.46667294835E+02  0.42103109266E+02  0.80955434552E+02  0.10249044151E+03  0.00000000000E+00 0.  1.
         12    1    5    5    0    0 -0.10748241137E+02  0.12979051897E+02  0.19607038003E+03  0.19679322753E+03  0.00000000000E+00 0. -1.
         13    1    3    3    0    0  0.78696154144E+01  0.31173695926E+02 -0.22379902725E+03  0.22609673762E+03  0.00000000000E+00 0. -1.
        -14    1    3    3    0    0  0.24622247659E+02 -0.24226565112E+02 -0.11001378977E+04  0.11006800514E+04  0.00000000000E+00 0.  1.
          5    1    4    4  501    0 -0.17587958964E+02 -0.80311925237E+02 -0.14523154970E+03  0.16694016013E+03  0.41800000000E+01 0. -1.
         -5    1    4    4    0  501  0.42511631862E+02  0.18282633260E+02 -0.19378551318E+02  0.50343760027E+02  0.41800000000E+01 0. -1.
</event>
<event>
11    1  0.9238666E-009  0.1493268E+03  0.7561462E-02  0.1097569E+00
         22   -1    0    0    0    0  0.00000000000E+00  0.00000000000E+00  0.11222925712E+03  0.11222925712E+03  0.00000000000E+00 0.  1.
         22   -1    0    0    0    0 -0.00000000000E+00 -0.00000000000E+00 -0.22586255538E+04  0.22586255538E+04  0.00000000000E+00 0. -1.
         24    2    1    2    0    0 -0.46764231892E+02  0.65275933986E+02 -0.20505045034E+04  0.20536419409E+04  0.80178939215E+02 0.  0.
         25    2    1    2    0    0  0.11103868995E+03 -0.71289170455E+02 -0.10772709387E+03  0.21133896954E+03  0.12508915541E+03 0.  0.
        -24    2    1    2    0    0 -0.64274458062E+02  0.60132364685E+01  0.11835300537E+02  0.10587390047E+03  0.83077334391E+02 0.  0.
        -11    1    3    3    0    0 -0.60689241972E+02  0.22297606053E+02 -0.94139516137E+03  0.94361285344E+03  0.00000000000E+00 0.  1.
         12    1    3    3    0    0  0.13925010080E+02  0.42978327933E+02 -0.11091093420E+04  0.11100290875E+04  0.00000000000E+00 0. -1.
         11    1    5    5    0    0 -0.60129506881E+02 -0.30672457205E+02  0.13821840869E+02  0.68901382524E+02  0.00000000000E+00 0. -1.
        -12    1    5    5    0    0 -0.41449511811E+01  0.36685693674E+02 -0.19865403313E+01  0.36972517944E+02  0.00000000000E+00 0.  1.
          5    1    4    4  501    0  0.93943918818E+02 -0.28908804778E+02 -0.12777573710E+03  0.16126155856E+03  0.41800000000E+01 0.  1.
         -5    1    4    4    0  501  0.17094771136E+02 -0.42380365677E+02  0.20048643231E+02  0.50077410980E+02  0.41800000000E+01 0.  1.
</event>
<event>
11    1  0.9238666E-009  0.1442689E+03  0.7561462E-02  0.1102883E+00
         22   -1    0    0    0    0  0.00000000000E+00  0.00000000000E+00  0.54748684546E+03  0.54748684546E+03  0.00000000000E+00 0.  1.
         22   -1    0    0    0    0 -0.00000000000E+00 -0.00000000000E+00 -0.51218488099E+03  0.51218488099E+03  0.00000000000E+00 0. -1.
        -24    2    1    2    0    0  0.48184240766E+02 -0.53689596225E+02 -0.42811306947E+03  0.44178107538E+03  0.81764445302E+02 0.  0.
         25    2    1    2    0    0 -0.88633475600E+02  0.10256417430E+02  0.10522163887E+02  0.15400986515E+03  0.12508891053E+03 0.  0.
         24    2    1    2    0    0  0.40449234834E+02  0.43433178795E+02  0.45289287005E+03  0.46388078592E+03  0.80937322558E+02 0.  0.
        -11    1    5    5    0    0  0.44997745409E+02  0.25317781703E+02  0.43487374537E+03  0.43792803241E+03  0.00000000000E+00 0.  1.
         12    1    5    5    0    0 -0.45485105752E+01  0.18115397092E+02  0.18019124685E+02  0.25952753509E+02  0.00000000000E+00 0. -1.
         11    1    3    3    0    0  0.13850163306E+01 -0.54846388430E+02 -0.30836688857E+03  0.31320948670E+03  0.00000000000E+00 0. -1.
        -12    1    3    3    0    0  0.46799224435E+02  0.11567922056E+01 -0.11974618090E+03  0.12857158868E+03  0.00000000000E+00 0.  1.
          5    1    4    4  501    0 -0.15623743447E+01  0.51581437263E+02 -0.15584982791E+02  0.54068935372E+02  0.41800000000E+01 0. -1.
         -5    1    4    4    0  501 -0.87071101255E+02 -0.41325019833E+02  0.26107146678E+02  0.99940929782E+02  0.41800000000E+01 0. -1.
</event>
<event>
11    1  0.9238666E-009  0.1491653E+03  0.7561462E-02  0.1097735E+00
         22   -1    0    0    0    0  0.00000000000E+00  0.00000000000E+00  0.30496442404E+03  0.30496442404E+03  0.00000000000E+00 0. -1.
         22   -1    0    0    0    0 -0.00000000000E+00 -0.00000000000E+00 -0.36669168739E+04  0.36669168739E+04  0.00000000000E+00 0. -1.
        -24    2    1    2    0    0  0.81228443104E+01  0.80717330588E+02 -0.35990586328E+04  0.36008424755E+04  0.79134206744E+02 0.  0.
         25    2    1    2    0    0 -0.73209186426E+02 -0.98715315214E+02  0.11665396062E+03  0.21061778226E+03  0.12508958887E+03 0.  0.
         24    2    1    2    0    0  0.65086342116E+02  0.17997984626E+02  0.12045222235E+03  0.16042104019E+03  0.81645654423E+02 0.  0.
        -13    1    5    5    0    0  0.64717348865E+01  0.31450578899E+02  0.83040267336E+01  0.33165933207E+02  0.00000000000E+00 0.  1.
         14    1    5    5    0    0  0.58614607229E+02 -0.13452594273E+02  0.11214819561E+03  0.12725510698E+03  0.00000000000E+00 0. -1.
         11    1    3    3    0    0 -0.35065712055E+01  0.61138429030E+02 -0.33889719191E+04  0.33895251691E+04  0.00000000000E+00 0. -1.
        -12    1    3    3    0    0  0.11629415516E+02  0.19578901557E+02 -0.21008671373E+03  0.21131730639E+03  0.00000000000E+00 0.  1.
          5    1    4    4  501    0 -0.15860748194E+02 -0.38889391402E+02  0.12037065917E+03  0.12755593317E+03  0.41800000000E+01 0.  1.
         -5    1    4    4    0  501 -0.57348438232E+02 -0.59825923812E+02 -0.37166985492E+01  0.83061849098E+02  0.41800000000E+01 0.  1.
</event>
<event>
11    1  0.9238666E-009  0.1874330E+03  0.7561462E-02  0.1063784E+00
         22   -1    0    0    0    0  0.00000000000E+00  0.00000000000E+00  0.37669520748E+03  0.37669520748E+03  0.00000000000E+00 0.  1.
         22   -1    0    0    0    0 -0.00000000000E+00 -0.00000000000E+00 -0.62056041953E+03  0.62056041953E+03  0.00000000000E+00 0. -1.
        -24    2    1    2    0    0 -0.14144713388E+03  0.42195269151E+02 -0.50251000870E+03  0.52936526626E+03  0.76964562319E+02 0.  0.
         25    2    1    2    0    0  0.80441755782E+02 -0.68015790609E+02 -0.24842052232E+02  0.16541840323E+03  0.12509634976E+03 0.  0.
         24    2    1    2    0    0  0.61005378101E+02  0.25820521457E+02  0.28348684888E+03  0.30247195751E+03  0.82073967297E+02 0.  0.
        -13    1    5    5    0    0  0.31894103263E+02  0.42137419731E+02  0.24875067918E+03  0.25430237191E+03  0.00000000000E+00 0.  1.
         14    1    5    5    0    0  0.29111274839E+02 -0.16316898274E+02  0.34736169698E+02  0.48169585604E+02  0.00000000000E+00 0. -1.
         11    1    3    3    0    0 -0.64721302719E+02  0.56034746550E+02 -0.31168771276E+03  0.32323052166E+03  0.00000000000E+00 0. -1.
        -12    1    3    3    0    0 -0.76725831165E+02 -0.13839477399E+02 -0.19082229595E+03  0.20613474460E+03  0.00000000000E+00 0.  1.
          5    1    4    4  501    0  0.26737570468E+02 -0.95022877347E+02 -0.33959695188E+02  0.10447477299E+03  0.41800000000E+01 0. -1.
         -5    1    4    4    0  501  0.53704185314E+02  0.27007086739E+02  0.91176429558E+01  0.60943630245E+02  0.41800000000E+01 0. -1.
</event>
<event>
11    1  0.9238666E-009  0.1419015E+03  0.7561462E-02  0.1105453E+00
         22   -1    0    0    0    0  0.00000000000E+00  0.00000000000E+00  0.33120099442E+03  0.33120099442E+03  0.00000000000E+00 0. -1.
         22   -1    0    0    0    0 -0.00000000000E+00 -0.00000000000E+00 -0.58109558289E+03  0.58109558289E+03  0.00000000000E+00 0. -1.
         24    2    1    2    0    0 -0.62427470868E+02 -0.65390537517E+01 -0.47454007750E+03  0.48655551597E+03  0.87224059923E+02 0.  0.
         25    2    1    2    0    0 -0.83578006325E+01 -0.13114498847E+02 -0.46014788399E+02  0.13416991397E+03  0.12506942932E+03 0.  0.
        -24    2    1    2    0    0  0.70785271500E+02  0.19653552599E+02  0.27066027742E+03  0.29157114738E+03  0.79749178162E+02 0.  0.
        -13    1    3    3    0    0 -0.41392728750E+02 -0.20597996421E+02 -0.89973936013E+02  0.10115801803E+03  0.00000000000E+00 0.  1.
         14    1    3    3    0    0 -0.21034742118E+02  0.14058942669E+02 -0.38456614148E+03  0.38539749794E+03  0.00000000000E+00 0. -1.
         11    1    5    5    0    0  0.49639803942E+02  0.50518071867E+02  0.18517132241E+03  0.19825388864E+03  0.00000000000E+00 0. -1.
        -12    1    5    5    0    0  0.21145467558E+02 -0.30864519268E+02  0.85488955013E+02  0.93317258732E+02  0.00000000000E+00 0.  1.
          5    1    4    4  501    0 -0.33161839117E+02 -0.46781189438E+02  0.15612701841E+02  0.59576976406E+02  0.41800000000E+01 0.  1.
         -5    1    4    4    0  501  0.24804038484E+02  0.33666690591E+02 -0.61627490240E+02  0.74592937560E+02  0.41800000000E+01 0.  1.
</event>
<event>
11    1  0.9238666E-009  0.1922514E+03  0.7561462E-02  0.1060142E+00
         22   -1    0    0    0    0  0.00000000000E+00  0.00000000000E+00  0.57512607828E+03  0.57512607828E+03  0.00000000000E+00 0. -1.
         22   -1    0    0    0    0 -0.00000000000E+00 -0.00000000000E+00 -0.63279481405E+03  0.63279481405E+03  0.00000000000E+00 0.  1.
         24    2    1    2    0    0  0.13551322474E+02  0.93794914949E+01 -0.31018335136E+03  0.32081527429E+03  0.80231636880E+02 0.  0.
         25    2    1    2    0    0  0.13143402789E+03  0.12273325602E+02 -0.27716286262E+03  0.33150036274E+03  0.12509076654E+03 0.  0.
        -24    2    1    2    0    0 -0.14498535036E+03 -0.21652817097E+02  0.52967747821E+03  0.55560525530E+03  0.81543684463E+02 0.  0.
        -13    1    3    3    0    0  0.24872996808E+00  0.25500549781E+02 -0.29200097952E+03  0.29311245614E+03  0.00000000000E+00 0.  1.
         14    1    3    3    0    0  0.13302592506E+02 -0.16121058286E+02 -0.18182371840E+02  0.27702818148E+02  0.00000000000E+00 0. -1.
         11    1    5    5    0    0 -0.94464380097E+02 -0.22690224674E+01  0.44640180622E+03  0.45629293241E+03  0.00000000000E+00 0. -1.
        -12    1    5    5    0    0 -0.50520970268E+02 -0.19383794629E+02  0.83275671997E+02  0.99312322889E+02  0.00000000000E+00 0.  1.
          5    1    4    4  501    0  0.44669748467E+02 -0.54640204716E+02 -0.88314194950E+02  0.11312739646E+03  0.41800000000E+01 0. -1.
         -5    1    4    4    0  501  0.86764279423E+02  0.66913530318E+02 -0.18884866767E+03  0.21837296628E+03  0.41800000000E+01 0. -1.
</event>
<event>
11    1  0.9238666E-009  0.2715070E+03  0.7561462E-02  0.1013027E+00
         22   -1    0    0    0    0  0.00000000000E+00  0.00000000000E+00  0.42298221211E+03  0.42298221211E+03  0.00000000000E+00 0.  1.
         22   -1    0    0    0    0 -0.00000000000E+00 -0.00000000000E+00 -0.38999673624E+03  0.38999673624E+03  0.00000000000E+00 0. -1.
        -24    2    1    2    0    0 -0.15258635660E+02  0.67599099090E+02 -0.19919145875E+03  0.22367714195E+03  0.74510149852E+02 0.  0.
         25    2    1    2    0    0  0.16917549626E+03  0.13849388864E+03  0.32276488669E+02  0.25394845097E+03  0.12508852187E+03 0.  0.
         24    2    1    2    0    0 -0.15391686060E+03 -0.20609298773E+03  0.19990044595E+03  0.33535335543E+03  0.79605057266E+02 0.  0.
        -13    1    5    5    0    0 -0.52412192808E+02 -0.37185343333E+02  0.16953763104E+02  0.66462153118E+02  0.00000000000E+00 0.  1.
         14    1    5    5    0    0 -0.10150466779E+03 -0.16890764440E+03  0.18294668284E+03  0.26889120232E+03  0.00000000000E+00 0. -1.
         11    1    3    3    0    0 -0.79577747253E+01  0.83448844621E+02 -0.15605287213E+03  0.17714269601E+03  0.00000000000E+00 0. -1.
        -12    1    3    3    0    0 -0.73008609351E+01 -0.15849745532E+02 -0.43138586619E+02  0.46534445943E+02  0.00000000000E+00 0.  1.
          5    1    4    4  501    0  0.13538273812E+03  0.13948406736E+03  0.66670703088E+02  0.20554013204E+03  0.41800000000E+01 0. -1.
         -5    1    4    4    0  501  0.33792758134E+02 -0.99017871307E+00 -0.34394214420E+02  0.48408318931E+02  0.41800000000E+01 0. -1.
</event>
<event>
11    1  0.9238666E-009  0.1597007E+03  0.7561462E-02  0.1087359E+00
         22   -1    0    0    0    0  0.00000000000E+00  0.00000000000E+00  0.43240757405E+03  0.43240757405E+03  0.00000000000E+00 0. -1.
         22   -1    0    0    0    0 -0.00000000000E+00 -0.00000000000E+00 -0.10037639622E+04  0.10037639622E+04  0.00000000000E+00 0. -1.
         24    2    1    2    0    0  0.25482605079E+02  0.55412841177E+02 -0.83289802482E+03  0.83910455300E+03  0.81592799875E+02 0.  0.
         25    2    1    2    0    0 -0.95213394241E+02  0.17154455330E+02 -0.11721619463E+03  0.19684348606E+03  0.12509139035E+03 0.  0.
        -24    2    1    2    0    0  0.69730789161E+02 -0.72567296507E+02  0.37875783127E+03  0.40022349721E+03  0.81197028817E+02 0.  0.
        -13    1    3    3    0    0 -0.25023625111E+01 -0.20314143287E+02 -0.13299678284E+03  0.13456251514E+03  0.00000000000E+00 0.  1.
         14    1    3    3    0    0  0.27984967591E+02  0.75726984464E+02 -0.69990124198E+03  0.70454203786E+03  0.00000000000E+00 0. -1.
         13    1    5    5    0    0  0.73986198388E+02 -0.58793125775E+02  0.37285627584E+03  0.38464580022E+03  0.00000000000E+00 0. -1.
        -14    1    5    5    0    0 -0.42554092267E+01 -0.13774170732E+02  0.59015554295E+01  0.15577696990E+02  0.00000000000E+00 0.  1.
          5    1    4    4  501    0 -0.49928262599E+02 -0.36822995348E+02 -0.25943995263E+01  0.62233172034E+02  0.41800000000E+01 0. -1.
         -5    1    4    4    0  501 -0.45285131642E+02  0.53977450679E+02 -0.11462179510E+03  0.13461031403E+03  0.41800000000E+01 0. -1.
</event>
<event>
11    1  0.9238666E-009  0.1700076E+03  0.7561462E-02  0.1078025E+00
         22   -1    0    0    0    0  0.00000000000E+00  0.00000000000E+00  0.13959251075E+04  0.13959251075E+04  0.00000000000E+00 0.  1.
         22   -1    0    0    0    0 -0.00000000000E+00 -0.00000000000E+00 -0.95728605629E+03  0.95728605629E+03  0.00000000000E+00 0. -1.
        -24    2    1    2    0    0 -0.11102172798E+03  0.26095801985E+02 -0.88370686657E+03  0.89445357668E+03  0.78118882778E+02 0.  0.
         25    2    1    2    0    0  0.15318548451E+03  0.19165564784E+02  0.83097246689E+02  0.21537439799E+03  0.12509143602E+03 0.  0.
         24    2    1    2    0    0 -0.42163756536E+02 -0.45261366768E+02  0.12392486711E+04  0.12433831891E+04  0.80237849457E+02 0.  0.
        -13    1    5    5    0    0 -0.10111442293E+02 -0.13160858681E+02  0.98366865126E+03  0.98380865261E+03  0.00000000000E+00 0.  1.
         14    1    5    5    0    0 -0.32052314243E+02 -0.32100508088E+02  0.25558001979E+03  0.25957453647E+03  0.00000000000E+00 0. -1.
         13    1    3    3    0    0 -0.90330515941E+02  0.44953355456E+02 -0.79645144980E+03  0.80281711377E+03  0.00000000000E+00 0. -1.
        -14    1    3    3    0    0 -0.20691212034E+02 -0.18857553471E+02 -0.87255416772E+02  0.91636462909E+02  0.00000000000E+00 0.  1.
          5    1    4    4  501    0  0.12533091212E+02  0.52453852465E+02  0.23471215953E+02  0.58964865743E+02  0.41800000000E+01 0.  1.
         -5    1    4    4    0  501  0.14065239330E+03 -0.33288287682E+02  0.59626030736E+02  0.15640953225E+03  0.41800000000E+01 0.  1.
</event>
<event>
11    1  0.9238666E-009  0.2065752E+03  0.7561462E-02  0.1049969E+00
         22   -1    0    0    0    0  0.00000000000E+00  0.00000000000E+00  0.10411319351E+04  0.10411319351E+04  0.00000000000E+00 0. -1.
         22   -1    0    0    0    0 -0.00000000000E+00 -0.00000000000E+00 -0.73697130390E+02  0.73697130390E+02  0.00000000000E+00 0. -1.
        -24    2    1    2    0    0  0.22736821297E+02 -0.21634021504E+02  0.24017908344E+02  0.90110070251E+02  0.80981299757E+02 0.  0.
         25    2    1    2    0    0  0.98962967812E+02 -0.10521426136E+03  0.32666750073E+03  0.37844463708E+03  0.12507988454E+03 0.  0.
         24    2    1    2    0    0 -0.12169978911E+03  0.12684828286E+03  0.61674939565E+03  0.64627435817E+03  0.79933744153E+02 0.  0.
        -11    1    5    5    0    0 -0.93997252527E+02  0.41472798190E+02  0.35466240263E+03  0.36924368148E+03  0.00000000000E+00 0.  1.
         12    1    5    5    0    0 -0.27702536582E+02  0.85375484671E+02  0.26208699302E+03  0.27703067669E+03  0.00000000000E+00 0. -1.
         11    1    3    3    0    0 -0.34585272479E+00  0.18171924929E+02 -0.19584319161E+02  0.26718608248E+02  0.00000000000E+00 0. -1.
        -12    1    3    3    0    0  0.23082674022E+02 -0.39805946433E+02  0.43602227505E+02  0.63391462003E+02  0.00000000000E+00 0.  1.
          5    1    4    4  501    0  0.46731302592E+02 -0.52935145666E+02  0.28470182611E+03  0.29335736991E+03  0.41800000000E+01 0. -1.
         -5    1    4    4    0  501  0.52231665220E+02 -0.52279115691E+02  0.41965674611E+02  0.85087267171E+02  0.41800000000E+01 0. -1.
</event>
<event>
11    1  0.1279529E-008  0.2269309E+03  0.7561462E-02  0.1036961E+00
         22   -1    0    0    0    0  0.00000000000E+00  0.00000000000E+00  0.22615829641E+04  0.22615829641E+04  0.00000000000E+00 0. -1.
         22   -1    0    0    0    0 -0.00000000000E+00 -0.00000000000E+00 -0.13771544163E+04  0.13771544163E+04  0.00000000000E+00 0. -1.
         24    2    1    2    0    0  0.31365978924E+02  0.23814026753E+02 -0.62931483607E+03  0.63556472749E+03  0.79714662543E+02 0.  0.
         25    2    1    2    0    0 -0.17995754037E+03 -0.14071348430E+03 -0.71650248388E+03  0.76236992691E+03  0.12508834895E+03 0.  0.
        -24    2    1    2    0    0  0.14859156144E+03  0.11689945754E+03  0.22302458678E+04  0.22408027260E+04  0.10702939268E+03 0.  0.
        -11    1    3    3    0    0 -0.99100634497E+00 -0.27891924425E+02 -0.19391922234E+03  0.19591734567E+03  0.00000000000E+00 0.  1.
         12    1    3    3    0    0  0.32356985269E+02  0.51705951178E+02 -0.43539561373E+03  0.43964738182E+03  0.00000000000E+00 0. -1.
         11    1    5    5    0    0  0.36842995283E+01  0.78004860406E+01  0.66898109373E+03  0.66903671455E+03  0.00000000000E+00 0. -1.
        -12    1    5    5    0    0  0.14490726192E+03  0.10909897150E+03  0.15612647740E+04  0.15717660115E+04  0.00000000000E+00 0.  1.
          5    1    4    4  501    0 -0.42261747611E+02 -0.56916714948E+02 -0.85770686622E+02  0.11135371945E+03  0.41800000000E+01 0. -1.
         -5    1    4    4    0  501 -0.13769579276E+03 -0.83796769349E+02 -0.63073179726E+03  0.65101620746E+03  0.41800000000E+01 0. -1.
</event>
<event>
11    1  0.9238666E-009  0.1623158E+03  0.7561462E-02  0.1084919E+00
         22   -1    0    0    0    0  0.00000000000E+00  0.00000000000E+00  0.45861514650E+03  0.45861514650E+03  0.00000000000E+00 0. -1.
         22   -1    0    0    0    0 -0.00000000000E+00 -0.00000000000E+00 -0.21875198776E+04  0.21875198776E+04  0.00000000000E+00 0.  1.
         24    2    1    2    0    0 -0.39293400595E+01  0.12034397603E+02 -0.12833171836E+04  0.12859883652E+04  0.81870722957E+02 0.  0.
         25    2    1    2    0    0  0.10628848714E+03  0.27024910988E+01 -0.88541030467E+03  0.90050143442E+03  0.12508748867E+03 0.  0.
        -24    2    1    2    0    0 -0.10235914708E+03 -0.14736888702E+02  0.43982275720E+03  0.45964522444E+03  0.84469543150E+02 0.  0.
        -13    1    3    3    0    0  0.17358355922E+02 -0.19427476229E+02 -0.97385375273E+03  0.97420217155E+03  0.00000000000E+00 0.  1.
         14    1    3    3    0    0 -0.21287695981E+02  0.31461873832E+02 -0.30946343088E+03  0.31178619366E+03  0.00000000000E+00 0. -1.
         13    1    5    5    0    0 -0.11174050613E+03 -0.25084342608E+02  0.42041716743E+03  0.43573588287E+03  0.00000000000E+00 0. -1.
        -14    1    5    5    0    0  0.93813590450E+01  0.10347453906E+02  0.19405589773E+02  0.23909341570E+02  0.00000000000E+00 0.  1.
          5    1    4    4  501    0 -0.92191797038E+01  0.38150979787E+01 -0.44634364480E+03  0.44647471361E+03  0.41800000000E+01 0. -1.
         -5    1    4    4    0  501  0.11550766684E+03 -0.11126068799E+01 -0.43906665988E+03  0.45402672081E+03  0.41800000000E+01 0. -1.
</event>
<event>
11    1  0.9238666E-009  0.1349390E+03  0.7561462E-02  0.1113345E+00
         22   -1    0    0    0    0  0.00000000000E+00  0.00000000000E+00  0.12915679686E+04  0.12915679686E+04  0.00000000000E+00 0.  1.
         22   -1    0    0    0    0 -0.00000000000E+00 -0.00000000000E+00 -0.10063138694E+04  0.10063138694E+04  0.00000000000E+00 0. -1.
         24    2    1    2    0    0  0.11005173292E+02 -0.28546254376E+02 -0.99188784673E+03  0.99557850444E+03  0.79994096876E+02 0.  0.
         25    2    1    2    0    0 -0.44815365609E+02 -0.12849065460E+02  0.43681254051E+03  0.45675602829E+03  0.12508940146E+03 0.  0.
        -24    2    1    2    0    0  0.33810192317E+02  0.41395319837E+02  0.84032940548E+03  0.84554730527E+03  0.77071616860E+02 0.  0.
        -11    1    3    3    0    0 -0.15495628549E+02  0.40705384506E+01 -0.45149096165E+02  0.47907459460E+02  0.00000000000E+00 0.  1.
         12    1    3    3    0    0  0.26500801841E+02 -0.32616792827E+02 -0.94673875057E+03  0.94767104498E+03  0.00000000000E+00 0. -1.
         13    1    5    5    0    0 -0.24582323932E+02  0.13763094753E+02  0.20151738129E+03  0.20347719378E+03  0.00000000000E+00 0. -1.
        -14    1    5    5    0    0  0.58392516249E+02  0.27632225083E+02  0.63881202420E+03  0.64207011150E+03  0.00000000000E+00 0.  1.
          5    1    4    4  501    0 -0.69415447058E+01 -0.61014758084E+02  0.12971111860E+03  0.14357378743E+03  0.41800000000E+01 0. -1.
         -5    1    4    4    0  501 -0.37873820903E+02  0.48165692624E+02  0.30710142191E+03  0.31318224086E+03  0.41800000000E+01 0. -1.
</event>
<event>
11    1  0.9238666E-009  0.1324149E+03  0.7561462E-02  0.1116337E+00
         22   -1    0    0    0    0  0.00000000000E+00  0.00000000000E+00  0.89944235958E+02  0.89944235958E+02  0.00000000000E+00 0.  1.
         22   -1    0    0    0    0 -0.00000000000E+00 -0.00000000000E+00 -0.15666035681E+04  0.15666035681E+04  0.00000000000E+00 0.  1.
        -24    2    1    2    0    0  0.39504364896E+02  0.23997215255E+02 -0.13605251946E+04  0.13638984386E+04  0.83986215274E+02 0.  0.
         25    2    1    2    0    0  0.86779324036E+01 -0.21795608206E+02 -0.14672089948E+03  0.19422615470E+03  0.12508565775E+03 0.  0.
         24    2    1    2    0    0 -0.48182297299E+02 -0.22016070487E+01  0.30586761936E+02  0.98423210817E+02  0.80157330140E+02 0.  0.
        -13    1    5    5    0    0 -0.18592622018E+02 -0.40304890255E+02  0.21548124210E+02  0.49340565755E+02  0.00000000000E+00 0.  1.
         14    1    5    5    0    0 -0.29589675281E+02  0.38103283207E+02  0.90386377258E+01  0.49082645062E+02  0.00000000000E+00 0. -1.
         13    1    3    3    0    0  0.63848527439E+02  0.29235309026E+02 -0.92484264674E+03  0.92750485658E+03  0.00000000000E+00 0. -1.
        -14    1    3    3    0    0 -0.24344162544E+02 -0.52380937713E+01 -0.43568254786E+03  0.43639358197E+03  0.00000000000E+00 0.  1.
          5    1    4    4  501    0  0.15762812548E+02 -0.72857876914E+02 -0.97739235467E+02  0.12299254871E+03  0.41800000000E+01 0.  1.
         -5    1    4    4    0  501 -0.70848801440E+01  0.51062268708E+02 -0.48981664016E+02  0.71233605988E+02  0.41800000000E+01 0.  1.
</event>
<event>
11    1  0.9238666E-009  0.1386891E+03  0.7561462E-02  0.1109031E+00
         22   -1    0    0    0    0  0.00000000000E+00  0.00000000000E+00  0.13021645727E+03  0.13021645727E+03  0.00000000000E+00 0.  1.
         22   -1    0    0    0    0 -0.00000000000E+00 -0.00000000000E+00 -0.80702932147E+03  0.80702932147E+03  0.00000000000E+00 0.  1.
        -24    2    1    2    0    0  0.30408164353E+02 -0.46991237111E+02 -0.62804306966E+03  0.63562189724E+03  0.80276186299E+02 0.  0.
         25    2    1    2    0    0 -0.51983023179E+02  0.96101611885E+02 -0.98089487084E+02  0.19289006900E+03  0.12508907521E+03 0.  0.
         24    2    1    2    0    0  0.21574858826E+02 -0.49110374775E+02  0.49319692535E+02  0.10873381250E+03  0.80705058481E+02 0.  0.
        -11    1    5    5    0    0  0.36074009780E+02 -0.52224011243E+02  0.62364481863E+02  0.88983201392E+02  0.00000000000E+00 0.  1.
         12    1    5    5    0    0 -0.14499150954E+02  0.31136364681E+01 -0.13044789328E+02  0.19750611105E+02  0.00000000000E+00 0. -1.
         13    1    3    3    0    0  0.56907794150E+01  0.19497923680E+02 -0.64254210868E+02  0.67388111803E+02  0.00000000000E+00 0. -1.
        -14    1    3    3    0    0  0.24717384938E+02 -0.66489160790E+02 -0.56378885879E+03  0.56823378544E+03  0.00000000000E+00 0.  1.
          5    1    4    4  501    0 -0.35320576464E+02  0.53601516320E+02  0.19058771689E+02  0.67092286083E+02  0.41800000000E+01 0.  1.
         -5    1    4    4    0  501 -0.16662446715E+02  0.42500095566E+02 -0.11714825877E+03  0.12579778292E+03  0.41800000000E+01 0.  1.
</event>
<event>
11    1  0.9238666E-009  0.1622690E+03  0.7561462E-02  0.1084962E+00
         22   -1    0    0    0    0  0.00000000000E+00  0.00000000000E+00  0.26316023358E+03  0.26316023358E+03  0.00000000000E+00 0.  1.
         22   -1    0    0    0    0 -0.00000000000E+00 -0.00000000000E+00 -0.50705233994E+03  0.50705233994E+03  0.00000000000E+00 0.  1.
        -24    2    1    2    0    0 -0.87990980601E+02  0.44820943404E+02 -0.90840703312E+02  0.15581812322E+03  0.79220732839E+02 0.  0.
         25    2    1    2    0    0  0.95515838421E+02 -0.45755191030E+02 -0.35807210876E+03  0.39380192887E+03  0.12509001246E+03 0.  0.
         24    2    1    2    0    0 -0.75248578200E+01  0.93424762637E+00  0.20502070571E+03  0.22059252142E+03  0.81055995656E+02 0.  0.
        -13    1    5    5    0    0 -0.38970052532E+02 -0.90842640054E+01  0.15902277891E+03  0.16397997762E+03  0.00000000000E+00 0.  1.
         14    1    5    5    0    0  0.31445194712E+02  0.10018511632E+02  0.45997926800E+02  0.56612543802E+02  0.00000000000E+00 0. -1.
         13    1    3    3    0    0 -0.12888969497E+02  0.44224469441E+02 -0.13477759922E+02  0.47995616931E+02  0.00000000000E+00 0. -1.
        -14    1    3    3    0    0 -0.75102011104E+02  0.59647396284E+00 -0.77362943390E+02  0.10782250629E+03  0.00000000000E+00 0.  1.
          5    1    4    4  501    0  0.93308655223E+02  0.41908423246E+01 -0.12911148910E+03  0.15940927613E+03  0.41800000000E+01 0. -1.
         -5    1    4    4    0  501  0.22071831980E+01 -0.49946033355E+02 -0.22896061966E+03  0.23439265274E+03  0.41800000000E+01 0. -1.
</event>
<event>
11    1  0.9238666E-009  0.1544099E+03  0.7561462E-02  0.1092456E+00
         22   -1    0    0    0    0  0.00000000000E+00  0.00000000000E+00  0.59785116250E+03  0.59785116250E+03  0.00000000000E+00 0. -1.
         22   -1    0    0    0    0 -0.00000000000E+00 -0.00000000000E+00 -0.77428500132E+03  0.77428500132E+03  0.00000000000E+00 0.  1.
         24    2    1    2    0    0  0.14588328229E+02 -0.87505153706E+02 -0.58994209741E+03  0.60247602272E+03  0.84117230167E+02 0.  0.
         25    2    1    2    0    0  0.44913659835E+02  0.10898782187E+03 -0.13078939839E+03  0.21598271776E+03  0.12508831074E+03 0.  0.
        -24    2    1    2    0    0 -0.59501988064E+02 -0.21482668167E+02  0.54429765698E+03  0.55367742333E+03  0.79352114678E+02 0.  0.
        -11    1    3    3    0    0 -0.31414148746E+02 -0.54128223742E+02 -0.24410919772E+03  0.25200399552E+03  0.00000000000E+00 0.  1.
         12    1    3    3    0    0  0.46002476974E+02 -0.33376929965E+02 -0.34583289969E+03  0.35047202720E+03  0.00000000000E+00 0. -1.
         13    1    5    5    0    0 -0.64579661594E+02  0.35545914589E+01  0.48237778335E+03  0.48669445619E+03  0.00000000000E+00 0. -1.
        -14    1    5    5    0    0  0.50776735295E+01 -0.25037259625E+02  0.61919873627E+02  0.66982967148E+02  0.00000000000E+00 0.  1.
          5    1    4    4  501    0 -0.11496633327E+02  0.10221537458E+03 -0.43522828044E+02  0.11176700917E+03  0.41800000000E+01 0.  1.
         -5    1    4    4    0  501  0.56410293162E+02  0.67724472935E+01 -0.87266570350E+02  0.10421570859E+03  0.41800000000E+01 0.  1.
</event>
<event>
11    1  0.9238666E-009  0.2147430E+03  0.7561462E-02  0.1044561E+00
         22   -1    0    0    0    0  0.00000000000E+00  0.00000000000E+00  0.24097439423E+04  0.24097439423E+04  0.00000000000E+00 0. -1.
         22   -1    0    0    0    0 -0.00000000000E+00 -0.00000000000E+00 -0.16509674612E+03  0.16509674612E+03  0.00000000000E+00 0.  1.
         24    2    1    2    0    0  0.98162775637E+02 -0.14421443506E+03 -0.93227951073E+02  0.21349208756E+03  0.80334841681E+02 0.  0.
         25    2    1    2    0    0 -0.89831798100E+02  0.15202446801E+03  0.10832322418E+04  0.11046364057E+04  0.12509319840E+03 0.  0.
        -24    2    1    2    0    0 -0.83309775366E+01 -0.78100329474E+01  0.12546429055E+04  0.12567121952E+04  0.71178082840E+02 0.  0.
        -13    1    3    3    0    0  0.45750396940E+02 -0.85300376839E+02 -0.76083463140E+01  0.97093460350E+02  0.00000000000E+00 0.  1.
         14    1    3    3    0    0  0.52412378697E+02 -0.58914058220E+02 -0.85619604759E+02  0.11639862721E+03  0.00000000000E+00 0. -1.
         13    1    5    5    0    0  0.96007871358E+01 -0.12108256463E+02  0.11692025381E+04  0.11693046481E+04  0.00000000000E+00 0. -1.
        -14    1    5    5    0    0 -0.17931764672E+02  0.42982235153E+01  0.85440367417E+02  0.87407547122E+02  0.00000000000E+00 0.  1.
          5    1    4    4  501    0 -0.78214903502E+02  0.14191629420E+03  0.61104902217E+03  0.63218366444E+03  0.41800000000E+01 0. -1.
         -5    1    4    4    0  501 -0.11616894598E+02  0.10108173802E+02  0.47218321961E+03  0.47245274123E+03  0.41800000000E+01 0. -1.
</event>
<event>
11    1  0.9238666E-009  0.1271214E+03  0.7561462E-02  0.1122857E+00
         22   -1    0    0    0    0  0.00000000000E+00  0.00000000000E+00  0.30309282898E+03  0.30309282898E+03  0.00000000000E+00 0. -1.
         22   -1    0    0    0    0 -0.00000000000E+00 -0.00000000000E+00 -0.11028124813E+04  0.11028124813E+04  0.00000000000E+00 0.  1.
        -24    2    1    2    0    0  0.23903896137E+02  0.15932670498E+01 -0.95700966267E+03  0.96065993512E+03  0.80162845176E+02 0.  0.
         25    2    1    2    0    0 -0.44917484907E+02  0.36562613639E+01 -0.10501287736E+03  0.16941577499E+03  0.12507218598E+03 0.  0.
         24    2    1    2    0    0  0.21013588770E+02 -0.52495284137E+01  0.26230288771E+03  0.27582960017E+03  0.82522936012E+02 0.  0.
        -13    1    5    5    0    0  0.17460955348E+02 -0.31784836570E+02  0.49573802882E+02  0.61422493678E+02  0.00000000000E+00 0.  1.
         14    1    5    5    0    0  0.35526334220E+01  0.26535308156E+02  0.21272908482E+03  0.21440710649E+03  0.00000000000E+00 0. -1.
         13    1    3    3    0    0  0.26645142393E+02  0.16174988780E+02 -0.13640352423E+03  0.13991967445E+03  0.00000000000E+00 0. -1.
        -14    1    3    3    0    0 -0.27412462567E+01 -0.14581721731E+02 -0.82060613844E+03  0.82074026067E+03  0.00000000000E+00 0.  1.
          5    1    4    4  501    0 -0.49882582676E+02  0.55518466139E+02 -0.85635377228E+02  0.11367261046E+03  0.41800000000E+01 0. -1.
         -5    1    4    4    0  501  0.49650977690E+01 -0.51862204775E+02 -0.19377500133E+02  0.55743164527E+02  0.41800000000E+01 0. -1.
</event>
<event>
11    1  0.9238666E-009  0.3109692E+03  0.7561462E-02  0.9956528E-01
         22   -1    0    0    0    0  0.00000000000E+00  0.00000000000E+00  0.53981168662E+03  0.53981168662E+03  0.00000000000E+00 0. -1.
         22   -1    0    0    0    0 -0.00000000000E+00 -0.00000000000E+00 -0.10660739720E+04  0.10660739720E+04  0.00000000000E+00 0. -1.
         24    2    1    2    0    0  0.11469721367E+03 -0.27029274289E+03 -0.90495877799E+03  0.95488354286E+03  0.81477437865E+02 0.  0.
         25    2    1    2    0    0 -0.10484646210E+03  0.21131459774E+03  0.80684064966E+01  0.26713003499E+03  0.12508683614E+03 0.  0.
        -24    2    1    2    0    0 -0.98507515758E+01  0.58978145150E+02  0.37062808608E+03  0.38387208080E+03  0.80107036606E+02 0.  0.
        -11    1    3    3    0    0 -0.67480054913E+01 -0.34475176700E+02 -0.63026436742E+02  0.72155423324E+02  0.00000000000E+00 0.  1.
         12    1    3    3    0    0  0.12144521916E+03 -0.23581756619E+03 -0.84193234124E+03  0.88272811953E+03  0.00000000000E+00 0. -1.
         13    1    5    5    0    0  0.10689766810E+02  0.65428908289E+02  0.34018760080E+03  0.34658738710E+03  0.00000000000E+00 0. -1.
        -14    1    5    5    0    0 -0.20540518385E+02 -0.64507631391E+01  0.30440485280E+02  0.37284693705E+02  0.00000000000E+00 0.  1.
          5    1    4    4  501    0  0.11084768490E+02  0.23660177153E+02  0.36079385091E+02  0.44742267533E+02  0.41800000000E+01 0.  1.
         -5    1    4    4    0  501 -0.11593123059E+03  0.18765442059E+03 -0.28010978595E+02  0.22238776746E+03  0.41800000000E+01 0.  1.
</event>
<event>
11    1  0.9238666E-009  0.5004892E+03  0.7561462E-02  0.9392429E-01
         22   -1    0    0    0    0  0.00000000000E+00  0.00000000000E+00  0.34096465459E+04  0.34096465459E+04  0.00000000000E+00 0.  1.
         22   -1    0    0    0    0 -0.00000000000E+00 -0.00000000000E+00 -0.38371991893E+03  0.38371991893E+03  0.00000000000E+00 0.  1.
        -24    2    1    2    0    0 -0.10671196140E+03 -0.10416033375E+03 -0.24550415358E+03  0.29799989739E+03  0.79339974713E+02 0.  0.
         25    2    1    2    0    0  0.17794809464E+03 -0.39276630855E+03  0.47710675729E+03  0.65514061530E+03  0.12508984946E+03 0.  0.
         24    2    1    2    0    0 -0.71236133238E+02  0.49692664230E+03  0.27943240232E+04  0.28402259521E+04  0.81400477755E+02 0.  0.
        -11    1    5    5    0    0 -0.87130413409E+02  0.35757217168E+03  0.19811729608E+04  0.20150672116E+04  0.00000000000E+00 0.  1.
         12    1    5    5    0    0  0.15894280171E+02  0.13935447063E+03  0.81315106247E+03  0.82515874050E+03  0.00000000000E+00 0. -1.
         11    1    3    3    0    0 -0.10540122331E+03 -0.54073344627E+02 -0.16360332603E+03  0.20198859562E+03  0.00000000000E+00 0. -1.
        -12    1    3    3    0    0 -0.13107380915E+01 -0.50086989122E+02 -0.81900827550E+02  0.96011301767E+02  0.00000000000E+00 0.  1.
          5    1    4    4  501    0  0.58547031362E+02 -0.15965135976E+03  0.27880646366E+03  0.32659887957E+03  0.41800000000E+01 0. -1.
         -5    1    4    4    0  501  0.11940106328E+03 -0.23311494879E+03  0.19830029363E+03  0.32854173573E+03  0.41800000000E+01 0. -1.
</event>
<event>
11    1  0.9238666E-009  0.2509969E+03  0.7561462E-02  0.1023369E+00
         22   -1    0    0    0    0  0.00000000000E+00  0.00000000000E+00  0.27915800565E+04  0.27915800565E+04  0.00000000000E+00 0. -1.
         22   -1    0    0    0    0 -0.00000000000E+00 -0.00000000000E+00 -0.14556404978E+03  0.14556404978E+03  0.00000000000E+00 0.  1.
        -24    2    1    2    0    0  0.20346290573E+03 -0.73801008031E+02 -0.25022335948E+02  0.22860941289E+03  0.69227188087E+02 0.  0.
         25    2    1    2    0    0 -0.22283019112E+03  0.55838480065E+02  0.94700834148E+03  0.98246945981E+03  0.12510080214E+03 0.  0.
         24    2    1    2    0    0  0.19367285393E+02  0.17962527966E+02  0.17240300012E+04  0.17260652336E+04  0.79523590571E+02 0.  0.
        -13    1    5    5    0    0  0.27412084253E+02  0.26563749871E+02  0.36617970267E+03  0.36816386272E+03  0.00000000000E+00 0.  1.
         14    1    5    5    0    0 -0.80447988594E+01 -0.86012219050E+01  0.13578502986E+04  0.13579013709E+04  0.00000000000E+00 0. -1.
         11    1    3    3    0    0  0.62431109644E+01 -0.18110760629E+02  0.84933178664E+01  0.20955012132E+02  0.00000000000E+00 0. -1.
        -12    1    3    3    0    0  0.19721979476E+03 -0.55690247402E+02 -0.33515653814E+02  0.20765440075E+03  0.00000000000E+00 0.  1.
          5    1    4    4  501    0 -0.12248282106E+03  0.67235611294E+02  0.34856498738E+03  0.37554985249E+03  0.41800000000E+01 0.  1.
         -5    1    4    4    0  501 -0.10034737006E+03 -0.11397131229E+02  0.59844335410E+03  0.60691960732E+03  0.41800000000E+01 0.  1.
</event>
<event>
11    1  0.9238666E-009  0.1313663E+03  0.7561462E-02  0.1117602E+00
         22   -1    0    0    0    0  0.00000000000E+00  0.00000000000E+00  0.25919239567E+02  0.25919239567E+02  0.00000000000E+00 0.  1.
         22   -1    0    0    0    0 -0.00000000000E+00 -0.00000000000E+00 -0.19663539087E+04  0.19663539087E+04  0.00000000000E+00 0. -1.
         24    2    1    2    0    0 -0.50973631815E+02  0.32087084660E+02 -0.95773192686E+03  0.96298383654E+03  0.80371223470E+02 0.  0.
         25    2    1    2    0    0  0.10884398738E+02  0.82516434010E+01 -0.87309470047E+03  0.88211596522E+03  0.12509060853E+03 0.  0.
        -24    2    1    2    0    0  0.40089233076E+02 -0.40338728061E+02 -0.10960804184E+03  0.14717334655E+03  0.80073163474E+02 0.  0.
        -13    1    3    3    0    0  0.18285040253E+02 -0.76137743122E+01 -0.14636755811E+03  0.14770163954E+03  0.00000000000E+00 0.  1.
         14    1    3    3    0    0 -0.69258672067E+02  0.39700858972E+02 -0.81136436875E+03  0.81528219700E+03  0.00000000000E+00 0. -1.
         13    1    5    5    0    0  0.57238305518E+02 -0.15029299747E+02 -0.97979440755E+02  0.11446429260E+03  0.00000000000E+00 0. -1.
        -14    1    5    5    0    0 -0.17149072441E+02 -0.25309428314E+02 -0.11628601082E+02  0.32709053950E+02  0.00000000000E+00 0.  1.
          5    1    4    4  501    0 -0.38390093523E+02 -0.34684840842E+02 -0.55043608915E+03  0.55287810420E+03  0.41800000000E+01 0. -1.
         -5    1    4    4    0  501  0.49274492261E+02  0.42936484243E+02 -0.32265861133E+03  0.32923786102E+03  0.41800000000E+01 0. -1.
</event>
<event>
11    1  0.9238666E-009  0.1455139E+03  0.7561462E-02  0.1101553E+00
         22   -1    0    0    0    0  0.00000000000E+00  0.00000000000E+00  0.66872138626E+03  0.66872138626E+03  0.00000000000E+00 0.  1.
         22   -1    0    0    0    0 -0.00000000000E+00 -0.00000000000E+00 -0.52752484958E+03  0.52752484958E+03  0.00000000000E+00 0.  1.
         24    2    1    2    0    0  0.69790406066E+02 -0.22051429001E+02 -0.46049163291E+03  0.47316340762E+03  0.80461792356E+02 0.  0.
         25    2    1    2    0    0 -0.99899340061E+02 -0.26638944381E+01  0.55215999227E+02  0.16935916769E+03  0.12508695628E+03 0.  0.
        -24    2    1    2    0    0  0.30108933995E+02  0.24715323439E+02  0.54647217036E+03  0.55372366054E+03  0.80378256715E+02 0.  0.
        -11    1    3    3    0    0  0.61268466524E+02  0.41138124291E+01 -0.41835144480E+03  0.42283410436E+03  0.00000000000E+00 0.  1.
         12    1    3    3    0    0  0.85219395423E+01 -0.26165241430E+02 -0.42140188111E+02  0.50329303261E+02  0.00000000000E+00 0. -1.
         13    1    5    5    0    0  0.36825098494E+02 -0.20896671242E+02  0.22320997999E+03  0.22719034732E+03  0.00000000000E+00 0. -1.
        -14    1    5    5    0    0 -0.67161644992E+01  0.45611994681E+02  0.32326219037E+03  0.32653331322E+03  0.00000000000E+00 0.  1.
          5    1    4    4  501    0 -0.64954325196E+02 -0.44760126968E+02 -0.14837221382E+02  0.80375051267E+02  0.41800000000E+01 0.  1.
         -5    1    4    4    0  501 -0.34945014864E+02  0.42096232530E+02  0.70053220609E+02  0.88984116418E+02  0.41800000000E+01 0.  1.
</event>
<event>
11    1  0.9238666E-009  0.1267197E+03  0.7561462E-02  0.1123366E+00
         22   -1    0    0    0    0  0.00000000000E+00  0.00000000000E+00  0.41360406182E+03  0.41360406182E+03  0.00000000000E+00 0. -1.
         22   -1    0    0    0    0 -0.00000000000E+00 -0.00000000000E+00 -0.19431104989E+04  0.19431104989E+04  0.00000000000E+00 0. -1.
         24    2    1    2    0    0  0.13047840701E+02  0.15480056888E+02 -0.18802004074E+04  0.18821436165E+04  0.83073118211E+02 0.  0.
         25    2    1    2    0    0 -0.12483616233E+02 -0.15604405551E+02  0.14099737928E+02  0.12746095572E+03  0.12509258362E+03 0.  0.
        -24    2    1    2    0    0 -0.56422446798E+00  0.12434866307E+00  0.33659423237E+03  0.34710998849E+03  0.84789934709E+02 0.  0.
        -11    1    3    3    0    0 -0.26998923819E+02 -0.17623850336E+02 -0.88600001014E+03  0.88658646502E+03  0.00000000000E+00 0.  1.
         12    1    3    3    0    0  0.40046764519E+02  0.33103907224E+02 -0.99420039721E+03  0.99555715147E+03  0.00000000000E+00 0. -1.
         11    1    5    5    0    0  0.20833565718E+02 -0.34716908096E+02  0.11877004103E+03  0.12548156763E+03  0.00000000000E+00 0. -1.
        -12    1    5    5    0    0 -0.21397790186E+02  0.34841256759E+02  0.21782419134E+03  0.22162842086E+03  0.00000000000E+00 0.  1.
          5    1    4    4  501    0  0.53544634410E+02 -0.22698662679E+02  0.17374286082E+02  0.60840737819E+02  0.41800000000E+01 0.  1.
         -5    1    4    4    0  501 -0.66028250642E+02  0.70942571276E+01 -0.32745481536E+01  0.66620217897E+02  0.41800000000E+01 0.  1.
</event>
<event>
11    1  0.9238666E-009  0.2266232E+03  0.7561462E-02  0.1037146E+00
         22   -1    0    0    0    0  0.00000000000E+00  0.00000000000E+00  0.25247361390E+04  0.25247361390E+04  0.00000000000E+00 0. -1.
         22   -1    0    0    0    0 -0.00000000000E+00 -0.00000000000E+00 -0.11231103215E+04  0.11231103215E+04  0.00000000000E+00 0.  1.
         24    2    1    2    0    0 -0.18318923630E+02 -0.19158076976E+02 -0.10802383304E+04  0.10834574771E+04  0.79136840235E+02 0.  0.
         25    2    1    2    0    0  0.16182264498E+03  0.13730047195E+03  0.38029038553E+03  0.45310597115E+03  0.12508499404E+03 0.  0.
        -24    2    1    2    0    0 -0.14350372135E+03 -0.11814239498E+03  0.21015737622E+04  0.21112830122E+04  0.79704052768E+02 0.  0.
        -11    1    3    3    0    0 -0.11312378094E+02 -0.43374769771E+02 -0.93302568258E+03  0.93410184932E+03  0.00000000000E+00 0.  1.
         12    1    3    3    0    0 -0.70065455355E+01  0.24216692795E+02 -0.14721264777E+03  0.14935562779E+03  0.00000000000E+00 0. -1.
         11    1    5    5    0    0 -0.11235281142E+03 -0.11528074452E+03  0.19427624436E+04  0.19494200975E+04  0.00000000000E+00 0. -1.
        -12    1    5    5    0    0 -0.31150909930E+02 -0.28616504541E+01  0.15881131869E+03  0.16186291477E+03  0.00000000000E+00 0.  1.
          5    1    4    4  501    0  0.12883054811E+03  0.47057347989E+02  0.29162644430E+03  0.32229669489E+03  0.41800000000E+01 0.  1.
         -5    1    4    4    0  501  0.32992096871E+02  0.90243123963E+02  0.88663941237E+02  0.13080927625E+03  0.41800000000E+01 0.  1.
</event>
<event>
11    1  0.9238666E-009  0.1353215E+03  0.7561462E-02  0.1112898E+00
         22   -1    0    0    0    0  0.00000000000E+00  0.00000000000E+00  0.25804711192E+04  0.25804711192E+04  0.00000000000E+00 0.  1.
         22   -1    0    0    0    0 -0.00000000000E+00 -0.00000000000E+00 -0.35601234473E+03  0.35601234473E+03  0.00000000000E+00 0.  1.
         24    2    1    2    0    0  0.30005678910E+02 -0.41086574827E+02 -0.33452600295E+03  0.35029185143E+03  0.90599597884E+02 0.  0.
         25    2    1    2    0    0 -0.71994193903E+02  0.72631325462E+02  0.51146689771E+03  0.53638041601E+03  0.12508832811E+03 0.  0.
        -24    2    1    2    0    0  0.41988514993E+02 -0.31544750635E+02  0.20475178797E+04  0.20498111965E+04  0.81476173642E+02 0.  0.
        -11    1    3    3    0    0 -0.44576984098E+00  0.27493013142E+02 -0.11699566247E+03  0.12018339952E+03  0.00000000000E+00 0.  1.
         12    1    3    3    0    0  0.30451448751E+02 -0.68579587968E+02 -0.21753034047E+03  0.23010845191E+03  0.00000000000E+00 0. -1.
         13    1    5    5    0    0  0.17882693454E+02 -0.19710149140E+02  0.18772498307E+04  0.18774384697E+04  0.00000000000E+00 0. -1.
        -14    1    5    5    0    0  0.24105821539E+02 -0.11834601496E+02  0.17026804900E+03  0.17237272677E+03  0.00000000000E+00 0.  1.
          5    1    4    4  501    0 -0.28803320314E+01 -0.12824100601E+02  0.27759270548E+03  0.27793512984E+03  0.41800000000E+01 0.  1.
         -5    1    4    4    0  501 -0.69113861872E+02  0.85455426063E+02  0.23387419224E+03  0.25844528616E+03  0.41800000000E+01 0.  1.
</event>
<event>
11    1  0.9238666E-009  0.1755650E+03  0.7561462E-02  0.1073288E+00
         22   -1    0    0    0    0  0.00000000000E+00  0.00000000000E+00  0.11382846607E+04  0.11382846607E+04  0.00000000000E+00 0.  1.
         22   -1    0    0    0    0 -0.00000000000E+00 -0.00000000000E+00 -0.14517332015E+03  0.14517332015E+03  0.00000000000E+00 0.  1.
         24    2    1    2    0    0  0.40938370329E+02 -0.33456735124E+02 -0.68255960164E+02  0.12127324702E+03  0.85164670220E+02 0.  0.
         25    2    1    2    0    0 -0.89484908602E+02 -0.81736801573E+02  0.13015330287E+03  0.21743057814E+03  0.12509084884E+03 0.  0.
        -24    2    1    2    0    0  0.48546538273E+02  0.11519353670E+03  0.93121399787E+03  0.94475415572E+03  0.98866514294E+02 0.  0.
        -13    1    3    3    0    0  0.55406663654E+02 -0.32276674797E+01 -0.67980348836E+02  0.87759011175E+02  0.00000000000E+00 0.  1.
         14    1    3    3    0    0 -0.14468293325E+02 -0.30229067645E+02 -0.27561132854E+00  0.33514235841E+02  0.00000000000E+00 0. -1.
         11    1    5    5    0    0  0.78179211241E+02  0.72948069522E+02  0.58075335299E+03  0.59051491677E+03  0.00000000000E+00 0. -1.
        -12    1    5    5    0    0 -0.29632672968E+02  0.42245467176E+02  0.35046064487E+03  0.35423923894E+03  0.00000000000E+00 0.  1.
          5    1    4    4  501    0 -0.10627213709E+03 -0.85884684078E+02  0.14116601712E+03  0.19650766618E+03  0.41800000000E+01 0. -1.
         -5    1    4    4    0  501  0.16787228485E+02  0.41478825047E+01 -0.11012714248E+02  0.20922911953E+02  0.41800000000E+01 0. -1.
</event>
<event>
11    1  0.9238666E-009  0.1588693E+03  0.7561462E-02  0.1088146E+00
         22   -1    0    0    0    0  0.00000000000E+00  0.00000000000E+00  0.59221316087E+03  0.59221316087E+03  0.00000000000E+00 0.  1.
         22   -1    0    0    0    0 -0.00000000000E+00 -0.00000000000E+00 -0.28535813449E+03  0.28535813449E+03  0.00000000000E+00 0.  1.
         24    2    1    2    0    0 -0.87205826270E+02  0.64777620740E+02 -0.19733421609E+03  0.23898209301E+03  0.79816362063E+02 0.  0.
         25    2    1    2    0    0  0.38094244349E+02 -0.46315343842E+02  0.14404600469E+02  0.13946820157E+03  0.12509038415E+03 0.  0.
        -24    2    1    2    0    0  0.49111581921E+02 -0.18462276898E+02  0.48978464199E+03  0.49912100079E+03  0.80498290331E+02 0.  0.
        -11    1    3    3    0    0 -0.82970855828E+02  0.66116618187E+02 -0.20459746324E+03  0.23046841883E+03  0.00000000000E+00 0.  1.
         12    1    3    3    0    0 -0.42349704421E+01 -0.13389974470E+01  0.72632471451E+01  0.85136741715E+01  0.00000000000E+00 0. -1.
         13    1    5    5    0    0 -0.20531955883E+02  0.73484597735E+01  0.10859278682E+03  0.11076079822E+03  0.00000000000E+00 0. -1.
        -14    1    5    5    0    0  0.69643537804E+02 -0.25810736671E+02  0.38119185518E+03  0.38836020257E+03  0.00000000000E+00 0.  1.
          5    1    4    4  501    0  0.52329530752E+02  0.28116966354E+02 -0.85822003514E+01  0.60167018777E+02  0.41800000000E+01 0. -1.
         -5    1    4    4    0  501 -0.14235286402E+02 -0.74432310196E+02  0.22986800821E+02  0.79301182791E+02  0.41800000000E+01 0. -1.
</event>
<event>
11    1  0.9238666E-009  0.1756573E+03  0.7561462E-02  0.1073211E+00
         22   -1    0    0    0    0  0.00000000000E+00  0.00000000000E+00  0.16930971214E+04  0.16930971214E+04  0.00000000000E+00 0. -1.
         22   -1    0    0    0    0 -0.00000000000E+00 -0.00000000000E+00 -0.21246801092E+03  0.21246801092E+03  0.00000000000E+00 0.  1.
        -24    2    1    2    0    0 -0.40318223771E+02 -0.11752189846E+03 -0.16774169843E+03  0.22393724859E+03  0.81078098938E+02 0.  0.
         25    2    1    2    0    0  0.93262808793E+02  0.78917286402E+02  0.52166830912E+03  0.55019172691E+03  0.12508885648E+03 0.  0.
         24    2    1    2    0    0 -0.52944585021E+02  0.38604612055E+02  0.11267024998E+04  0.11314361569E+04  0.79973800615E+02 0.  0.
        -13    1    5    5    0    0  0.84351434235E+01  0.57463829708E+01  0.19171838609E+02  0.21719391278E+02  0.00000000000E+00 0.  1.
         14    1    5    5    0    0 -0.61379728445E+02  0.32858229084E+02  0.11075306612E+04  0.11097167656E+04  0.00000000000E+00 0. -1.
         11    1    3    3    0    0  0.28179660240E+01 -0.25159000547E+02 -0.96004334899E+02  0.99286195216E+02  0.00000000000E+00 0. -1.
        -12    1    3    3    0    0 -0.43136189795E+02 -0.92362897909E+02 -0.71737363536E+02  0.12465105337E+03  0.00000000000E+00 0.  1.
          5    1    4    4  501    0  0.92713530207E+02  0.10651745562E+03  0.47729947883E+03  0.49776905481E+03  0.41800000000E+01 0. -1.
         -5    1    4    4    0  501  0.54927858548E+00 -0.27600169222E+02  0.44368830291E+02  0.52422672094E+02  0.41800000000E+01 0. -1.
</event>
<event>
11    1  0.9238666E-009  0.1418068E+03  0.7561462E-02  0.1105557E+00
         22   -1    0    0    0    0  0.00000000000E+00  0.00000000000E+00  0.16833388996E+04  0.16833388996E+04  0.00000000000E+00 0.  1.
         22   -1    0    0    0    0 -0.00000000000E+00 -0.00000000000E+00 -0.28769662971E+03  0.28769662971E+03  0.00000000000E+00 0. -1.
         24    2    1    2    0    0 -0.32432156944E+02  0.59960492802E+02 -0.21548861381E+03  0.24004676067E+03  0.80870261058E+02 0.  0.
         25    2    1    2    0    0 -0.20161942178E+02 -0.72441032866E+02  0.32786924059E+02  0.14959056651E+03  0.12509255791E+03 0.  0.
        -24    2    1    2    0    0  0.52594099122E+02  0.12480540065E+02  0.15783439597E+04  0.15813982022E+04  0.82028748546E+02 0.  0.
        -13    1    3    3    0    0  0.20080440662E+01  0.22277638906E+02 -0.43024470173E+01  0.22777982495E+02  0.00000000000E+00 0.  1.
         14    1    3    3    0    0 -0.34440201010E+02  0.37682853895E+02 -0.21118616680E+03  0.21726877817E+03  0.00000000000E+00 0. -1.
         13    1    5    5    0    0  0.92642222237E+01  0.11275205267E+02  0.42368527189E+02  0.44811250410E+02  0.00000000000E+00 0. -1.
        -14    1    5    5    0    0  0.43329876898E+02  0.12053347975E+01  0.15359754325E+04  0.15365869517E+04  0.00000000000E+00 0.  1.
          5    1    4    4  501    0 -0.29131236237E+02  0.30566527365E+02  0.79436992735E+01  0.43168463929E+02  0.41800000000E+01 0.  1.
         -5    1    4    4    0  501  0.89692940596E+01 -0.10300756023E+03  0.24843224785E+02  0.10642210258E+03  0.41800000000E+01 0.  1.
</event>
<event>
11    1  0.9238666E-009  0.1546559E+03  0.7561462E-02  0.1092214E+00
         22   -1    0    0    0    0  0.00000000000E+00  0.00000000000E+00  0.56609810900E+03  0.56609810900E+03  0.00000000000E+00 0.  1.
         22   -1    0    0    0    0 -0.00000000000E+00 -0.00000000000E+00 -0.91797631336E+03  0.91797631336E+03  0.00000000000E+00 0.  1.
         24    2    1    2    0    0  0.34969712029E+02 -0.83787893628E+01 -0.85127808066E+03  0.85557898417E+03  0.77768519773E+02 0.  0.
         25    2    1    2    0    0  0.60373411742E+02  0.63075324704E+01  0.29251491011E+02  0.14208475428E+03  0.12509074251E+03 0.  0.
        -24    2    1    2    0    0 -0.95343123771E+02  0.20712568924E+01  0.47014838528E+03  0.48641068392E+03  0.80381887808E+02 0.  0.
        -11    1    3    3    0    0  0.42638202747E+02 -0.36445586718E+02 -0.51551632086E+03  0.51855893994E+03  0.00000000000E+00 0.  1.
         12    1    3    3    0    0 -0.76684907181E+01  0.28066797355E+02 -0.33576175980E+03  0.33702004422E+03  0.00000000000E+00 0. -1.
         11    1    5    5    0    0 -0.58798860624E+02  0.16785020553E+02  0.12641560072E+03  0.14042772886E+03  0.00000000000E+00 0. -1.
        -12    1    5    5    0    0 -0.36544263148E+02 -0.14713763661E+02  0.34373278456E+03  0.34598295506E+03  0.00000000000E+00 0.  1.
          5    1    4    4  501    0  0.60003546762E+02 -0.35473939936E+02  0.58346899934E+02  0.90998127291E+02  0.41800000000E+01 0. -1.
         -5    1    4    4    0  501  0.36986498044E+00  0.41781472406E+02 -0.29095408923E+02  0.51086626987E+02  0.41800000000E+01 0. -1.
</event>
<event>
11    1  0.9238666E-009  0.1384267E+03  0.7561462E-02  0.1109328E+00
         22   -1    0    0    0    0  0.00000000000E+00  0.00000000000E+00  0.14194538863E+03  0.14194538863E+03  0.00000000000E+00 0.  1.
         22   -1    0    0    0    0 -0.00000000000E+00 -0.00000000000E+00 -0.13606642825E+04  0.13606642825E+04  0.00000000000E+00 0. -1.
        -24    2    1    2    0    0 -0.51464897202E+02 -0.62706868376E+02 -0.69869689418E+03  0.70795507450E+03  0.80263631813E+02 0.  0.
         25    2    1    2    0    0  0.47002378082E+02 -0.14179019594E+02 -0.62610947624E+03  0.64036143983E+03  0.12505770368E+03 0.  0.
         24    2    1    2    0    0  0.44625191208E+01  0.76885887970E+02  0.10608747653E+03  0.15429315682E+03  0.81366281207E+02 0.  0.
        -13    1    5    5    0    0  0.27194843548E+02  0.79749517464E+02  0.62013240870E+02  0.10461924820E+03  0.00000000000E+00 0.  1.
         14    1    5    5    0    0 -0.22732324427E+02 -0.28636294937E+01  0.44074235662E+02  0.49673908613E+02  0.00000000000E+00 0. -1.
         13    1    3    3    0    0 -0.45074182215E+02 -0.14034278336E+02 -0.53439861322E+03  0.53647974863E+03  0.00000000000E+00 0. -1.
        -14    1    3    3    0    0 -0.63907149875E+01 -0.48672590040E+02 -0.16429828096E+03  0.17147532588E+03  0.00000000000E+00 0.  1.
          5    1    4    4  501    0  0.87939507221E+02 -0.22284134548E+02 -0.37979413298E+03  0.39050095445E+03  0.41800000000E+01 0.  1.
         -5    1    4    4    0  501 -0.40937129139E+02  0.81051149542E+01 -0.24631534326E+03  0.24986048538E+03  0.41800000000E+01 0.  1.
</event>
<event>
11    1  0.1716371E-008  0.1696853E+03  0.7561462E-02  0.1078306E+00
         22   -1    0    0    0    0  0.00000000000E+00  0.00000000000E+00  0.25628553568E+04  0.25628553568E+04  0.00000000000E+00 0.  1.
         22   -1    0    0    0    0 -0.00000000000E+00 -0.00000000000E+00 -0.30626029223E+03  0.30626029223E+03  0.00000000000E+00 0. -1.
         24    2    1    2    0    0  0.34951355134E+02 -0.43293649322E+02 -0.24934002448E+03  0.26797014686E+03  0.80880247907E+02 0.  0.
         25    2    1    2    0    0  0.34511283930E+02 -0.50867705080E+02  0.60926662228E+02  0.15210889068E+03  0.12508598768E+03 0.  0.
        -24    2    1    2    0    0 -0.69462639064E+02  0.94161354403E+02  0.24450084268E+04  0.24490366115E+04  0.77606045741E+02 0.  0.
        -13    1    3    3    0    0  0.13510845536E+02 -0.87198170460E+01 -0.77617887752E+00  0.16099087243E+02  0.00000000000E+00 0.  1.
         14    1    3    3    0    0  0.21440509597E+02 -0.34573832276E+02 -0.24856384560E+03  0.25187105962E+03  0.00000000000E+00 0. -1.
         11    1    5    5    0    0 -0.31297591976E+02  0.57014205816E+02  0.65168478676E+03  0.65492230090E+03  0.00000000000E+00 0. -1.
        -12    1    5    5    0    0 -0.38165047089E+02  0.37147148587E+02  0.17933236401E+04  0.17941143106E+04  0.00000000000E+00 0.  1.
          5    1    4    4  501    0 -0.20624501404E+02 -0.60201610867E+02  0.70671589692E+02  0.95192174041E+02  0.41800000000E+01 0.  1.
         -5    1    4    4    0  501  0.55135785334E+02  0.93339057869E+01 -0.97449274642E+01  0.56916716638E+02  0.41800000000E+01 0.  1.
</event>
<event>
11    1  0.9238666E-009  0.1294645E+03  0.7561462E-02  0.1119929E+00
         22   -1    0    0    0    0  0.00000000000E+00  0.00000000000E+00  0.34727784171E+03  0.34727784171E+03  0.00000000000E+00 0. -1.
         22   -1    0    0    0    0 -0.00000000000E+00 -0.00000000000E+00 -0.72506398615E+03  0.72506398615E+03  0.00000000000E+00 0. -1.
        -24    2    1    2    0    0  0.46557243941E+01  0.34022851027E+02 -0.65165775234E+03  0.65748141411E+03  0.80279222457E+02 0.  0.
         25    2    1    2    0    0  0.11151971523E+02 -0.14427495380E+02 -0.24906177000E+01  0.12643459804E+03  0.12508791034E+03 0.  0.
         24    2    1    2    0    0 -0.15807695917E+02 -0.19595355647E+02  0.27636222560E+03  0.28842581571E+03  0.78609860831E+02 0.  0.
        -11    1    5    5    0    0 -0.10220638019E+01  0.28509478706E+02  0.14444168057E+03  0.14723190577E+03  0.00000000000E+00 0.  1.
         12    1    5    5    0    0 -0.14785632115E+02 -0.48104834353E+02  0.13192054503E+03  0.14119390994E+03  0.00000000000E+00 0. -1.
         11    1    3    3    0    0 -0.95717371005E+01  0.44609851672E+02 -0.61570041980E+03  0.61738858425E+03  0.00000000000E+00 0. -1.
        -12    1    3    3    0    0  0.14227461495E+02 -0.10587000645E+02 -0.35957332537E+02  0.40092829863E+02  0.00000000000E+00 0.  1.
          5    1    4    4  501    0  0.38006139443E+02 -0.59905164176E+02  0.10621104545E+02  0.71856632207E+02  0.41800000000E+01 0. -1.
         -5    1    4    4    0  501 -0.26854167920E+02  0.45477668796E+02 -0.13111722245E+02  0.54577965829E+02  0.41800000000E+01 0. -1.
</event>
<event>
11    1  0.9238666E-009  0.1301221E+03  0.7561462E-02  0.1119119E+00
         22   -1    0    0    0    0  0.00000000000E+00  0.00000000000E+00  0.90022079266E+02  0.90022079266E+02  0.00000000000E+00 0.  1.
         22   -1    0    0    0    0 -0.00000000000E+00 -0.00000000000E+00 -0.16556123221E+04  0.16556123221E+04  0.00000000000E+00 0. -1.
        -24    2    1    2    0    0 -0.37349240834E+02  0.49687430934E+01 -0.13283444429E+04  0.13313101396E+04  0.80424341023E+02 0.  0.
         25    2    1    2    0    0  0.14701562187E+02 -0.26288077199E+02 -0.28767850053E+03  0.31514010276E+03  0.12508863164E+03 0.  0.
         24    2    1    2    0    0  0.22647678647E+02  0.21319334106E+02  0.50432700529E+02  0.99184159072E+02  0.79539982231E+02 0.  0.
        -13    1    5    5    0    0  0.29238468317E+02 -0.13915712303E+02  0.54204587065E+02  0.63140100865E+02  0.00000000000E+00 0.  1.
         14    1    5    5    0    0 -0.65907896694E+01  0.35235046409E+02 -0.37718865362E+01  0.36044058206E+02  0.00000000000E+00 0. -1.
         13    1    3    3    0    0  0.15773682601E+02  0.20543050992E+02 -0.71603960022E+03  0.71650787511E+03  0.00000000000E+00 0. -1.
        -14    1    3    3    0    0 -0.53122923435E+02 -0.15574307899E+02 -0.61230484265E+03  0.61480226446E+03  0.00000000000E+00 0.  1.
          5    1    4    4  501    0  0.26958710454E+01 -0.76244876828E+02 -0.15528101506E+03  0.17306130417E+03  0.41800000000E+01 0.  1.
         -5    1    4    4    0  501  0.12005691141E+02  0.49956799629E+02 -0.13239748547E+03  0.14207879859E+03  0.41800000000E+01 0.  1.
</event>
<event>
11    1  0.9238666E-009  0.1831576E+03  0.7561462E-02  0.1067117E+00
         22   -1    0    0    0    0  0.00000000000E+00  0.00000000000E+00  0.76173186482E+03  0.76173186482E+03  0.00000000000E+00 0.  1.
         22   -1    0    0    0    0 -0.00000000000E+00 -0.00000000000E+00 -0.45570476949E+03  0.45570476949E+03  0.00000000000E+00 0.  1.
        -24    2    1    2    0    0  0.50431588374E+02 -0.26201026095E+02 -0.34528470431E+03  0.35895270075E+03  0.79972967152E+02 0.  0.
         25    2    1    2    0    0 -0.14025344225E+02  0.15378238291E+03  0.10451360820E+02  0.19900327011E+03  0.12508932406E+03 0.  0.
         24    2    1    2    0    0 -0.36406244149E+02 -0.12758135682E+03  0.64086043882E+03  0.65948066345E+03  0.81303297582E+02 0.  0.
        -11    1    5    5    0    0 -0.47152586605E+02 -0.27009566542E+02  0.21180618031E+03  0.21866582066E+03  0.00000000000E+00 0.  1.
         12    1    5    5    0    0  0.10746342456E+02 -0.10057179028E+03  0.42905425851E+03  0.44081484279E+03  0.00000000000E+00 0. -1.
         11    1    3    3    0    0 -0.71821393494E+01 -0.71064790908E+01 -0.19447802877E+01  0.10289185637E+02  0.00000000000E+00 0. -1.
        -12    1    3    3    0    0  0.57613727723E+02 -0.19094547005E+02 -0.34333992402E+03  0.34866351512E+03  0.00000000000E+00 0.  1.
          5    1    4    4  501    0 -0.64102745720E+02  0.12472469272E+03  0.13019477524E+02  0.14089851020E+03  0.41800000000E+01 0.  1.
         -5    1    4    4    0  501  0.50077401495E+02  0.29057690196E+02 -0.25681167047E+01  0.58104759903E+02  0.41800000000E+01 0.  1.
</event>
<event>
11    1  0.9238666E-009  0.1723757E+03  0.7561462E-02  0.1075983E+00
         22   -1    0    0    0    0  0.00000000000E+00  0.00000000000E+00  0.10527722858E+03  0.10527722858E+03  0.00000000000E+00 0.  1.
         22   -1    0    0    0    0 -0.00000000000E+00 -0.00000000000E+00 -0.25661745069E+04  0.25661745069E+04  0.00000000000E+00 0.  1.
         24    2    1    2    0    0  0.93233307728E+01 -0.10820042867E+03 -0.12775644552E+04  0.12846261442E+04  0.79367094797E+02 0.  0.
         25    2    1    2    0    0  0.27238315127E+02  0.13939045684E+03 -0.12549915349E+04  0.12691821341E+04  0.12509161267E+03 0.  0.
        -24    2    1    2    0    0 -0.36561645900E+02 -0.31190028171E+02  0.71658711841E+02  0.11764345720E+03  0.79971496372E+02 0.  0.
        -11    1    3    3    0    0 -0.10139973723E+02 -0.71899739959E+02 -0.10979940490E+04  0.11003923497E+04  0.00000000000E+00 0.  1.
         12    1    3    3    0    0  0.19463304496E+02 -0.36300688713E+02 -0.17957040627E+03  0.18423379448E+03  0.00000000000E+00 0. -1.
         11    1    5    5    0    0  0.52323408032E+01  0.23525973335E+02  0.14254456853E+02  0.28000684846E+02  0.00000000000E+00 0. -1.
        -12    1    5    5    0    0 -0.41793986703E+02 -0.54716001506E+02  0.57404254988E+02  0.89642772358E+02  0.00000000000E+00 0.  1.
          5    1    4    4  501    0  0.43995491557E+02  0.12158919283E+03 -0.60313803082E+03  0.61685694590E+03  0.41800000000E+01 0. -1.
         -5    1    4    4    0  501 -0.16757176430E+02  0.17801264017E+02 -0.65185350412E+03  0.65232518823E+03  0.41800000000E+01 0. -1.
</event>
<event>
11    1  0.9238666E-009  0.1515756E+03  0.7561462E-02  0.1095280E+00
         22   -1    0    0    0    0  0.00000000000E+00  0.00000000000E+00  0.90741835776E+03  0.90741835776E+03  0.00000000000E+00 0.  1.
         22   -1    0    0    0    0 -0.00000000000E+00 -0.00000000000E+00 -0.72877521007E+03  0.72877521007E+03  0.00000000000E+00 0.  1.
         24    2    1    2    0    0 -0.50942263626E+02  0.58983477224E+02 -0.50228027229E+03  0.51467999339E+03  0.80844658811E+02 0.  0.
         25    2    1    2    0    0  0.90277260096E+02 -0.97451902112E+02 -0.17916038235E+03  0.25572730058E+03  0.12510456724E+03 0.  0.
        -24    2    1    2    0    0 -0.39334996470E+02  0.38468424888E+02  0.86008380233E+03  0.86578627386E+03  0.82550974019E+02 0.  0.
        -11    1    3    3    0    0 -0.20402898078E+02  0.43336739756E+02 -0.44738816686E+03  0.44994502231E+03  0.00000000000E+00 0.  1.
         12    1    3    3    0    0 -0.30539365548E+02  0.15646737467E+02 -0.54892105429E+02  0.64734971074E+02  0.00000000000E+00 0. -1.
         11    1    5    5    0    0  0.10808806793E+02 -0.10982229773E+02  0.43082396353E+02  0.45755136877E+02  0.00000000000E+00 0. -1.
        -12    1    5    5    0    0 -0.50143803263E+02  0.49450654661E+02  0.81700140598E+03  0.82003113698E+03  0.00000000000E+00 0.  1.
          5    1    4    4  501    0  0.98328493817E+02 -0.47619163353E+02 -0.56603355554E+02  0.12311575722E+03  0.41800000000E+01 0. -1.
         -5    1    4    4    0  501 -0.80512337216E+01 -0.49832738759E+02 -0.12255702680E+03  0.13261154337E+03  0.41800000000E+01 0. -1.
</event>
<event>
11    1  0.9238666E-009  0.1303923E+03  0.7561462E-02  0.1118788E+00
         22   -1    0    0    0    0  0.00000000000E+00  0.00000000000E+00  0.10324746945E+04  0.10324746945E+04  0.00000000000E+00 0. -1.
         22   -1    0    0    0    0 -0.00000000000E+00 -0.00000000000E+00 -0.10655380395E+03  0.10655380395E+03  0.00000000000E+00 0.  1.
         24    2    1    2    0    0  0.50036610735E+01 -0.74378981573E+01 -0.66880943952E+02  0.99774324516E+02  0.73494872037E+02 0.  0.
         25    2    1    2    0    0 -0.24878031227E+02 -0.23971157098E+02  0.18132800073E+03  0.22298176545E+03  0.12508993191E+03 0.  0.
        -24    2    1    2    0    0  0.19874370153E+02  0.31409055255E+02  0.81147383376E+03  0.81627240847E+03  0.80183181604E+02 0.  0.
        -11    1    3    3    0    0  0.23806317352E+02 -0.26790906046E+02 -0.10624454260E+02  0.37381444876E+02  0.00000000000E+00 0.  1.
         12    1    3    3    0    0 -0.18802656279E+02  0.19353007889E+02 -0.56256489691E+02  0.62392879641E+02  0.00000000000E+00 0. -1.
         13    1    5    5    0    0  0.14052588746E+02  0.25640869283E+02  0.80573990839E+03  0.80627025828E+03  0.00000000000E+00 0. -1.
        -14    1    5    5    0    0  0.58217814072E+01  0.57681859719E+01  0.57339253751E+01  0.10002150187E+02  0.00000000000E+00 0.  1.
          5    1    4    4  501    0 -0.68553844146E+02  0.14581708440E+02  0.11361187853E+03  0.13355668127E+03  0.41800000000E+01 0. -1.
         -5    1    4    4    0  501  0.43675812919E+02 -0.38552865538E+02  0.67716122198E+02  0.89425084181E+02  0.41800000000E+01 0. -1.
</event>
<event>
11    1  0.9238666E-009  0.1353303E+03  0.7561462E-02  0.1112888E+00
         22   -1    0    0    0    0  0.00000000000E+00  0.00000000000E+00  0.12922305440E+04  0.12922305440E+04  0.00000000000E+00 0.  1.
         22   -1    0    0    0    0 -0.00000000000E+00 -0.00000000000E+00 -0.16229501339E+04  0.16229501339E+04  0.00000000000E+00 0.  1.
        -24    2    1    2    0    0 -0.71448895001E+01  0.15823010632E+02 -0.89766671210E+03  0.90126943697E+03  0.78610781002E+02 0.  0.
         25    2    1    2    0    0 -0.38915836403E+02  0.76002393512E+01 -0.71541513042E+03  0.72735076120E+03  0.12509242591E+03 0.  0.
         24    2    1    2    0    0  0.46060725904E+02 -0.23423249983E+02  0.12823622527E+04  0.12865604798E+04  0.90081529441E+02 0.  0.
        -13    1    5    5    0    0  0.66087324032E+02 -0.13746760641E+02  0.11740089448E+04  0.11759479199E+04  0.00000000000E+00 0.  1.
         14    1    5    5    0    0 -0.20026598129E+02 -0.96764893428E+01  0.10835330786E+03  0.11061255988E+03  0.00000000000E+00 0. -1.
         11    1    3    3    0    0 -0.19937465968E+02 -0.22350088705E+02 -0.18003028436E+03  0.18250460898E+03  0.00000000000E+00 0. -1.
        -12    1    3    3    0    0  0.12792576468E+02  0.38173099337E+02 -0.71763642774E+03  0.71876482798E+03  0.00000000000E+00 0.  1.
          5    1    4    4  501    0 -0.54830371502E+02  0.50668974928E+02 -0.29156953879E+03  0.30100495512E+03  0.41800000000E+01 0.  1.
         -5    1    4    4    0  501  0.15914535098E+02 -0.43068735577E+02 -0.42384559164E+03  0.42634580608E+03  0.41800000000E+01 0.  1.
</event>
<event>
11    1  0.9238666E-009  0.2001073E+03  0.7561462E-02  0.1054448E+00
         22   -1    0    0    0    0  0.00000000000E+00  0.00000000000E+00  0.27834413692E+04  0.27834413692E+04  0.00000000000E+00 0.  1.
         22   -1    0    0    0    0 -0.00000000000E+00 -0.00000000000E+00 -0.69024504540E+03  0.69024504540E+03  0.00000000000E+00 0. -1.
         24    2    1    2    0    0 -0.34716594882E+02 -0.15797276105E+03 -0.59956507999E+03  0.62602035777E+03  0.79136388612E+02 0.  0.
         25    2    1    2    0    0  0.13629770523E+02  0.11588114779E+03  0.18595976095E+02  0.17207030770E+03  0.12509264331E+03 0.  0.
        -24    2    1    2    0    0  0.21086824359E+02  0.42091613256E+02  0.26741654277E+04  0.26755957491E+04  0.73725979150E+02 0.  0.
        -11    1    3    3    0    0  0.16986617320E+02 -0.23065928199E+02 -0.48469469987E+02  0.56301613942E+02  0.00000000000E+00 0.  1.
         12    1    3    3    0    0 -0.51703212202E+02 -0.13490683285E+03 -0.55109561000E+03  0.56971874382E+03  0.00000000000E+00 0. -1.
         13    1    5    5    0    0 -0.27531657968E+02  0.19322386748E+02  0.95404642978E+03  0.95463916586E+03  0.00000000000E+00 0. -1.
        -14    1    5    5    0    0  0.48618482327E+02  0.22769226508E+02  0.17201189979E+04  0.17209565833E+04  0.00000000000E+00 0.  1.
          5    1    4    4  501    0 -0.25408485633E+02  0.12047945270E+03  0.36759032231E+02  0.12856744734E+03  0.41800000000E+01 0.  1.
         -5    1    4    4    0  501  0.39038256156E+02 -0.45983049092E+01 -0.18163056137E+02  0.43502860365E+02  0.41800000000E+01 0.  1.
</event>
<event>
11    1  0.9238666E-009  0.1604716E+03  0.7561462E-02  0.1086635E+00
         22   -1    0    0    0    0  0.00000000000E+00  0.00000000000E+00  0.53195139194E+03  0.53195139194E+03  0.00000000000E+00 0.  1.
         22   -1    0    0    0    0 -0.00000000000E+00 -0.00000000000E+00 -0.17213445119E+04  0.17213445119E+04  0.00000000000E+00 0. -1.
         24    2    1    2    0    0  0.12489811128E+02  0.54172706722E+02 -0.12425145830E+04  0.12463061794E+04  0.79661321789E+02 0.  0.
         25    2    1    2    0    0 -0.11133959767E+03 -0.36200619316E+02 -0.45331821055E+03  0.48461498091E+03  0.12508912364E+03 0.  0.
        -24    2    1    2    0    0  0.98849786546E+02 -0.17972087406E+02  0.50643967357E+03  0.52237474361E+03  0.79372246827E+02 0.  0.
        -13    1    3    3    0    0  0.21764845469E+02 -0.63988922579E+01 -0.69553345182E+03  0.69590332441E+03  0.00000000000E+00 0.  1.
         14    1    3    3    0    0 -0.92750343411E+01  0.60571598980E+02 -0.54698113119E+03  0.55040285495E+03  0.00000000000E+00 0. -1.
         11    1    5    5    0    0  0.32800214474E+02 -0.26679122001E+02  0.77415686546E+02  0.88208945939E+02  0.00000000000E+00 0. -1.
        -12    1    5    5    0    0  0.66049572072E+02  0.87070345950E+01  0.42902398702E+03  0.43416579767E+03  0.00000000000E+00 0.  1.
          5    1    4    4  501    0 -0.11590519885E+03  0.15029440216E+01 -0.22516408424E+03  0.25328365757E+03  0.41800000000E+01 0. -1.
         -5    1    4    4    0  501  0.45656011771E+01 -0.37703563338E+02 -0.22815412631E+03  0.23133132334E+03  0.41800000000E+01 0. -1.
</event>
<event>
11    1  0.9238666E-009  0.1335463E+03  0.7561462E-02  0.1114987E+00
         22   -1    0    0    0    0  0.00000000000E+00  0.00000000000E+00  0.38135449526E+03  0.38135449526E+03  0.00000000000E+00 0. -1.
         22   -1    0    0    0    0 -0.00000000000E+00 -0.00000000000E+00 -0.24701896477E+03  0.24701896477E+03  0.00000000000E+00 0.  1.
         24    2    1    2    0    0 -0.13721569999E+02  0.31916678208E+02 -0.17762797410E+03  0.19822010392E+03  0.80824232634E+02 0.  0.
         25    2    1    2    0    0  0.50216431351E+02 -0.54861466370E+02  0.50990663037E+02  0.15419357442E+03  0.12507653739E+03 0.  0.
        -24    2    1    2    0    0 -0.36494861351E+02  0.22944788161E+02  0.26097284157E+03  0.27595978169E+03  0.78667902391E+02 0.  0.
        -11    1    3    3    0    0 -0.21140311284E+02 -0.25492652369E+01 -0.15471443311E+03  0.15617287641E+03  0.00000000000E+00 0.  1.
         12    1    3    3    0    0  0.74187412842E+01  0.34465943445E+02 -0.22913540994E+02  0.42047227503E+02  0.00000000000E+00 0. -1.
         11    1    5    5    0    0 -0.23470666072E+02  0.49695996949E+02  0.20867018520E+03  0.21578649279E+03  0.00000000000E+00 0. -1.
        -12    1    5    5    0    0 -0.13024195280E+02 -0.26751208788E+02  0.52302656366E+02  0.60173288902E+02  0.00000000000E+00 0.  1.
          5    1    4    4  501    0 -0.13955988299E+02 -0.49478373694E+02 -0.22602416357E+02  0.56313592480E+02  0.41800000000E+01 0. -1.
         -5    1    4    4    0  501  0.64172419649E+02 -0.53830926752E+01  0.73593079395E+02  0.97879981943E+02  0.41800000000E+01 0. -1.
</event>
<event>
11    1  0.9238666E-009  0.1819843E+03  0.7561462E-02  0.1068049E+00
         22   -1    0    0    0    0  0.00000000000E+00  0.00000000000E+00  0.21623617881E+03  0.21623617881E+03  0.00000000000E+00 0. -1.
         22   -1    0    0    0    0 -0.00000000000E+00 -0.00000000000E+00 -0.31632161693E+04  0.31632161693E+04  0.00000000000E+00 0. -1.
         24    2    1    2    0    0 -0.17955391077E+02  0.14308102371E+01 -0.27090124873E+04  0.27102632896E+04  0.80336784186E+02 0.  0.
         25    2    1    2    0    0 -0.19575184207E+02 -0.12842166279E+03 -0.40379920791E+03  0.44224090549E+03  0.12509159394E+03 0.  0.
        -24    2    1    2    0    0  0.37530575283E+02  0.12699085255E+03  0.16583170476E+03  0.22694815305E+03  0.80436864424E+02 0.  0.
        -13    1    3    3    0    0  0.18125197522E+02  0.16011972315E+02 -0.31235710591E+03  0.31329198467E+03  0.00000000000E+00 0.  1.
         14    1    3    3    0    0 -0.36080588599E+02 -0.14581162078E+02 -0.23966553814E+04  0.23969713049E+04  0.00000000000E+00 0. -1.
         13    1    5    5    0    0  0.43297139523E+01  0.63041217354E+02  0.13404769247E+03  0.14819488981E+03  0.00000000000E+00 0. -1.
        -14    1    5    5    0    0  0.33200861331E+02  0.63949635196E+02  0.31784012291E+02  0.78753263248E+02  0.00000000000E+00 0.  1.
          5    1    4    4  501    0  0.51893933309E+02 -0.69430686099E+02 -0.17449342577E+03  0.19488208877E+03  0.41800000000E+01 0.  1.
         -5    1    4    4    0  501 -0.71469117516E+02 -0.58990976689E+02 -0.22930578214E+03  0.24735881672E+03  0.41800000000E+01 0.  1.
</event>
<event>
11    1  0.9238666E-009  0.1973705E+03  0.7561462E-02  0.1056399E+00
         22   -1    0    0    0    0  0.00000000000E+00  0.00000000000E+00  0.15460052489E+03  0.15460052489E+03  0.00000000000E+00 0. -1.
         22   -1    0    0    0    0 -0.00000000000E+00 -0.00000000000E+00 -0.41705281571E+03  0.41705281571E+03  0.00000000000E+00 0.  1.
        -24    2    1    2    0    0 -0.42641110185E+02  0.86476000608E+02 -0.61529420134E+02  0.13880253566E+03  0.78637849688E+02 0.  0.
         25    2    1    2    0    0 -0.12695051265E+03 -0.70557520434E+02 -0.73761573659E+02  0.20538473628E+03  0.12508926332E+03 0.  0.
         24    2    1    2    0    0  0.16959162284E+03 -0.15918480175E+02 -0.12716129703E+03  0.22746606866E+03  0.80969749787E+02 0.  0.
        -13    1    5    5    0    0  0.13396327438E+03 -0.20611444335E+02 -0.13432262049E+03  0.19082336570E+03  0.00000000000E+00 0.  1.
         14    1    5    5    0    0  0.35628348458E+02  0.46929641600E+01  0.71613234636E+01  0.36642702960E+02  0.00000000000E+00 0. -1.
         13    1    3    3    0    0  0.20136902656E+02  0.17370223248E+02  0.69685706741E+00  0.26602727567E+02  0.00000000000E+00 0. -1.
        -14    1    3    3    0    0 -0.62778012841E+02  0.69105777360E+02 -0.62226277201E+02  0.11219980809E+03  0.00000000000E+00 0.  1.
          5    1    4    4  501    0 -0.14628138947E+03 -0.81365946545E+02 -0.73456877433E+02  0.18284432560E+03  0.41800000000E+01 0.  1.
         -5    1    4    4    0  501  0.19330876823E+02  0.10808426112E+02 -0.30469622516E+00  0.22540410678E+02  0.41800000000E+01 0.  1.
</event>
<event>
11    1  0.9238666E-009  0.3300638E+03  0.7561462E-02  0.9882136E-01
         22   -1    0    0    0    0  0.00000000000E+00  0.00000000000E+00  0.15693513451E+04  0.15693513451E+04  0.00000000000E+00 0.  1.
         22   -1    0    0    0    0 -0.00000000000E+00 -0.00000000000E+00 -0.52821367700E+03  0.52821367700E+03  0.00000000000E+00 0.  1.
         24    2    1    2    0    0 -0.58911128047E+00  0.12299616388E+02 -0.37938253414E+03  0.38799815586E+03  0.80373093283E+02 0.  0.
         25    2    1    2    0    0 -0.30486333611E+03 -0.49307930683E+01  0.89199341548E+02  0.34143162963E+03  0.12511222463E+03 0.  0.
        -24    2    1    2    0    0  0.30545244739E+03 -0.73688233192E+01  0.13313208607E+04  0.13681352366E+04  0.77609885712E+02 0.  0.
        -13    1    3    3    0    0 -0.32480415075E+02  0.29679893650E+02 -0.23747033361E+03  0.24151197236E+03  0.00000000000E+00 0.  1.
         14    1    3    3    0    0  0.31891303795E+02 -0.17380277262E+02 -0.14191220053E+03  0.14648618350E+03  0.00000000000E+00 0. -1.
         13    1    5    5    0    0  0.28731360059E+02 -0.17046848507E+02  0.23626164731E+03  0.23861192779E+03  0.00000000000E+00 0. -1.
        -14    1    5    5    0    0  0.27672108733E+03  0.96780251881E+01  0.10950592133E+04  0.11295233088E+04  0.00000000000E+00 0.  1.
          5    1    4    4  501    0 -0.20431476965E+02  0.35109255855E+02  0.22099577751E+02  0.46432411465E+02  0.41800000000E+01 0.  1.
         -5    1    4    4    0  501 -0.28443185915E+03 -0.40040048924E+02  0.67099763797E+02  0.29499921816E+03  0.41800000000E+01 0.  1.
</event>
<event>
11    1  0.9238666E-009  0.2011313E+03  0.7561462E-02  0.1053727E+00
         22   -1    0    0    0    0  0.00000000000E+00  0.00000000000E+00  0.87259370275E+03  0.87259370275E+03  0.00000000000E+00 0.  1.
         22   -1    0    0    0    0 -0.00000000000E+00 -0.00000000000E+00 -0.24537471108E+03  0.24537471108E+03  0.00000000000E+00 0.  1.
         24    2    1    2    0    0  0.24297071383E+02  0.44533708766E+02 -0.14252621932E+03  0.17157446552E+03  0.80935005597E+02 0.  0.
         25    2    1    2    0    0  0.11665882725E+03  0.36831093395E+02  0.21163589281E+02  0.17624293210E+03  0.12509141533E+03 0.  0.
        -24    2    1    2    0    0 -0.14095589863E+03 -0.81364802161E+02  0.74858162171E+03  0.77015101620E+03  0.79179208195E+02 0.  0.
        -13    1    3    3    0    0  0.43711136435E+02  0.25466971395E+01 -0.98145018411E+02  0.10746903626E+03  0.00000000000E+00 0.  1.
         14    1    3    3    0    0 -0.19414065053E+02  0.41987011626E+02 -0.44381200909E+02  0.64105429266E+02  0.00000000000E+00 0. -1.
         13    1    5    5    0    0 -0.95382198917E+02 -0.25169851994E+02  0.30082471674E+03  0.31658615813E+03  0.00000000000E+00 0. -1.
        -14    1    5    5    0    0 -0.45573699714E+02 -0.56194950168E+02  0.44775690497E+03  0.45356485807E+03  0.00000000000E+00 0.  1.
          5    1    4    4  501    0  0.86874714256E+02  0.73009827669E+02 -0.18067348601E+02  0.11498500945E+03  0.41800000000E+01 0.  1.
         -5    1    4    4    0  501  0.29784112993E+02 -0.36178734274E+02  0.39230937882E+02  0.61257922651E+02  0.41800000000E+01 0.  1.
</event>
<event>
11    1  0.9238666E-009  0.1578221E+03  0.7561462E-02  0.1089144E+00
         22   -1    0    0    0    0  0.00000000000E+00  0.00000000000E+00  0.91057152805E+03  0.91057152805E+03  0.00000000000E+00 0. -1.
         22   -1    0    0    0    0 -0.00000000000E+00 -0.00000000000E+00 -0.49584459038E+03  0.49584459038E+03  0.00000000000E+00 0. -1.
         24    2    1    2    0    0 -0.67013778952E+02 -0.68980636229E+02 -0.44276478776E+03  0.46027711172E+03  0.81025844966E+02 0.  0.
         25    2    1    2    0    0  0.90310455014E+02  0.46879059716E+02  0.11514557710E+03  0.19815143498E+03  0.12510740479E+03 0.  0.
        -24    2    1    2    0    0 -0.23296676062E+02  0.22101576513E+02  0.74234614833E+03  0.74798757173E+03  0.85885905215E+02 0.  0.
        -13    1    3    3    0    0 -0.71654449277E+02 -0.37539712889E+02 -0.20475745145E+03  0.22015722580E+03  0.00000000000E+00 0.  1.
         14    1    3    3    0    0  0.46406703249E+01 -0.31440923340E+02 -0.23800733631E+03  0.24011988593E+03  0.00000000000E+00 0. -1.
         13    1    5    5    0    0 -0.50382855291E+02  0.22206017721E+02  0.63086141399E+03  0.63325955420E+03  0.00000000000E+00 0. -1.
        -14    1    5    5    0    0  0.27086179229E+02 -0.10444120806E+00  0.11148473434E+03  0.11472801752E+03  0.00000000000E+00 0.  1.
          5    1    4    4  501    0  0.30121329685E+02 -0.43208607728E+02  0.37831374606E+02  0.64984333407E+02  0.41800000000E+01 0.  1.
         -5    1    4    4    0  501  0.60189125329E+02  0.90087667444E+02  0.77314202495E+02  0.13316710157E+03  0.41800000000E+01 0.  1.
</event>
<event>
11    1  0.9238666E-009  0.1343103E+03  0.7561462E-02  0.1114084E+00
         22   -1    0    0    0    0  0.00000000000E+00  0.00000000000E+00  0.38281791559E+04  0.38281791559E+04  0.00000000000E+00 0.  1.
         22   -1    0    0    0    0 -0.00000000000E+00 -0.00000000000E+00 -0.65399892172E+03  0.65399892172E+03  0.00000000000E+00 0.  1.
         24    2    1    2    0    0 -0.86909543002E+01 -0.23259946624E+02 -0.63622922279E+03  0.64141475203E+03  0.77515820257E+02 0.  0.
         25    2    1    2    0    0 -0.13516107809E+02  0.66057480516E+02  0.33252441496E+03  0.36161495896E+03  0.12508643448E+03 0.  0.
        -24    2    1    2    0    0  0.22207062109E+02 -0.42797533893E+02  0.34778850420E+04  0.34791483666E+04  0.80400305873E+02 0.  0.
        -13    1    3    3    0    0 -0.20734283897E+02  0.90227485465E+01 -0.51190496189E+03  0.51240414765E+03  0.00000000000E+00 0.  1.
         14    1    3    3    0    0  0.12043329597E+02 -0.32282695170E+02 -0.12432426090E+03  0.12901060438E+03  0.00000000000E+00 0. -1.
         13    1    5    5    0    0  0.26744009258E+02  0.11412938464E+02  0.55841619580E+03  0.55917273264E+03  0.00000000000E+00 0. -1.
        -14    1    5    5    0    0 -0.45369471488E+01 -0.54210472357E+02  0.29194688462E+04  0.29199756340E+04  0.00000000000E+00 0.  1.
          5    1    4    4  501    0 -0.47764987481E+02  0.83992195528E+02  0.18144172430E+03  0.20560825532E+03  0.41800000000E+01 0. -1.
         -5    1    4    4    0  501  0.34248879672E+02 -0.17934715012E+02  0.15108269067E+03  0.15600670364E+03  0.41800000000E+01 0. -1.
</event>
<event>
11    1  0.9238666E-009  0.1691237E+03  0.7561462E-02  0.1078797E+00
         22   -1    0    0    0    0  0.00000000000E+00  0.00000000000E+00  0.40240865039E+03  0.40240865039E+03  0.00000000000E+00 0. -1.
         22   -1    0    0    0    0 -0.00000000000E+00 -0.00000000000E+00 -0.30410599246E+03  0.30410599246E+03  0.00000000000E+00 0. -1.
        -24    2    1    2    0    0  0.32170533366E+02 -0.10924967020E+03 -0.21488924889E+03  0.25624330074E+03  0.80701959261E+02 0.  0.
         25    2    1    2    0    0  0.19623455299E+02  0.12218119948E+03  0.70565202637E+02  0.18958133093E+03  0.12509319610E+03 0.  0.
         24    2    1    2    0    0 -0.51793988666E+02 -0.12931529284E+02  0.24262670418E+03  0.26069001118E+03  0.79004573521E+02 0.  0.
        -11    1    5    5    0    0  0.47765997627E+01 -0.31250491622E+02  0.50565995963E+02  0.59634965244E+02  0.00000000000E+00 0.  1.
         12    1    5    5    0    0 -0.56570588429E+02  0.18318962338E+02  0.19206070822E+03  0.20105504594E+03  0.00000000000E+00 0. -1.
         11    1    3    3    0    0 -0.16493784656E+02 -0.79081197913E+02 -0.10663059033E+03  0.13377579598E+03  0.00000000000E+00 0. -1.
        -12    1    3    3    0    0  0.48664318022E+02 -0.30168472288E+02 -0.10825865856E+03  0.12246750476E+03  0.00000000000E+00 0.  1.
          5    1    4    4  501    0 -0.22068897823E+02  0.55547844334E+02  0.90357257468E+02  0.10841819791E+03  0.41800000000E+01 0.  1.
         -5    1    4    4    0  501  0.41692353122E+02  0.66633355150E+02 -0.19792054831E+02  0.81163133022E+02  0.41800000000E+01 0.  1.
</event>
<event>
11    1  0.9238666E-009  0.2970094E+03  0.7561462E-02  0.1001465E+00
         22   -1    0    0    0    0  0.00000000000E+00  0.00000000000E+00  0.34003398398E+03  0.34003398398E+03  0.00000000000E+00 0.  1.
         22   -1    0    0    0    0 -0.00000000000E+00 -0.00000000000E+00 -0.84374635190E+03  0.84374635190E+03  0.00000000000E+00 0.  1.
         24    2    1    2    0    0  0.70336550958E+02 -0.85706479091E+02 -0.41660513615E+03  0.43866378446E+03  0.81075553440E+02 0.  0.
         25    2    1    2    0    0  0.18329519242E+03 -0.51168383916E+02 -0.30109806675E+03  0.37752230121E+03  0.12509081115E+03 0.  0.
        -24    2    1    2    0    0 -0.25363174338E+03  0.13687486301E+03  0.21399083499E+03  0.36759425022E+03  0.79181222273E+02 0.  0.
        -13    1    3    3    0    0  0.24733594225E+02 -0.70006520017E+02 -0.34096771829E+03  0.34895794653E+03  0.00000000000E+00 0.  1.
         14    1    3    3    0    0  0.45602956732E+02 -0.15699959074E+02 -0.75637417862E+02  0.89705837928E+02  0.00000000000E+00 0. -1.
         11    1    5    5    0    0 -0.51941534528E+02 -0.51412125951E+01  0.38946224929E+02  0.65124216021E+02  0.00000000000E+00 0. -1.
        -12    1    5    5    0    0 -0.20169020885E+03  0.14201607560E+03  0.17504461006E+03  0.30247003420E+03  0.00000000000E+00 0.  1.
          5    1    4    4  501    0  0.81853851982E+02 -0.46325874609E+02 -0.24264689288E+03  0.26027125613E+03  0.41800000000E+01 0.  1.
         -5    1    4    4    0  501  0.10144134044E+03 -0.48425093072E+01 -0.58451173871E+02  0.11725104508E+03  0.41800000000E+01 0.  1.
</event>
<event>
11    1  0.9238666E-009  0.1553299E+03  0.7561462E-02  0.1091554E+00
         22   -1    0    0    0    0  0.00000000000E+00  0.00000000000E+00  0.29885565589E+04  0.29885565589E+04  0.00000000000E+00 0. -1.
         22   -1    0    0    0    0 -0.00000000000E+00 -0.00000000000E+00 -0.54814871952E+02  0.54814871952E+02  0.00000000000E+00 0. -1.
        -24    2    1    2    0    0  0.26511989060E+02 -0.66802899956E+02  0.71273904217E+02  0.12989836326E+03  0.81413158321E+02 0.  0.
         25    2    1    2    0    0  0.25790341920E+02  0.13987286951E+03  0.34838956800E+03  0.39654947855E+03  0.12508651602E+03 0.  0.
         24    2    1    2    0    0 -0.52302330980E+02 -0.73069969558E+02  0.25140782147E+04  0.25169235890E+04  0.78995753027E+02 0.  0.
        -11    1    5    5    0    0 -0.18683956668E+02 -0.57919437215E+02  0.75167037825E+03  0.75413003453E+03  0.00000000000E+00 0.  1.
         12    1    5    5    0    0 -0.33618374312E+02 -0.15150532343E+02  0.17624078365E+04  0.17627935545E+04  0.00000000000E+00 0. -1.
         13    1    3    3    0    0  0.44942558519E+02 -0.36629686364E+02  0.95432383825E+01  0.58759177055E+02  0.00000000000E+00 0. -1.
        -14    1    3    3    0    0 -0.18430569459E+02 -0.30173213592E+02  0.61730665834E+02  0.71139186201E+02  0.00000000000E+00 0.  1.
          5    1    4    4  501    0  0.74404544542E+02  0.95695733309E+02  0.25403799437E+03  0.28150752140E+03  0.41800000000E+01 0. -1.
         -5    1    4    4    0  501 -0.48614202621E+02  0.44177136205E+02  0.94351573631E+02  0.11504195716E+03  0.41800000000E+01 0. -1.
</event>
<event>
11    1  0.9238666E-009  0.1740946E+03  0.7561462E-02  0.1074522E+00
         22   -1    0    0    0    0  0.00000000000E+00  0.00000000000E+00  0.34502185039E+03  0.34502185039E+03  0.00000000000E+00 0.  1.
         22   -1    0    0    0    0 -0.00000000000E+00 -0.00000000000E+00 -0.52290313291E+03  0.52290313291E+03  0.00000000000E+00 0. -1.
         24    2    1    2    0    0 -0.43132056649E+02 -0.94134386668E+02 -0.56959231830E+02  0.14257368191E+03  0.79757404781E+02 0.  0.
         25    2    1    2    0    0  0.38622207041E+02  0.21098953290E+03 -0.36612924858E+03  0.44238762992E+03  0.12509168864E+03 0.  0.
        -24    2    1    2    0    0  0.45098496080E+01 -0.11685514624E+03  0.24520719789E+03  0.28296367148E+03  0.79160631212E+02 0.  0.
        -13    1    3    3    0    0  0.40995005994E+00 -0.18636185929E+02  0.19252153612E+02  0.26797777962E+02  0.00000000000E+00 0.  1.
         14    1    3    3    0    0 -0.43542006709E+02 -0.75498200739E+02 -0.76211385442E+02  0.11577590394E+03  0.00000000000E+00 0. -1.
         11    1    5    5    0    0  0.38126496603E+02 -0.33424611760E+02  0.10079929256E+03  0.11283320342E+03  0.00000000000E+00 0. -1.
        -12    1    5    5    0    0 -0.33616646995E+02 -0.83430534476E+02  0.14440790533E+03  0.17013046805E+03  0.00000000000E+00 0.  1.
          5    1    4    4  501    0 -0.69048929710E+00  0.14524158583E+03 -0.13308365975E+03  0.19703889951E+03  0.41800000000E+01 0. -1.
         -5    1    4    4    0  501  0.39312696338E+02  0.65747947076E+02 -0.23304558883E+03  0.24534873041E+03  0.41800000000E+01 0. -1.
</event>
<event>
11    1  0.9238666E-009  0.1500738E+03  0.7561462E-02  0.1096803E+00
         22   -1    0    0    0    0  0.00000000000E+00  0.00000000000E+00  0.71699627946E+03  0.71699627946E+03  0.00000000000E+00 0.  1.
         22   -1    0    0    0    0 -0.00000000000E+00 -0.00000000000E+00 -0.21125661421E+03  0.21125661421E+03  0.00000000000E+00 0. -1.
        -24    2    1    2    0    0 -0.10533092508E+02 -0.31708687513E+01 -0.15762740790E+03  0.18596840467E+03  0.98065525885E+02 0.  0.
         25    2    1    2    0    0  0.37598706121E+02 -0.75101323735E+02  0.13799432584E+03  0.20431473334E+03  0.12509278463E+03 0.  0.
         24    2    1    2    0    0 -0.27065613613E+02  0.78272192486E+02  0.52537274731E+03  0.53796975566E+03  0.80844609213E+02 0.  0.
        -13    1    5    5    0    0 -0.36237776873E+02 -0.68641047004E+00  0.16622455167E+03  0.17013009496E+03  0.00000000000E+00 0.  1.
         14    1    5    5    0    0  0.91721632596E+01  0.78958602956E+02  0.35914819564E+03  0.36783966071E+03  0.00000000000E+00 0. -1.
         13    1    3    3    0    0 -0.27312833818E+02 -0.29718138186E+02 -0.14757183618E+03  0.15299217451E+03  0.00000000000E+00 0. -1.
        -14    1    3    3    0    0  0.16779741309E+02  0.26547269435E+02 -0.10055571723E+02  0.32976230159E+02  0.00000000000E+00 0.  1.
          5    1    4    4  501    0  0.86370210315E+01 -0.66429348570E+02  0.43826547076E+01  0.67261701926E+02  0.41800000000E+01 0. -1.
         -5    1    4    4    0  501  0.28961685090E+02 -0.86719751650E+01  0.13361167113E+03  0.13705303141E+03  0.41800000000E+01 0. -1.
</event>
<event>
11    1  0.9238666E-009  0.1327804E+03  0.7561462E-02  0.1115899E+00
         22   -1    0    0    0    0  0.00000000000E+00  0.00000000000E+00  0.34168920951E+03  0.34168920951E+03  0.00000000000E+00 0. -1.
         22   -1    0    0    0    0 -0.00000000000E+00 -0.00000000000E+00 -0.21199705717E+03  0.21199705717E+03  0.00000000000E+00 0. -1.
         24    2    1    2    0    0 -0.40961708345E+02 -0.12802238145E+02 -0.12882234428E+03  0.15434883600E+03  0.73393514269E+02 0.  0.
         25    2    1    2    0    0  0.49356567322E+02  0.22236944600E+02  0.97830060795E+01  0.13665162156E+03  0.12508959199E+03 0.  0.
        -24    2    1    2    0    0 -0.83948589771E+01 -0.94347064550E+01  0.24873149054E+03  0.26268580912E+03  0.83528393866E+02 0.  0.
        -13    1    3    3    0    0 -0.51134106410E+02  0.16711825262E+02 -0.80619744911E+02  0.96920200224E+02  0.00000000000E+00 0.  1.
         14    1    3    3    0    0  0.10172398065E+02 -0.29514063407E+02 -0.48202599367E+02  0.57428635775E+02  0.00000000000E+00 0. -1.
         11    1    5    5    0    0 -0.15736633669E+02 -0.18438602270E+02  0.24984189205E+03  0.25101512846E+03  0.00000000000E+00 0. -1.
        -12    1    5    5    0    0  0.73417746921E+01  0.90038958150E+01 -0.11104015093E+01  0.11670680657E+02  0.00000000000E+00 0.  1.
          5    1    4    4  501    0 -0.30248983291E+02  0.32539076332E+02 -0.22569831264E+02  0.50006621181E+02  0.41800000000E+01 0. -1.
         -5    1    4    4    0  501  0.79605550612E+02 -0.10302131731E+02  0.32352837344E+02  0.86645000379E+02  0.41800000000E+01 0. -1.
</event>
<event>
11    1  0.9238666E-009  0.2019799E+03  0.7561462E-02  0.1053132E+00
         22   -1    0    0    0    0  0.00000000000E+00  0.00000000000E+00  0.14596265999E+03  0.14596265999E+03  0.00000000000E+00 0.  1.
         22   -1    0    0    0    0 -0.00000000000E+00 -0.00000000000E+00 -0.22844991901E+04  0.22844991901E+04  0.00000000000E+00 0. -1.
         24    2    1    2    0    0 -0.29270560756E+02 -0.15953846297E+03 -0.20899366102E+04  0.20978093981E+04  0.81608512866E+02 0.  0.
         25    2    1    2    0    0  0.78827789599E+02  0.99094618352E+02 -0.10723386415E+03  0.20779009395E+03  0.12507620767E+03 0.  0.
        -24    2    1    2    0    0 -0.49557228844E+02  0.60443844623E+02  0.58633944226E+02  0.12486235801E+03  0.77738611694E+02 0.  0.
        -13    1    3    3    0    0  0.10067225420E+02  0.28894125182E+01 -0.52785792235E+02  0.53814845482E+02  0.00000000000E+00 0.  1.
         14    1    3    3    0    0 -0.39337786175E+02 -0.16242787549E+03 -0.20371508180E+04  0.20439945527E+04  0.00000000000E+00 0. -1.
         11    1    5    5    0    0 -0.12387732385E+02  0.66791967810E+02  0.19855808278E+02  0.70773413086E+02  0.00000000000E+00 0. -1.
        -12    1    5    5    0    0 -0.37169496459E+02 -0.63481231871E+01  0.38778135948E+02  0.54088944920E+02  0.00000000000E+00 0.  1.
          5    1    4    4  501    0 -0.30024480783E+02  0.35067941656E+00 -0.11938765451E+02  0.32582187508E+02  0.41800000000E+01 0.  1.
         -5    1    4    4    0  501  0.10885227038E+03  0.98743938935E+02 -0.95295098701E+02  0.17520790644E+03  0.41800000000E+01 0.  1.
</event>
<event>
11    1  0.9238666E-009  0.1429526E+03  0.7561462E-02  0.1104305E+00
         22   -1    0    0    0    0  0.00000000000E+00  0.00000000000E+00  0.49720461284E+03  0.49720461284E+03  0.00000000000E+00 0.  1.
         22   -1    0    0    0    0 -0.00000000000E+00 -0.00000000000E+00 -0.16565609434E+03  0.16565609434E+03  0.00000000000E+00 0.  1.
         24    2    1    2    0    0  0.45844284378E+02  0.56750570371E+02 -0.11610367552E+03  0.15811686389E+03  0.78730893094E+02 0.  0.
         25    2    1    2    0    0 -0.35216725647E+02 -0.12179167878E+02  0.19058253999E+03  0.23098250399E+03  0.12507063088E+03 0.  0.
        -24    2    1    2    0    0 -0.10627558731E+02 -0.44571402493E+02  0.25706965404E+03  0.27376133929E+03  0.82224746511E+02 0.  0.
        -13    1    3    3    0    0  0.39823278208E+02  0.37550419788E+02 -0.12473949623E+03  0.13621993038E+03  0.00000000000E+00 0.  1.
         14    1    3    3    0    0  0.60210061702E+01  0.19200150583E+02  0.86358207047E+01  0.21896933505E+02  0.00000000000E+00 0. -1.
         11    1    5    5    0    0 -0.11326516761E+02  0.23457240587E+02  0.67277370389E+02  0.72144138254E+02  0.00000000000E+00 0. -1.
        -12    1    5    5    0    0  0.69895802984E+00 -0.68028643080E+02  0.18979228365E+03  0.20161720104E+03  0.00000000000E+00 0.  1.
          5    1    4    4  501    0 -0.35126561778E+02  0.24018495147E+02  0.18977815665E+03  0.19453530423E+03  0.41800000000E+01 0.  1.
         -5    1    4    4    0  501 -0.90163869295E-01 -0.36197663025E+02  0.80438333596E+00  0.36447199763E+02  0.41800000000E+01 0.  1.
</event>
<event>
11    1  0.9238666E-009  0.2127548E+03  0.7561462E-02  0.1045853E+00
         22   -1    0    0    0    0  0.00000000000E+00  0.00000000000E+00  0.17302510363E+04  0.17302510363E+04  0.00000000000E+00 0.  1.
         22   -1    0    0    0    0 -0.00000000000E+00 -0.00000000000E+00 -0.20160933512E+03  0.20160933512E+03  0.00000000000E+00 0. -1.
         24    2    1    2    0    0  0.19829038377E+02 -0.17004315811E+03 -0.11014766601E+03  0.21893544704E+03  0.80575152881E+02 0.  0.
         25    2    1    2    0    0 -0.45537186172E+02  0.17325910944E+03  0.29772175724E+03  0.36929367797E+03  0.12508885453E+03 0.  0.
        -24    2    1    2    0    0  0.25708147796E+02 -0.32159513268E+01  0.13410676099E+04  0.13436312464E+04  0.78812059103E+02 0.  0.
        -13    1    3    3    0    0 -0.31495562246E+02 -0.59277878763E+02 -0.39872106816E+02  0.78074466080E+02  0.00000000000E+00 0.  1.
         14    1    3    3    0    0  0.51324600622E+02 -0.11076527935E+03 -0.70275559194E+02  0.14086098096E+03  0.00000000000E+00 0. -1.
         11    1    5    5    0    0  0.42732015799E+02 -0.46651513525E+01  0.38191828543E+03  0.38432976148E+03  0.00000000000E+00 0. -1.
        -12    1    5    5    0    0 -0.17023868003E+02  0.14492000258E+01  0.95914932451E+03  0.95930148492E+03  0.00000000000E+00 0.  1.
          5    1    4    4  501    0 -0.25241681000E+02 -0.99631702848E+01  0.13746410725E+02  0.30705755644E+02  0.41800000000E+01 0.  1.
         -5    1    4    4    0  501 -0.20295505173E+02  0.18322227972E+03  0.28397534652E+03  0.33858792233E+03  0.41800000000E+01 0.  1.
</event>
<event>
11    1  0.9238666E-009  0.1838344E+03  0.7561462E-02  0.1066583E+00
         22   -1    0    0    0    0  0.00000000000E+00  0.00000000000E+00  0.37910050172E+03  0.37910050172E+03  0.00000000000E+00 0. -1.
         22   -1    0    0    0    0 -0.00000000000E+00 -0.00000000000E+00 -0.27169069502E+03  0.27169069502E+03  0.00000000000E+00 0. -1.
        -24    2    1    2    0    0 -0.35838628756E+02 -0.46004063398E+02 -0.79770008964E+02  0.12640903328E+03  0.78836591781E+02 0.  0.
         25    2    1    2    0    0  0.53796397536E+02  0.17271086691E+03 -0.63658314295E+02  0.22895942008E+03  0.12508772573E+03 0.  0.
         24    2    1    2    0    0 -0.17957768781E+02 -0.12670680351E+03  0.25083812996E+03  0.29542274339E+03  0.89318163612E+02 0.  0.
        -13    1    5    5    0    0 -0.38475437923E+02 -0.58215555886E+02  0.61426007224E+02  0.92965394820E+02  0.00000000000E+00 0.  1.
         14    1    5    5    0    0  0.20517669142E+02 -0.68491247626E+02  0.18941212274E+03  0.20245734857E+03  0.00000000000E+00 0. -1.
         13    1    3    3    0    0  0.12660117829E+02 -0.47604945120E+02 -0.35441037662E+02  0.60684236288E+02  0.00000000000E+00 0. -1.
        -14    1    3    3    0    0 -0.48498746584E+02  0.16008817221E+01 -0.44328971301E+02  0.65724796988E+02  0.00000000000E+00 0.  1.
          5    1    4    4  501    0  0.12226832421E+02  0.10390369027E+02  0.31950729930E+02  0.35996899069E+02  0.41800000000E+01 0.  1.
         -5    1    4    4    0  501  0.41569565116E+02  0.16232049788E+03 -0.95609044224E+02  0.19296252101E+03  0.41800000000E+01 0.  1.
</event>
<event>
11    1  0.9238666E-009  0.1882416E+03  0.7561462E-02  0.1063165E+00
         22   -1    0    0    0    0  0.00000000000E+00  0.00000000000E+00  0.24701135103E+03  0.24701135103E+03  0.00000000000E+00 0.  1.
         22   -1    0    0    0    0 -0.00000000000E+00 -0.00000000000E+00 -0.79105481223E+03  0.79105481223E+03  0.00000000000E+00 0. -1.
        -24    2    1    2    0    0 -0.68212784267E+02 -0.10639441934E+03 -0.51245594636E+03  0.53581702355E+03  0.92282335041E+02 0.  0.
         25    2    1    2    0    0  0.87072059421E+02  0.22298988986E+03 -0.15684133464E+03  0.31233435353E+03  0.12509000612E+03 0.  0.
         24    2    1    2    0    0 -0.18859275154E+02 -0.11659547052E+03  0.12525381981E+03  0.18991478618E+03  0.80180612551E+02 0.  0.
        -11    1    5    5    0    0 -0.39728413864E+02 -0.88200530569E+02  0.12023782129E+03  0.15432049160E+03  0.00000000000E+00 0.  1.
         12    1    5    5    0    0  0.20869138710E+02 -0.28394939950E+02  0.50159985185E+01  0.35594294577E+02  0.00000000000E+00 0. -1.
         11    1    3    3    0    0 -0.28111631328E+02 -0.72442847987E+02 -0.43708645239E+03  0.44394008256E+03  0.00000000000E+00 0. -1.
        -12    1    3    3    0    0 -0.40101152939E+02 -0.33951571352E+02 -0.75369493978E+02  0.91876940996E+02  0.00000000000E+00 0.  1.
          5    1    4    4  501    0  0.68980215781E+02  0.37332683474E+02 -0.74960366072E+02  0.10857498932E+03  0.41800000000E+01 0. -1.
         -5    1    4    4    0  501  0.18091843640E+02  0.18565720638E+03 -0.81880968569E+02  0.20375936421E+03  0.41800000000E+01 0. -1.
</event>
<event>
11    1  0.9238666E-009  0.3987902E+03  0.7561462E-02  0.9653334E-01
         22   -1    0    0    0    0  0.00000000000E+00  0.00000000000E+00  0.26051680771E+04  0.26051680771E+04  0.00000000000E+00 0. -1.
         22   -1    0    0    0    0 -0.00000000000E+00 -0.00000000000E+00 -0.14003948885E+03  0.14003948885E+03  0.00000000000E+00 0.  1.
        -24    2    1    2    0    0 -0.26579062557E+03 -0.20432257211E+03  0.11824210879E+03  0.36468036780E+03  0.81352346329E+02 0.  0.
         25    2    1    2    0    0  0.12217319979E+03  0.94458267613E+02  0.10468169157E+04  0.10655208242E+04  0.12514118684E+03 0.  0.
         24    2    1    2    0    0  0.14361742579E+03  0.10986430450E+03  0.13000695638E+04  0.13150063740E+04  0.79779462284E+02 0.  0.
        -13    1    5    5    0    0  0.66686534245E+02  0.51182298513E+02  0.34697781901E+03  0.35701586577E+03  0.00000000000E+00 0.  1.
         14    1    5    5    0    0  0.76930891543E+02  0.58682005986E+02  0.95309174478E+03  0.95799050824E+03  0.00000000000E+00 0. -1.
         11    1    3    3    0    0 -0.84772444418E+02 -0.24265487519E+02  0.45371465686E+02  0.99165271721E+02  0.00000000000E+00 0. -1.
        -12    1    3    3    0    0 -0.18101818116E+03 -0.18005708459E+03  0.72870643100E+02  0.26551509608E+03  0.00000000000E+00 0.  1.
          5    1    4    4  501    0  0.21529103403E+02 -0.29108668198E+02  0.13306185087E+03  0.13796284070E+03  0.41800000000E+01 0. -1.
         -5    1    4    4    0  501  0.10064409638E+03  0.12356693581E+03  0.91375506484E+03  0.92755798346E+03  0.41800000000E+01 0. -1.
</event>
<event>
11    1  0.9238666E-009  0.1807658E+03  0.7561462E-02  0.1069025E+00
         22   -1    0    0    0    0  0.00000000000E+00  0.00000000000E+00  0.94525328750E+02  0.94525328750E+02  0.00000000000E+00 0.  1.
         22   -1    0    0    0    0 -0.00000000000E+00 -0.00000000000E+00 -0.27641901532E+04  0.27641901532E+04  0.00000000000E+00 0. -1.
         24    2    1    2    0    0 -0.31553064466E+02 -0.83952197886E+02 -0.24423810098E+04  0.24453382916E+04  0.80067447416E+02 0.  0.
         25    2    1    2    0    0  0.45887717981E+02 -0.77366526521E+02 -0.16103831019E+03  0.22287271351E+03  0.12509055516E+03 0.  0.
        -24    2    1    2    0    0 -0.14334653516E+02  0.16131872441E+03 -0.66245504495E+02  0.19050447684E+03  0.75327788320E+02 0.  0.
        -13    1    3    3    0    0 -0.19754976459E+02 -0.72514785891E+01 -0.13306292472E+03  0.13471668408E+03  0.00000000000E+00 0.  1.
         14    1    3    3    0    0 -0.11798088007E+02 -0.76700719297E+02 -0.23093180851E+04  0.23106216075E+04  0.00000000000E+00 0. -1.
         11    1    5    5    0    0  0.69007340420E+01 -0.36607644763E+01 -0.14208749596E+02  0.16214496352E+02  0.00000000000E+00 0. -1.
        -12    1    5    5    0    0 -0.21235387558E+02  0.16497948888E+03 -0.52036754900E+02  0.17428998048E+03  0.00000000000E+00 0.  1.
          5    1    4    4  501    0 -0.13844759012E+02 -0.68304606316E+02 -0.14388508011E+03  0.15992993864E+03  0.41800000000E+01 0.  1.
         -5    1    4    4    0  501  0.59732476993E+02 -0.90619202048E+01 -0.17153230083E+02  0.62942774866E+02  0.41800000000E+01 0.  1.
</event>
<event>
11    1  0.9238666E-009  0.1396603E+03  0.7561462E-02  0.1107938E+00
         22   -1    0    0    0    0  0.00000000000E+00  0.00000000000E+00  0.15743912497E+04  0.15743912497E+04  0.00000000000E+00 0.  1.
         22   -1    0    0    0    0 -0.00000000000E+00 -0.00000000000E+00 -0.11937531157E+04  0.11937531157E+04  0.00000000000E+00 0.  1.
         24    2    1    2    0    0  0.34914414519E+02  0.36669539833E+02 -0.96199975969E+03  0.96626569092E+03  0.75247433862E+02 0.  0.
         25    2    1    2    0    0  0.20615100097E+02 -0.80626687615E+01 -0.21022765612E+03  0.24562712294E+03  0.12508807755E+03 0.  0.
        -24    2    1    2    0    0 -0.55529514617E+02 -0.28606871072E+02  0.15528655498E+04  0.15562515516E+04  0.81397764683E+02 0.  0.
        -11    1    3    3    0    0  0.30693332788E+02  0.57394428979E+02 -0.83346020433E+03  0.83599767545E+03  0.00000000000E+00 0.  1.
         12    1    3    3    0    0  0.42210817312E+01 -0.20724889146E+02 -0.12853955536E+03  0.13026801546E+03  0.00000000000E+00 0. -1.
         11    1    5    5    0    0 -0.23878181647E+02 -0.40169359049E+01  0.10208129565E+03  0.10491374673E+03  0.00000000000E+00 0. -1.
        -12    1    5    5    0    0 -0.31651332970E+02 -0.24589935167E+02  0.14507842541E+04  0.14513378049E+04  0.00000000000E+00 0.  1.
          5    1    4    4  501    0  0.20629320769E+02 -0.65721122360E+02 -0.10729573379E+03  0.12757226065E+03  0.41800000000E+01 0. -1.
         -5    1    4    4    0  501 -0.14220671824E-01  0.57658453598E+02 -0.10293192234E+03  0.11805486229E+03  0.41800000000E+01 0. -1.
</event>
<event>
11    1  0.9238666E-009  0.1682801E+03  0.7561462E-02  0.1079538E+00
         22   -1    0    0    0    0  0.00000000000E+00  0.00000000000E+00  0.21464544288E+04  0.21464544288E+04  0.00000000000E+00 0. -1.
         22   -1    0    0    0    0 -0.00000000000E+00 -0.00000000000E+00 -0.70882931479E+02  0.70882931479E+02  0.00000000000E+00 0.  1.
        -24    2    1    2    0    0  0.25375525707E+02  0.49930241370E+02 -0.86997271950E+01  0.10145382777E+03  0.84144207215E+02 0.  0.
         25    2    1    2    0    0 -0.15595673931E+02 -0.15220043643E+03  0.76375483967E+03  0.78890874441E+03  0.12508938399E+03 0.  0.
         24    2    1    2    0    0 -0.97798517767E+01  0.10227019506E+03  0.13205163849E+04  0.13269747881E+04  0.80893308220E+02 0.  0.
        -13    1    5    5    0    0  0.23856307205E+02  0.72300148901E+02  0.56362676217E+03  0.56874560390E+03  0.00000000000E+00 0.  1.
         14    1    5    5    0    0 -0.33636158982E+02  0.29970046163E+02  0.75688962269E+03  0.75822918421E+03  0.00000000000E+00 0. -1.
         11    1    3    3    0    0 -0.22919588772E+02 -0.35135606551E+01 -0.17271970872E+02  0.28913208673E+02  0.00000000000E+00 0. -1.
        -12    1    3    3    0    0  0.48295114479E+02  0.53443802025E+02  0.85722436774E+01  0.72540619097E+02  0.00000000000E+00 0.  1.
          5    1    4    4  501    0  0.10568619193E+02 -0.59568361025E+02  0.56272639747E+03  0.56598459004E+03  0.41800000000E+01 0.  1.
         -5    1    4    4    0  501 -0.26164293124E+02 -0.92632075408E+02  0.20102844220E+03  0.22292415437E+03  0.41800000000E+01 0.  1.
</event>
<event>
11    1  0.9238666E-009  0.1521029E+03  0.7561462E-02  0.1094749E+00
         22   -1    0    0    0    0  0.00000000000E+00  0.00000000000E+00  0.43262830863E+03  0.43262830863E+03  0.00000000000E+00 0. -1.
         22   -1    0    0    0    0 -0.00000000000E+00 -0.00000000000E+00 -0.95459195743E+03  0.95459195743E+03  0.00000000000E+00 0.  1.
        -24    2    1    2    0    0  0.29730948679E+02  0.85306999096E+02 -0.89523266349E+03  0.90351552038E+03  0.82082643588E+02 0.  0.
         25    2    1    2    0    0 -0.60683914643E+02  0.13531173094E+02  0.76252660750E+02  0.15914564806E+03  0.12508892390E+03 0.  0.
         24    2    1    2    0    0  0.30952965964E+02 -0.98838172190E+02  0.29701635394E+03  0.32455909763E+03  0.79955130923E+02 0.  0.
        -13    1    5    5    0    0 -0.73356995255E+01 -0.93999346909E+01 -0.95611621236E-01  0.11923942356E+02  0.00000000000E+00 0.  1.
         14    1    5    5    0    0  0.38288665489E+02 -0.89438237499E+02  0.29711196556E+03  0.31263515527E+03  0.00000000000E+00 0. -1.
         13    1    3    3    0    0  0.20124185929E+02  0.72614700554E+02 -0.34858757153E+03  0.35663871441E+03  0.00000000000E+00 0. -1.
        -14    1    3    3    0    0  0.96067627503E+01  0.12692298542E+02 -0.54664509197E+03  0.54687680597E+03  0.00000000000E+00 0.  1.
          5    1    4    4  501    0  0.15108211277E+02 -0.40888315926E+02  0.10820778274E+02  0.45107361591E+02  0.41800000000E+01 0. -1.
         -5    1    4    4    0  501 -0.75792125920E+02  0.54419489020E+02  0.65431882476E+02  0.11403828647E+03  0.41800000000E+01 0. -1.
</event>
<event>
11    1  0.9238666E-009  0.1471234E+03  0.7561462E-02  0.1099855E+00
         22   -1    0    0    0    0  0.00000000000E+00  0.00000000000E+00  0.15771151323E+03  0.15771151323E+03  0.00000000000E+00 0.  1.
         22   -1    0    0    0    0 -0.00000000000E+00 -0.00000000000E+00 -0.12571662334E+04  0.12571662334E+04  0.00000000000E+00 0.  1.
         24    2    1    2    0    0 -0.78641953551E+02 -0.25845213148E+02 -0.84824052923E+03  0.85640887076E+03  0.84092963947E+02 0.  0.
         25    2    1    2    0    0  0.55487644824E+02  0.27024944272E+02 -0.37966868084E+03  0.40448015992E+03  0.12508663484E+03 0.  0.
        -24    2    1    2    0    0  0.23154308727E+02 -0.11797311240E+01  0.12845448986E+03  0.15398871599E+03  0.81697337221E+02 0.  0.
        -11    1    3    3    0    0 -0.66506821906E+02 -0.72383092564E+00 -0.77789203968E+03  0.78073023938E+03  0.00000000000E+00 0.  1.
         12    1    3    3    0    0 -0.12135131645E+02 -0.25121382223E+02 -0.70348489550E+02  0.75678631375E+02  0.00000000000E+00 0. -1.
         13    1    5    5    0    0  0.37601925009E+02 -0.76693134112E+01  0.17970460575E+02  0.42375235526E+02  0.00000000000E+00 0. -1.
        -14    1    5    5    0    0 -0.14447616283E+02  0.64895822872E+01  0.11048402928E+03  0.11161348046E+03  0.00000000000E+00 0.  1.
          5    1    4    4  501    0  0.76999470453E+02  0.51593109776E+02 -0.18407799629E+03  0.20613817828E+03  0.41800000000E+01 0. -1.
         -5    1    4    4    0  501 -0.21511825629E+02 -0.24568165504E+02 -0.19559068454E+03  0.19834198163E+03  0.41800000000E+01 0. -1.
</event>
<event>
11    1  0.9238666E-009  0.1856055E+03  0.7561462E-02  0.1065197E+00
         22   -1    0    0    0    0  0.00000000000E+00  0.00000000000E+00  0.49398430606E+03  0.49398430606E+03  0.00000000000E+00 0. -1.
         22   -1    0    0    0    0 -0.00000000000E+00 -0.00000000000E+00 -0.36854833462E+03  0.36854833462E+03  0.00000000000E+00 0.  1.
         24    2    1    2    0    0 -0.76288515173E+02 -0.10642756302E+03 -0.24842847510E+03  0.29202351011E+03  0.80089072285E+02 0.  0.
         25    2    1    2    0    0  0.23074821516E+02  0.22033531290E+03  0.13326548569E+03  0.28720719350E+03  0.12509270493E+03 0.  0.
        -24    2    1    2    0    0  0.53213693657E+02 -0.11390774988E+03  0.24059896085E+03  0.28330193706E+03  0.81027494767E+02 0.  0.
        -13    1    3    3    0    0 -0.43278182920E+02 -0.10742724814E+03 -0.15913629922E+03  0.19681965473E+03  0.00000000000E+00 0.  1.
         14    1    3    3    0    0 -0.33010332253E+02  0.99968511840E+00 -0.89292175880E+02  0.95203855380E+02  0.00000000000E+00 0. -1.
         11    1    5    5    0    0  0.37559887228E+02 -0.87371809764E+02  0.23286549630E+03  0.25153710986E+03  0.00000000000E+00 0. -1.
        -12    1    5    5    0    0  0.15653806429E+02 -0.26535940115E+02  0.77334645510E+01  0.31764827207E+02  0.00000000000E+00 0.  1.
          5    1    4    4  501    0  0.35984362497E+02  0.12442723961E+02 -0.27507947248E+01  0.38402278519E+02  0.41800000000E+01 0.  1.
         -5    1    4    4    0  501 -0.12909540981E+02  0.20789258893E+03  0.13601628042E+03  0.24880491498E+03  0.41800000000E+01 0.  1.
</event>
<event>
11    1  0.9238666E-009  0.1288847E+03  0.7561462E-02  0.1120647E+00
         22   -1    0    0    0    0  0.00000000000E+00  0.00000000000E+00  0.11307663722E+03  0.11307663722E+03  0.00000000000E+00 0.  1.
         22   -1    0    0    0    0 -0.00000000000E+00 -0.00000000000E+00 -0.53729204482E+03  0.53729204482E+03  0.00000000000E+00 0.  1.
        -24    2    1    2    0    0 -0.97218238029E+01 -0.29788264574E+02 -0.43115616010E+03  0.43962788615E+03  0.79969927612E+02 0.  0.
         25    2    1    2    0    0  0.10938389051E+02  0.23697955658E+02  0.17417560412E+02  0.12896695585E+03  0.12509141791E+03 0.  0.
         24    2    1    2    0    0 -0.12165652481E+01  0.60903089157E+01 -0.10476807915E+02  0.81773840035E+02  0.80861767952E+02 0.  0.
        -11    1    5    5    0    0 -0.34995993573E+01 -0.24769119842E+01  0.35090765262E+02  0.35351719835E+02  0.00000000000E+00 0.  1.
         12    1    5    5    0    0  0.22830341092E+01  0.85672208999E+01 -0.45567573177E+02  0.46422120200E+02  0.00000000000E+00 0. -1.
         11    1    3    3    0    0  0.19543787994E+02 -0.15125868345E+02 -0.39417877537E+02  0.46524408775E+02  0.00000000000E+00 0. -1.
        -12    1    3    3    0    0 -0.29265611797E+02 -0.14662396229E+02 -0.39173828256E+03  0.39310347737E+03  0.00000000000E+00 0.  1.
          5    1    4    4  501    0  0.30214186468E+02  0.39368053208E+02 -0.41540750653E+02  0.64852502204E+02  0.41800000000E+01 0.  1.
         -5    1    4    4    0  501 -0.19275797417E+02 -0.15670097550E+02  0.58958311065E+02  0.64114453650E+02  0.41800000000E+01 0.  1.
</event>
<event>
11    1  0.9238666E-009  0.1590541E+03  0.7561462E-02  0.1087970E+00
         22   -1    0    0    0    0  0.00000000000E+00  0.00000000000E+00  0.84857277778E+03  0.84857277778E+03  0.00000000000E+00 0. -1.
         22   -1    0    0    0    0 -0.00000000000E+00 -0.00000000000E+00 -0.27440305563E+03  0.27440305563E+03  0.00000000000E+00 0.  1.
        -24    2    1    2    0    0  0.29608965729E+02  0.90694902699E+02 -0.19087394942E+03  0.22779963883E+03  0.79734275287E+02 0.  0.
         25    2    1    2    0    0 -0.98115682080E+02 -0.90804729614E+02  0.76224532633E+02  0.19831550222E+03  0.12508666218E+03 0.  0.
         24    2    1    2    0    0  0.68506716351E+02  0.10982691488E+00  0.68881913894E+03  0.69686069235E+03  0.80310871773E+02 0.  0.
        -11    1    5    5    0    0  0.12030787079E+02 -0.57740170782E+01  0.12898949135E+02  0.18559687491E+02  0.00000000000E+00 0.  1.
         12    1    5    5    0    0  0.56475929272E+02  0.58838439931E+01  0.67592018981E+03  0.67830100486E+03  0.00000000000E+00 0. -1.
         13    1    3    3    0    0  0.43409414463E+02  0.13263544785E+02 -0.62406783323E+02  0.77168034113E+02  0.00000000000E+00 0. -1.
        -14    1    3    3    0    0 -0.13800448733E+02  0.77431357914E+02 -0.12846716610E+03  0.15063160472E+03  0.00000000000E+00 0.  1.
          5    1    4    4  501    0 -0.12195626403E+00 -0.72507074870E+01 -0.30113265681E+02  0.31254900454E+02  0.41800000000E+01 0.  1.
         -5    1    4    4    0  501 -0.97993725816E+02 -0.83554022127E+02  0.10633779831E+03  0.16706060177E+03  0.41800000000E+01 0.  1.
</event>
<event>
11    1  0.9238666E-009  0.2990540E+03  0.7561462E-02  0.1000592E+00
         22   -1    0    0    0    0  0.00000000000E+00  0.00000000000E+00  0.60315389897E+03  0.60315389897E+03  0.00000000000E+00 0. -1.
         22   -1    0    0    0    0 -0.00000000000E+00 -0.00000000000E+00 -0.13474509122E+04  0.13474509122E+04  0.00000000000E+00 0. -1.
        -24    2    1    2    0    0  0.22370734953E+03  0.17360344048E+03 -0.12360048771E+04  0.12704084879E+04  0.77759482978E+02 0.  0.
         25    2    1    2    0    0 -0.17339918619E+03 -0.53660864876E+02  0.69917192638E+02  0.23126696039E+03  0.12509687026E+03 0.  0.
         24    2    1    2    0    0 -0.50308163341E+02 -0.11994257561E+03  0.42179067114E+03  0.44892936295E+03  0.81933326049E+02 0.  0.
        -11    1    5    5    0    0 -0.51800388320E+02 -0.32724312304E+02  0.11933001565E+03  0.13414102087E+03  0.00000000000E+00 0.  1.
         12    1    5    5    0    0  0.14922249786E+01 -0.87218263303E+02  0.30246065549E+03  0.31478834208E+03  0.00000000000E+00 0. -1.
         11    1    3    3    0    0  0.19542668123E+03  0.17634074319E+03 -0.10642380191E+04  0.10963075330E+04  0.00000000000E+00 0. -1.
        -12    1    3    3    0    0  0.28280668299E+02 -0.27373027058E+01 -0.17176685792E+03  0.17410095492E+03  0.00000000000E+00 0.  1.
          5    1    4    4  501    0 -0.15313596933E+03 -0.50612495695E+02  0.32216283075E+01  0.16136945533E+03  0.41800000000E+01 0.  1.
         -5    1    4    4    0  501 -0.20263216857E+02 -0.30483691810E+01  0.66695564331E+02  0.69897505059E+02  0.41800000000E+01 0.  1.
</event>
<event>
11    1  0.9238666E-009  0.1456359E+03  0.7561462E-02  0.1101423E+00
         22   -1    0    0    0    0  0.00000000000E+00  0.00000000000E+00  0.17728486518E+04  0.17728486518E+04  0.00000000000E+00 0. -1.
         22   -1    0    0    0    0 -0.00000000000E+00 -0.00000000000E+00 -0.46264222969E+03  0.46264222969E+03  0.00000000000E+00 0. -1.
        -24    2    1    2    0    0 -0.23677675697E+02 -0.67525738555E+02 -0.38814582392E+03  0.40374513784E+03  0.85044682452E+02 0.  0.
         25    2    1    2    0    0  0.23969889418E+02  0.11963388788E+03  0.51647293198E+02  0.18218705601E+03  0.12505142044E+03 0.  0.
         24    2    1    2    0    0 -0.29221372110E+00 -0.52108149328E+02  0.16467049528E+04  0.16495586876E+04  0.81800474719E+02 0.  0.
        -11    1    5    5    0    0 -0.25719747404E+02  0.95537739382E+01  0.31829794010E+03  0.31947826009E+03  0.00000000000E+00 0.  1.
         12    1    5    5    0    0  0.25427533683E+02 -0.61661923266E+02  0.13284070127E+04  0.13300804275E+04  0.00000000000E+00 0. -1.
         13    1    3    3    0    0 -0.19358508562E+02 -0.30440238207E+02 -0.34417901980E+03  0.34606438364E+03  0.00000000000E+00 0. -1.
        -14    1    3    3    0    0 -0.43191671349E+01 -0.37085500348E+02 -0.43966804120E+02  0.57680754203E+02  0.00000000000E+00 0.  1.
          5    1    4    4  501    0  0.58374404430E+02  0.21192223267E+02 -0.67295749120E+01  0.62605439045E+02  0.41800000000E+01 0. -1.
         -5    1    4    4    0  501 -0.34404515012E+02  0.98441664617E+02  0.58376868110E+02  0.11958161697E+03  0.41800000000E+01 0. -1.
</event>
<event>
11    1  0.9238666E-009  0.1849548E+03  0.7561462E-02  0.1065704E+00
         22   -1    0    0    0    0  0.00000000000E+00  0.00000000000E+00  0.78514087171E+03  0.78514087171E+03  0.00000000000E+00 0.  1.
         22   -1    0    0    0    0 -0.00000000000E+00 -0.00000000000E+00 -0.25733601765E+03  0.25733601765E+03  0.00000000000E+00 0.  1.
        -24    2    1    2    0    0  0.13878476361E+03  0.10406007926E+02 -0.19106125386E+03  0.24909735204E+03  0.78584937828E+02 0.  0.
         25    2    1    2    0    0 -0.11432566207E+03 -0.10567823078E+02  0.17777621905E+03  0.24583358907E+03  0.12509090120E+03 0.  0.
         24    2    1    2    0    0 -0.24459101543E+02  0.16181515131E+00  0.54108988888E+03  0.54754594826E+03  0.80187429028E+02 0.  0.
        -13    1    5    5    0    0  0.57224986703E+01  0.72238539343E+01  0.46880302111E+03  0.46889359524E+03  0.00000000000E+00 0.  1.
         14    1    5    5    0    0 -0.30181600213E+02 -0.70620387830E+01  0.72286867773E+02  0.78652353021E+02  0.00000000000E+00 0. -1.
         13    1    3    3    0    0  0.48348201741E+02  0.27196331433E+02 -0.28616907751E+02  0.62418879069E+02  0.00000000000E+00 0. -1.
        -14    1    3    3    0    0  0.90436561870E+02 -0.16790323507E+02 -0.16244434611E+03  0.18667847297E+03  0.00000000000E+00 0.  1.
          5    1    4    4  501    0 -0.46738385884E+01  0.40013728421E+02  0.15170414440E+02  0.43249937613E+02  0.41800000000E+01 0. -1.
         -5    1    4    4    0  501 -0.10965182348E+03 -0.50581551499E+02  0.16260580461E+03  0.20258365145E+03  0.41800000000E+01 0. -1.
</event>
<event>
11    1  0.9238666E-009  0.1530988E+03  0.7561462E-02  0.1093754E+00
         22   -1    0    0    0    0  0.00000000000E+00  0.00000000000E+00  0.33021169551E+03  0.33021169551E+03  0.00000000000E+00 0.  1.
         22   -1    0    0    0    0 -0.00000000000E+00 -0.00000000000E+00 -0.25457017033E+04  0.25457017033E+04  0.00000000000E+00 0. -1.
         24    2    1    2    0    0  0.69464780430E+02 -0.48633349415E+02 -0.16528814038E+04  0.16570452095E+04  0.81187022542E+02 0.  0.
         25    2    1    2    0    0 -0.39587162449E+02  0.11283812646E+03 -0.87326841877E+03  0.89024663593E+03  0.12506700341E+03 0.  0.
        -24    2    1    2    0    0 -0.29877617981E+02 -0.64204777044E+02  0.31065981479E+03  0.32862155346E+03  0.80421883967E+02 0.  0.
        -11    1    3    3    0    0  0.38878826855E+01  0.19497520913E+02 -0.45637605847E+03  0.45680890501E+03  0.00000000000E+00 0.  1.
         12    1    3    3    0    0  0.65576897745E+02 -0.68130870328E+02 -0.11965053454E+04  0.12002363044E+04  0.00000000000E+00 0. -1.
         11    1    5    5    0    0  0.10892405407E+02  0.57185793070E+01  0.65759292305E+01  0.13949533687E+02  0.00000000000E+00 0. -1.
        -12    1    5    5    0    0 -0.40770023388E+02 -0.69923356351E+02  0.30408388556E+03  0.31467201978E+03  0.00000000000E+00 0.  1.
          5    1    4    4  501    0  0.35708033247E+02 -0.14958568455E+01 -0.17037055794E+03  0.17412897702E+03  0.41800000000E+01 0.  1.
         -5    1    4    4    0  501 -0.75295195696E+02  0.11433398330E+03 -0.70289786083E+03  0.71611765891E+03  0.41800000000E+01 0.  1.
</event>
<event>
11    1  0.9238666E-009  0.1507658E+03  0.7561462E-02  0.1096099E+00
         22   -1    0    0    0    0  0.00000000000E+00  0.00000000000E+00  0.44160344022E+03  0.44160344022E+03  0.00000000000E+00 0. -1.
         22   -1    0    0    0    0 -0.00000000000E+00 -0.00000000000E+00 -0.47372723799E+03  0.47372723799E+03  0.00000000000E+00 0.  1.
        -24    2    1    2    0    0 -0.39473250309E+01 -0.12250206516E+03 -0.27147488758E+03  0.30943205335E+03  0.83828656882E+02 0.  0.
         25    2    1    2    0    0 -0.10918217131E+01  0.35119466760E+02 -0.14989934649E+03  0.19837831013E+03  0.12509824473E+03 0.  0.
         24    2    1    2    0    0  0.50391467439E+01  0.87382598400E+02  0.38925043630E+03  0.40752031473E+03  0.83040913113E+02 0.  0.
        -11    1    5    5    0    0  0.11582792978E+02 -0.10363356805E+02  0.11998910969E+03  0.12099151500E+03  0.00000000000E+00 0.  1.
         12    1    5    5    0    0 -0.65436462342E+01  0.97745955205E+02  0.26926132661E+03  0.28652879973E+03  0.00000000000E+00 0. -1.
         13    1    3    3    0    0 -0.25369009280E+01 -0.79065197018E+02 -0.77844074973E+02  0.11098396846E+03  0.00000000000E+00 0. -1.
        -14    1    3    3    0    0 -0.14104241029E+01 -0.43436868142E+02 -0.19363081260E+03  0.19844808490E+03  0.00000000000E+00 0.  1.
          5    1    4    4  501    0  0.39550904538E+02  0.58002336407E+02 -0.44977676494E+02  0.83480589727E+02  0.41800000000E+01 0. -1.
         -5    1    4    4    0  501 -0.40642726251E+02 -0.22882869647E+02 -0.10492166999E+03  0.11489772041E+03  0.41800000000E+01 0. -1.
</event>
<event>
11    1  0.9238666E-009  0.1413734E+03  0.7561462E-02  0.1106034E+00
         22   -1    0    0    0    0  0.00000000000E+00  0.00000000000E+00  0.39523336661E+03  0.39523336661E+03  0.00000000000E+00 0.  1.
         22   -1    0    0    0    0 -0.00000000000E+00 -0.00000000000E+00 -0.54199868561E+03  0.54199868561E+03  0.00000000000E+00 0. -1.
        -24    2    1    2    0    0 -0.30816781610E+02 -0.55534614719E+02 -0.33315726787E+03  0.34868498890E+03  0.80954857095E+02 0.  0.
         25    2    1    2    0    0 -0.32304233407E+01  0.83764345779E+02 -0.16576942133E+03  0.22395044721E+03  0.12508956991E+03 0.  0.
         24    2    1    2    0    0  0.34047204950E+02 -0.28229731059E+02  0.35216137020E+03  0.36459661611E+03  0.83408224648E+02 0.  0.
        -11    1    5    5    0    0 -0.10883259183E+01 -0.55692904556E+01  0.28774922903E+03  0.28780517760E+03  0.00000000000E+00 0.  1.
         12    1    5    5    0    0  0.35135530869E+02 -0.22660440604E+02  0.64412141169E+02  0.76791438506E+02  0.00000000000E+00 0. -1.
         11    1    3    3    0    0 -0.54066356039E+02 -0.46077426250E+02 -0.29166994304E+03  0.30019602885E+03  0.00000000000E+00 0. -1.
        -12    1    3    3    0    0  0.23249574429E+02 -0.94571884697E+01 -0.41487324833E+02  0.48488960049E+02  0.00000000000E+00 0.  1.
          5    1    4    4  501    0 -0.23468671933E+02 -0.19242464009E+02 -0.37694054805E+01  0.30866353867E+02  0.41800000000E+01 0. -1.
         -5    1    4    4    0  501  0.20238248592E+02  0.10300680979E+03 -0.16200001585E+03  0.19308409335E+03  0.41800000000E+01 0. -1.
</event>
<event>
11    1  0.9238666E-009  0.1948317E+03  0.7561462E-02  0.1058240E+00
         22   -1    0    0    0    0  0.00000000000E+00  0.00000000000E+00  0.61002670379E+03  0.61002670379E+03  0.00000000000E+00 0.  1.
         22   -1    0    0    0    0 -0.00000000000E+00 -0.00000000000E+00 -0.10757229501E+03  0.10757229501E+03  0.00000000000E+00 0. -1.
         24    2    1    2    0    0  0.29446403258E+02 -0.82002709431E+02  0.80712613793E+02  0.14309214311E+03  0.79807896707E+02 0.  0.
         25    2    1    2    0    0 -0.15643549537E+03  0.11524666983E+03  0.20934784317E+03  0.31181365169E+03  0.12508946728E+03 0.  0.
        -24    2    1    2    0    0  0.12698909211E+03 -0.33243960396E+02  0.21239395182E+03  0.26269320399E+03  0.81640297869E+02 0.  0.
        -13    1    3    3    0    0 -0.23477674520E+01 -0.83893932932E+02  0.70606994276E+02  0.10967703331E+03  0.00000000000E+00 0.  1.
         14    1    3    3    0    0  0.31794170710E+02  0.18912235009E+01  0.10105619517E+02  0.33415109805E+02  0.00000000000E+00 0. -1.
         11    1    5    5    0    0  0.31974914046E+02 -0.45370743766E+02  0.10515529615E+03  0.11890557526E+03  0.00000000000E+00 0. -1.
        -12    1    5    5    0    0  0.95014178064E+02  0.12126783369E+02  0.10723865567E+03  0.14378762873E+03  0.00000000000E+00 0.  1.
          5    1    4    4  501    0 -0.11522558868E+03  0.13364503185E+03  0.12575745000E+03  0.21672641614E+03  0.41800000000E+01 0. -1.
         -5    1    4    4    0  501 -0.41209906693E+02 -0.18398362020E+02  0.83590393170E+02  0.95087235552E+02  0.41800000000E+01 0. -1.
</event>
<event>
11    1  0.9238666E-009  0.1597799E+03  0.7561462E-02  0.1087284E+00
         22   -1    0    0    0    0  0.00000000000E+00  0.00000000000E+00  0.58177992121E+03  0.58177992121E+03  0.00000000000E+00 0.  1.
         22   -1    0    0    0    0 -0.00000000000E+00 -0.00000000000E+00 -0.41045252713E+03  0.41045252713E+03  0.00000000000E+00 0.  1.
         24    2    1    2    0    0 -0.29924296101E+02  0.24789318508E+02 -0.12572068946E+03  0.15415193447E+03  0.80294167480E+02 0.  0.
         25    2    1    2    0    0  0.20427306699E+02  0.74946230821E+02 -0.24219046521E+03  0.28344031278E+03  0.12509187463E+03 0.  0.
        -24    2    1    2    0    0  0.94969894024E+01 -0.99735549329E+02  0.53923854874E+03  0.55464020109E+03  0.82523739682E+02 0.  0.
        -13    1    3    3    0    0  0.17184398200E+02 -0.81736694063E+00 -0.85265654957E+02  0.86983926938E+02  0.00000000000E+00 0.  1.
         14    1    3    3    0    0 -0.47108694301E+02  0.25606685448E+02 -0.40455034504E+02  0.67168007527E+02  0.00000000000E+00 0. -1.
         11    1    5    5    0    0  0.16643443104E+02 -0.95338633852E+01  0.26844048888E+03  0.26912486845E+03  0.00000000000E+00 0. -1.
        -12    1    5    5    0    0 -0.71464537012E+01 -0.90201685944E+02  0.27079805986E+03  0.28551533264E+03  0.00000000000E+00 0.  1.
          5    1    4    4  501    0 -0.43388375296E+02 -0.39792168379E+01 -0.95006606167E+02  0.10460455484E+03  0.41800000000E+01 0. -1.
         -5    1    4    4    0  501  0.63815681995E+02  0.78925447659E+02 -0.14718385904E+03  0.17883575794E+03  0.41800000000E+01 0. -1.
</event>
<event>
11    1  0.9238666E-009  0.2005818E+03  0.7561462E-02  0.1054113E+00
         22   -1    0    0    0    0  0.00000000000E+00  0.00000000000E+00  0.76442176271E+03  0.76442176271E+03  0.00000000000E+00 0. -1.
         22   -1    0    0    0    0 -0.00000000000E+00 -0.00000000000E+00 -0.41562831743E+03  0.41562831743E+03  0.00000000000E+00 0.  1.
         24    2    1    2    0    0 -0.24485929950E+02 -0.14482383031E+03 -0.28824161307E+03  0.33553416268E+03  0.89030580294E+02 0.  0.
         25    2    1    2    0    0  0.11262004879E+03  0.23170515919E+03  0.12656123473E+03  0.31311387617E+03  0.12510794190E+03 0.  0.
        -24    2    1    2    0    0 -0.88134118844E+02 -0.86881328885E+02  0.51047382362E+03  0.53140204129E+03  0.80551950141E+02 0.  0.
        -13    1    3    3    0    0 -0.15903422303E+02 -0.51127453401E+01 -0.97626074728E+02  0.99044987116E+02  0.00000000000E+00 0.  1.
         14    1    3    3    0    0 -0.85825076470E+01 -0.13971108497E+03 -0.19061553834E+03  0.23648917556E+03  0.00000000000E+00 0. -1.
         11    1    5    5    0    0 -0.10148417323E+03 -0.86272188712E+02  0.47975039689E+03  0.49789795267E+03  0.00000000000E+00 0. -1.
        -12    1    5    5    0    0  0.13350054386E+02 -0.60914017276E+00  0.30723426737E+02  0.33504088621E+02  0.00000000000E+00 0.  1.
          5    1    4    4  501    0  0.80170177309E+02  0.20230137472E+03  0.47699912864E+02  0.22281350415E+03  0.41800000000E+01 0.  1.
         -5    1    4    4    0  501  0.32449871485E+02  0.29403784474E+02  0.78861321871E+02  0.90300372025E+02  0.41800000000E+01 0.  1.
</event>
<event>
11    1  0.9238666E-009  0.1520209E+03  0.7561462E-02  0.1094832E+00
         22   -1    0    0    0    0  0.00000000000E+00  0.00000000000E+00  0.16938809752E+04  0.16938809752E+04  0.00000000000E+00 0. -1.
         22   -1    0    0    0    0 -0.00000000000E+00 -0.00000000000E+00 -0.42518023465E+03  0.42518023465E+03  0.00000000000E+00 0. -1.
        -24    2    1    2    0    0 -0.21039491220E+02  0.84831139461E+02 -0.39755672277E+03  0.41501505668E+03  0.80914566304E+02 0.  0.
         25    2    1    2    0    0  0.32338689428E+02 -0.48377851800E+02  0.25432791230E+03  0.28933799849E+03  0.12509029944E+03 0.  0.
         24    2    1    2    0    0 -0.11299198207E+02 -0.36453287661E+02  0.14119295510E+04  0.14147081546E+04  0.79984947461E+02 0.  0.
        -13    1    5    5    0    0 -0.25453740198E+02 -0.20660202313E+01  0.14491044558E+03  0.14714346254E+03  0.00000000000E+00 0.  1.
         14    1    5    5    0    0  0.14154541990E+02 -0.34387267429E+02  0.12670191054E+04  0.12675646921E+04  0.00000000000E+00 0. -1.
         11    1    3    3    0    0  0.14602802042E+02  0.82012601621E+02 -0.27261378009E+03  0.28505715522E+03  0.00000000000E+00 0. -1.
        -12    1    3    3    0    0 -0.35642293263E+02  0.28185378393E+01 -0.12494294269E+03  0.12995790146E+03  0.00000000000E+00 0.  1.
          5    1    4    4  501    0 -0.10191949812E+01 -0.80050203738E+02  0.99549586523E+02  0.12781496960E+03  0.41800000000E+01 0.  1.
         -5    1    4    4    0  501  0.33357884409E+02  0.31672351938E+02  0.15477832578E+03  0.16152302889E+03  0.41800000000E+01 0.  1.
</event>
<event>
11    1  0.9238666E-009  0.1700351E+03  0.7561462E-02  0.1078001E+00
         22   -1    0    0    0    0  0.00000000000E+00  0.00000000000E+00  0.53224591495E+03  0.53224591495E+03  0.00000000000E+00 0.  1.
         22   -1    0    0    0    0 -0.00000000000E+00 -0.00000000000E+00 -0.49779310735E+03  0.49779310735E+03  0.00000000000E+00 0.  1.
        -24    2    1    2    0    0 -0.90227432357E+02  0.89703039940E+01 -0.12805522599E+02  0.13290622471E+03  0.96325631352E+02 0.  0.
         25    2    1    2    0    0  0.12265976750E+03  0.83361951354E+01 -0.40235228841E+03  0.43891917453E+03  0.12509103511E+03 0.  0.
         24    2    1    2    0    0 -0.32432335147E+02 -0.17306499129E+02  0.44961061862E+03  0.45821362306E+03  0.80365693632E+02 0.  0.
        -13    1    5    5    0    0 -0.36665498142E+02 -0.28914370414E+02  0.44023243782E+03  0.44270193006E+03  0.00000000000E+00 0.  1.
         14    1    5    5    0    0  0.42331629951E+01  0.11607871284E+02  0.93781807911E+01  0.15511692997E+02  0.00000000000E+00 0. -1.
         13    1    3    3    0    0 -0.84371056227E+02 -0.47772176575E+01  0.28339701519E+02  0.89131563543E+02  0.00000000000E+00 0. -1.
        -14    1    3    3    0    0 -0.58563761293E+01  0.13747521651E+02 -0.41145224118E+02  0.43774661171E+02  0.00000000000E+00 0.  1.
          5    1    4    4  501    0  0.10942763135E+03  0.44817374086E+02 -0.36923770813E+03  0.38773310541E+03  0.41800000000E+01 0.  1.
         -5    1    4    4    0  501  0.13232136158E+02 -0.36481178951E+02 -0.33114580280E+02  0.51186069121E+02  0.41800000000E+01 0.  1.
</event>
<event>
11    1  0.9238666E-009  0.1587471E+03  0.7561462E-02  0.1088262E+00
         22   -1    0    0    0    0  0.00000000000E+00  0.00000000000E+00  0.21165064684E+04  0.21165064684E+04  0.00000000000E+00 0. -1.
         22   -1    0    0    0    0 -0.00000000000E+00 -0.00000000000E+00 -0.16354586509E+03  0.16354586509E+03  0.00000000000E+00 0.  1.
        -24    2    1    2    0    0 -0.45333190934E+02  0.21637303702E+02 -0.52243314459E+02  0.10999614319E+03  0.82743679511E+02 0.  0.
         25    2    1    2    0    0 -0.47856391968E+01  0.63437761012E+02 -0.19221099822E+02  0.14165043505E+03  0.12509253858E+03 0.  0.
         24    2    1    2    0    0  0.50118830131E+02 -0.85075064714E+02  0.20244250176E+04  0.20284057552E+04  0.79897386107E+02 0.  0.
        -13    1    5    5    0    0 -0.76798411117E+01 -0.62589801586E+02  0.84384026561E+03  0.84619315590E+03  0.00000000000E+00 0.  1.
         14    1    5    5    0    0  0.57798671243E+02 -0.22485263128E+02  0.11805847519E+04  0.11822125993E+04  0.00000000000E+00 0. -1.
         11    1    3    3    0    0 -0.56452131273E+02  0.44142882565E+02 -0.37417721324E+02  0.80842582068E+02  0.00000000000E+00 0. -1.
        -12    1    3    3    0    0  0.11118940339E+02 -0.22505578863E+02 -0.14825593136E+02  0.29153561121E+02  0.00000000000E+00 0.  1.
          5    1    4    4  501    0  0.53578338524E+02  0.51775204395E+02  0.98657135598E+01  0.75273599975E+02  0.41800000000E+01 0.  1.
         -5    1    4    4    0  501 -0.58363977721E+02  0.11662556617E+02 -0.29086813382E+02  0.66376835078E+02  0.41800000000E+01 0.  1.
</event>
<event>
11    1  0.9238666E-009  0.1413322E+03  0.7561462E-02  0.1106080E+00
         22   -1    0    0    0    0  0.00000000000E+00  0.00000000000E+00  0.21236042398E+04  0.21236042398E+04  0.00000000000E+00 0.  1.
         22   -1    0    0    0    0 -0.00000000000E+00 -0.00000000000E+00 -0.23762635125E+03  0.23762635125E+03  0.00000000000E+00 0. -1.
        -24    2    1    2    0    0 -0.63963333229E+02 -0.72994849869E+01 -0.20532298528E+03  0.23003181909E+03  0.81317396873E+02 0.  0.
         25    2    1    2    0    0  0.10469167639E+03  0.19646408112E+02  0.34064218729E+03  0.37819635676E+03  0.12509618718E+03 0.  0.
         24    2    1    2    0    0 -0.40728343165E+02 -0.12346923125E+02  0.17506586865E+04  0.17530024152E+04  0.80002415626E+02 0.  0.
        -11    1    5    5    0    0 -0.59679004616E+02 -0.14011262396E+02  0.87847136506E+03  0.88060765287E+03  0.00000000000E+00 0.  1.
         12    1    5    5    0    0  0.18950661451E+02  0.16643392711E+01  0.87218732146E+03  0.87239476231E+03  0.00000000000E+00 0. -1.
         11    1    3    3    0    0 -0.55302684800E+02 -0.32284064510E+02 -0.18752449147E+03  0.19815671240E+03  0.00000000000E+00 0. -1.
        -12    1    3    3    0    0 -0.86606484283E+01  0.24984579523E+02 -0.17798493809E+02  0.31875106698E+02  0.00000000000E+00 0.  1.
          5    1    4    4  501    0  0.13331742177E+02  0.61122248261E+02  0.10945228552E+03  0.12613857375E+03  0.41800000000E+01 0.  1.
         -5    1    4    4    0  501  0.91359934217E+02 -0.41475840149E+02  0.23118990177E+03  0.25205778301E+03  0.41800000000E+01 0.  1.
</event>
<event>
11    1  0.9238666E-009  0.2391920E+03  0.7561462E-02  0.1029820E+00
         22   -1    0    0    0    0  0.00000000000E+00  0.00000000000E+00  0.20675193424E+04  0.20675193424E+04  0.00000000000E+00 0.  1.
         22   -1    0    0    0    0 -0.00000000000E+00 -0.00000000000E+00 -0.86205811994E+03  0.86205811994E+03  0.00000000000E+00 0. -1.
        -24    2    1    2    0    0  0.99098631852E+00  0.10780050309E+02 -0.80955105627E+03  0.81367519531E+03  0.81100056837E+02 0.  0.
         25    2    1    2    0    0 -0.19497396276E+03 -0.71612283460E+02  0.29437406674E+03  0.38137436696E+03  0.12508857386E+03 0.  0.
         24    2    1    2    0    0  0.19398297644E+03  0.60832233152E+02  0.17206382120E+04  0.17345279000E+04  0.81616320707E+02 0.  0.
        -11    1    5    5    0    0  0.19274258548E+03  0.54529513403E+02  0.17124275337E+04  0.17241030219E+04  0.00000000000E+00 0.  1.
         12    1    5    5    0    0  0.12403909549E+01  0.63027197486E+01  0.82106782952E+01  0.10424878130E+02  0.00000000000E+00 0. -1.
         13    1    3    3    0    0  0.21032184551E+02  0.18395475508E+02 -0.74755016249E+03  0.74807218351E+03  0.00000000000E+00 0. -1.
        -14    1    3    3    0    0 -0.20041198233E+02 -0.76154251989E+01 -0.62000893775E+02  0.65603011794E+02  0.00000000000E+00 0.  1.
          5    1    4    4  501    0 -0.14448544973E+03  0.10455842833E+02  0.15872076297E+03  0.21493050698E+03  0.41800000000E+01 0. -1.
         -5    1    4    4    0  501 -0.50488513025E+02 -0.82068126294E+02  0.13565330377E+03  0.16644385998E+03  0.41800000000E+01 0. -1.
</event>
<event>
11    1  0.9238666E-009  0.1270369E+03  0.7561462E-02  0.1122964E+00
         22   -1    0    0    0    0  0.00000000000E+00  0.00000000000E+00  0.38353908953E+03  0.38353908953E+03  0.00000000000E+00 0.  1.
         22   -1    0    0    0    0 -0.00000000000E+00 -0.00000000000E+00 -0.25439083650E+03  0.25439083650E+03  0.00000000000E+00 0. -1.
        -24    2    1    2    0    0  0.14203106272E+02  0.13417680213E+02 -0.17046758201E+03  0.19077469405E+03  0.83390796882E+02 0.  0.
         25    2    1    2    0    0 -0.21766645014E+02 -0.32455863929E+02 -0.48047913675E+01  0.13114236893E+03  0.12509222586E+03 0.  0.
         24    2    1    2    0    0  0.75635387420E+01  0.19038183716E+02  0.30442062641E+03  0.31601286304E+03  0.82295517895E+02 0.  0.
        -13    1    5    5    0    0 -0.33611205883E+02  0.18782234177E+02  0.20178906845E+03  0.20542958314E+03  0.00000000000E+00 0.  1.
         14    1    5    5    0    0  0.41174744625E+02  0.25594953957E+00  0.10263155796E+03  0.11058327990E+03  0.00000000000E+00 0. -1.
         13    1    3    3    0    0 -0.17912755666E+02  0.33369174403E+02 -0.12995061344E+03  0.13535704840E+03  0.00000000000E+00 0. -1.
        -14    1    3    3    0    0  0.32115861938E+02 -0.19951494191E+02 -0.40516968566E+02  0.55417645658E+02  0.00000000000E+00 0.  1.
          5    1    4    4  501    0 -0.37731422528E+02 -0.70346769156E+02  0.20705675134E+02  0.82574363815E+02  0.41800000000E+01 0. -1.
         -5    1    4    4    0  501  0.15964777514E+02  0.37890905227E+02 -0.25510466501E+02  0.48568005117E+02  0.41800000000E+01 0. -1.
</event>
<event>
11    1  0.9238666E-009  0.1816533E+03  0.7561462E-02  0.1068313E+00
         22   -1    0    0    0    0  0.00000000000E+00  0.00000000000E+00  0.24122299136E+03  0.24122299136E+03  0.00000000000E+00 0.  1.
         22   -1    0    0    0    0 -0.00000000000E+00 -0.00000000000E+00 -0.95365306321E+03  0.95365306321E+03  0.00000000000E+00 0.  1.
        -24    2    1    2    0    0 -0.97086652231E+02 -0.14017040659E+02 -0.81748510760E+03  0.82669661505E+03  0.74317539793E+02 0.  0.
         25    2    1    2    0    0  0.84923876503E+02  0.13216772215E+03  0.10276816643E+03  0.22558647655E+03  0.12509033053E+03 0.  0.
         24    2    1    2    0    0  0.12162775729E+02 -0.11815068149E+03  0.22868693201E+01  0.14259296297E+03  0.78867018877E+02 0.  0.
        -11    1    5    5    0    0 -0.21012705267E+02 -0.16269291865E+02  0.20941433850E+02  0.33834409883E+02  0.00000000000E+00 0.  1.
         12    1    5    5    0    0  0.33175480995E+02 -0.10188138963E+03 -0.18654564530E+02  0.10875855309E+03  0.00000000000E+00 0. -1.
         13    1    3    3    0    0  0.60722455184E+01 -0.86794808148E+01 -0.22681435024E+03  0.22706156660E+03  0.00000000000E+00 0. -1.
        -14    1    3    3    0    0 -0.10315889775E+03 -0.53375598438E+01 -0.59067075736E+03  0.59963504845E+03  0.00000000000E+00 0.  1.
          5    1    4    4  501    0  0.95038547531E+02  0.14590062206E+03  0.68652057478E+02  0.18721617032E+03  0.41800000000E+01 0.  1.
         -5    1    4    4    0  501 -0.10114671028E+02 -0.13732899909E+02  0.34116108948E+02  0.38370306223E+02  0.41800000000E+01 0.  1.
</event>
<event>
11    1  0.1690560E-008  0.1511239E+03  0.7561462E-02  0.1095736E+00
         22   -1    0    0    0    0  0.00000000000E+00  0.00000000000E+00  0.80222306059E+03  0.80222306059E+03  0.00000000000E+00 0.  1.
         22   -1    0    0    0    0 -0.00000000000E+00 -0.00000000000E+00 -0.70503578151E+03  0.70503578151E+03  0.00000000000E+00 0.  1.
        -24    2    1    2    0    0  0.37310107489E+02  0.30939215468E+02 -0.38708512157E+03  0.39840425791E+03  0.80881284607E+02 0.  0.
         25    2    1    2    0    0  0.19212672458E+02 -0.94166162400E+02 -0.28769847193E+03  0.32811061567E+03  0.12509905052E+03 0.  0.
         24    2    1    2    0    0 -0.56522779947E+02  0.63226946932E+02  0.77197087258E+03  0.78074396852E+03  0.80185065889E+02 0.  0.
        -13    1    5    5    0    0  0.10030635375E+01 -0.16443923839E+02  0.17101279004E+03  0.17180449099E+03  0.00000000000E+00 0.  1.
         14    1    5    5    0    0 -0.57525843485E+02  0.79670870771E+02  0.60095808254E+03  0.60893947753E+03  0.00000000000E+00 0. -1.
         11    1    3    3    0    0 -0.86379857071E+01 -0.19775760659E+02 -0.50253515509E+02  0.54691053453E+02  0.00000000000E+00 0. -1.
        -12    1    3    3    0    0  0.45948093196E+02  0.50714976128E+02 -0.33683160606E+03  0.34371320445E+03  0.00000000000E+00 0.  1.
          5    1    4    4  501    0  0.27212389391E+02 -0.10889474700E+03 -0.28970811272E+03  0.31071987873E+03  0.41800000000E+01 0. -1.
         -5    1    4    4    0  501 -0.79997169329E+01  0.14728584600E+02  0.20096407917E+01  0.17390736943E+02  0.41800000000E+01 0. -1.
</event>
<event>
11    1  0.9238666E-009  0.1487102E+03  0.7561462E-02  0.1098204E+00
         22   -1    0    0    0    0  0.00000000000E+00  0.00000000000E+00  0.11023381230E+04  0.11023381230E+04  0.00000000000E+00 0.  1.
         22   -1    0    0    0    0 -0.00000000000E+00 -0.00000000000E+00 -0.13973658570E+03  0.13973658570E+03  0.00000000000E+00 0.  1.
        -24    2    1    2    0    0  0.58958515031E+02  0.43290768928E+02 -0.68513190395E+02  0.13366552968E+03  0.88443311770E+02 0.  0.
         25    2    1    2    0    0 -0.98856379287E+02 -0.89810382113E+02  0.19988955259E+03  0.27100182670E+03  0.12509064066E+03 0.  0.
         24    2    1    2    0    0  0.39897864256E+02  0.46519613185E+02  0.83122517509E+03  0.83740735230E+03  0.80993012043E+02 0.  0.
        -11    1    5    5    0    0  0.52339450635E+02  0.41084433025E+02  0.80615976428E+03  0.80890105345E+03  0.00000000000E+00 0.  1.
         12    1    5    5    0    0 -0.12441586380E+02  0.54351801593E+01  0.25065410809E+02  0.28506298848E+02  0.00000000000E+00 0. -1.
         13    1    3    3    0    0  0.40632420496E+02  0.53064374318E+02 -0.52040492947E+01  0.67036583640E+02  0.00000000000E+00 0. -1.
        -14    1    3    3    0    0  0.18326094536E+02 -0.97736053893E+01 -0.63309141100E+02  0.66628946038E+02  0.00000000000E+00 0.  1.
          5    1    4    4  501    0 -0.28269402657E+02 -0.29074185437E+02 -0.94492702575E+01  0.41847682060E+02  0.41800000000E+01 0. -1.
         -5    1    4    4    0  501 -0.70586976630E+02 -0.60736196676E+02  0.20933882285E+03  0.22915414464E+03  0.41800000000E+01 0. -1.
</event>
<event>
11    1  0.9238666E-009  0.1775966E+03  0.7561462E-02  0.1071604E+00
         22   -1    0    0    0    0  0.00000000000E+00  0.00000000000E+00  0.14973843737E+04  0.14973843737E+04  0.00000000000E+00 0. -1.
         22   -1    0    0    0    0 -0.00000000000E+00 -0.00000000000E+00 -0.20319111781E+03  0.20319111781E+03  0.00000000000E+00 0. -1.
         24    2    1    2    0    0 -0.21546181500E+02  0.11686881897E+02 -0.17318046980E+03  0.19221022229E+03  0.79702404513E+02 0.  0.
         25    2    1    2    0    0  0.82366603175E+02  0.98459801960E+02  0.53212439364E+03  0.56150043148E+03  0.12509106413E+03 0.  0.
        -24    2    1    2    0    0 -0.60820421675E+02 -0.11014668386E+03  0.93524933205E+03  0.94686483774E+03  0.77654955963E+02 0.  0.
        -11    1    3    3    0    0 -0.18547287170E+02 -0.41984936071E+01 -0.75808872472E+00  0.19031655431E+02  0.00000000000E+00 0.  1.
         12    1    3    3    0    0 -0.29988943304E+01  0.15885375504E+02 -0.17242238108E+03  0.17317856685E+03  0.00000000000E+00 0. -1.
         13    1    5    5    0    0 -0.42577378045E+02 -0.26401211227E+02  0.54586195647E+03  0.54815612064E+03  0.00000000000E+00 0. -1.
        -14    1    5    5    0    0 -0.18243043631E+02 -0.83745472631E+02  0.38938737558E+03  0.39870871710E+03  0.00000000000E+00 0.  1.
          5    1    4    4  501    0  0.47707054640E+02 -0.22588945208E+02  0.14286270231E+03  0.15235959970E+03  0.41800000000E+01 0.  1.
         -5    1    4    4    0  501  0.34659548535E+02  0.12104874717E+03  0.38926169133E+03  0.40914083179E+03  0.41800000000E+01 0.  1.
</event>
<event>
11    1  0.9238666E-009  0.1549506E+03  0.7561462E-02  0.1091925E+00
         22   -1    0    0    0    0  0.00000000000E+00  0.00000000000E+00  0.14044789530E+03  0.14044789530E+03  0.00000000000E+00 0.  1.
         22   -1    0    0    0    0 -0.00000000000E+00 -0.00000000000E+00 -0.65811522224E+03  0.65811522224E+03  0.00000000000E+00 0. -1.
         24    2    1    2    0    0  0.41201518380E+01  0.81423700420E+02 -0.28368078778E+03  0.30751507449E+03  0.86278253583E+02 0.  0.
         25    2    1    2    0    0  0.19673263404E+02 -0.10821802237E+03 -0.32406470240E+03  0.36435227928E+03  0.12504588924E+03 0.  0.
        -24    2    1    2    0    0 -0.23793415242E+02  0.26794321948E+02  0.90078163235E+02  0.12669576377E+03  0.81570085012E+02 0.  0.
        -13    1    3    3    0    0  0.28026784734E+01  0.85310018655E+01  0.46485618597E+01  0.10111484897E+02  0.00000000000E+00 0.  1.
         14    1    3    3    0    0  0.13174733646E+01  0.72892698554E+02 -0.28832934964E+03  0.29740358960E+03  0.00000000000E+00 0. -1.
         11    1    5    5    0    0 -0.11184835397E+02 -0.15487214607E+02 -0.67723470939E+01  0.20268671499E+02  0.00000000000E+00 0. -1.
        -12    1    5    5    0    0 -0.12608579844E+02  0.42281536555E+02  0.96850510329E+02  0.10642709227E+03  0.00000000000E+00 0.  1.
          5    1    4    4  501    0  0.96799513314E+01 -0.75772427810E+02 -0.57756847716E+02  0.95856601923E+02  0.41800000000E+01 0.  1.
         -5    1    4    4    0  501  0.99933120721E+01 -0.32445594557E+02 -0.26630785468E+03  0.26849567735E+03  0.41800000000E+01 0.  1.
</event>
<event>
11    1  0.9238666E-009  0.1496552E+03  0.7561462E-02  0.1097232E+00
         22   -1    0    0    0    0  0.00000000000E+00  0.00000000000E+00  0.32316434815E+03  0.32316434815E+03  0.00000000000E+00 0. -1.
         22   -1    0    0    0    0 -0.00000000000E+00 -0.00000000000E+00 -0.43385826407E+03  0.43385826407E+03  0.00000000000E+00 0. -1.
        -24    2    1    2    0    0  0.67701923083E+02  0.46864163098E+02 -0.37394015880E+03  0.39114049545E+03  0.79873929701E+02 0.  0.
         25    2    1    2    0    0 -0.51360705691E+02 -0.64657746730E+02  0.94635446164E+02  0.17726155593E+03  0.12508894930E+03 0.  0.
         24    2    1    2    0    0 -0.16341217392E+02  0.17793583631E+02  0.16861079671E+03  0.18862056085E+03  0.81021405829E+02 0.  0.
        -11    1    5    5    0    0 -0.25533338203E+02 -0.62423525271E+01  0.10299129117E+02  0.28231018144E+02  0.00000000000E+00 0.  1.
         12    1    5    5    0    0  0.91921208111E+01  0.24035936158E+02  0.15831166760E+03  0.16038954271E+03  0.00000000000E+00 0. -1.
         11    1    3    3    0    0  0.42897809853E+01  0.18039996882E+02 -0.23487437407E+03  0.23560521069E+03  0.00000000000E+00 0. -1.
        -12    1    3    3    0    0  0.63412142098E+02  0.28824166216E+02 -0.13906578472E+03  0.15553528476E+03  0.00000000000E+00 0.  1.
          5    1    4    4  501    0 -0.54108620497E+02 -0.59484891387E+02 -0.18163410440E+01  0.80541707271E+02  0.41800000000E+01 0. -1.
         -5    1    4    4    0  501  0.27479148058E+01 -0.51728553429E+01  0.96451787208E+02  0.96719848655E+02  0.41800000000E+01 0. -1.
</event>
<event>
11    1  0.9238666E-009  0.1526810E+03  0.7561462E-02  0.1094170E+00
         22   -1    0    0    0    0  0.00000000000E+00  0.00000000000E+00  0.10400149793E+04  0.10400149793E+04  0.00000000000E+00 0.  1.
         22   -1    0    0    0    0 -0.00000000000E+00 -0.00000000000E+00 -0.16053442196E+03  0.16053442196E+03  0.00000000000E+00 0. -1.
        -24    2    1    2    0    0  0.21169639707E+02  0.14795787285E+02 -0.12829021613E+03  0.15354101608E+03  0.80308125961E+02 0.  0.
         25    2    1    2    0    0 -0.10218809949E+03 -0.10760626238E+02  0.46944329626E+03  0.49656911563E+03  0.12508269042E+03 0.  0.
         24    2    1    2    0    0  0.81018459780E+02 -0.40351610473E+01  0.53832747716E+03  0.55043926951E+03  0.81281261065E+02 0.  0.
        -13    1    5    5    0    0  0.21287277185E+02  0.27055282200E+02  0.78629594812E+02  0.85835596608E+02  0.00000000000E+00 0.  1.
         14    1    5    5    0    0  0.59731182595E+02 -0.31090443247E+02  0.45969788235E+03  0.46460367290E+03  0.00000000000E+00 0. -1.
         13    1    3    3    0    0 -0.11288732566E+02 -0.14385807511E+02 -0.99700519732E+02  0.10136360577E+03  0.00000000000E+00 0. -1.
        -14    1    3    3    0    0  0.32458372273E+02  0.29181594796E+02 -0.28589696401E+02  0.52177410301E+02  0.00000000000E+00 0.  1.
          5    1    4    4  501    0 -0.78229684262E+02 -0.45794654111E+02  0.42649909364E+03  0.43604584979E+03  0.41800000000E+01 0.  1.
         -5    1    4    4    0  501 -0.23958415224E+02  0.35034027873E+02  0.42944202613E+02  0.60523265833E+02  0.41800000000E+01 0.  1.
</event>
<event>
11    1  0.9238666E-009  0.1298249E+03  0.7561462E-02  0.1119484E+00
         22   -1    0    0    0    0  0.00000000000E+00  0.00000000000E+00  0.84013016467E+03  0.84013016467E+03  0.00000000000E+00 0. -1.
         22   -1    0    0    0    0 -0.00000000000E+00 -0.00000000000E+00 -0.61955188670E+03  0.61955188670E+03  0.00000000000E+00 0. -1.
        -24    2    1    2    0    0 -0.32768384745E+02  0.23114764930E+02 -0.44074155443E+03  0.44977874075E+03  0.80247980892E+02 0.  0.
         25    2    1    2    0    0  0.80515777671E+01 -0.17848497484E+01 -0.14905774617E+03  0.19476602591E+03  0.12509028564E+03 0.  0.
         24    2    1    2    0    0  0.24716806978E+02 -0.21329915182E+02  0.81037757857E+03  0.81513728471E+03  0.81676723999E+02 0.  0.
        -13    1    5    5    0    0  0.33262094617E+02  0.47103017671E+01  0.13204787174E+03  0.13625415337E+03  0.00000000000E+00 0.  1.
         14    1    5    5    0    0 -0.85452876383E+01 -0.26040216949E+02  0.67832970683E+03  0.67888313134E+03  0.00000000000E+00 0. -1.
         13    1    3    3    0    0 -0.33730300230E+02  0.15096697569E+02 -0.44013148973E+03  0.44168016899E+03  0.00000000000E+00 0. -1.
        -14    1    3    3    0    0  0.96191548502E+00  0.80180673612E+01 -0.61006469915E+00  0.80985717596E+01  0.00000000000E+00 0.  1.
          5    1    4    4  501    0 -0.53723307893E+02  0.12632658597E+02 -0.10064065339E+03  0.11485552398E+03  0.41800000000E+01 0.  1.
         -5    1    4    4    0  501  0.61774885660E+02 -0.14417508346E+02 -0.48417092782E+02  0.79910501930E+02  0.41800000000E+01 0.  1.
</event>
<event>
11    1  0.9238666E-009  0.1590010E+03  0.7561462E-02  0.1088021E+00
         22   -1    0    0    0    0  0.00000000000E+00  0.00000000000E+00  0.13657002300E+04  0.13657002300E+04  0.00000000000E+00 0. -1.
         22   -1    0    0    0    0 -0.00000000000E+00 -0.00000000000E+00 -0.13728047883E+04  0.13728047883E+04  0.00000000000E+00 0. -1.
        -24    2    1    2    0    0 -0.71657629379E+02  0.13487783020E+02 -0.13207311750E+04  0.13252105713E+04  0.80842349564E+02 0.  0.
         25    2    1    2    0    0  0.15475300929E+03 -0.56166925420E+02  0.18354575827E+03  0.27647862568E+03  0.12509263640E+03 0.  0.
         24    2    1    2    0    0 -0.83095379913E+02  0.42679142400E+02  0.11300808584E+04  0.11368158214E+04  0.80877152766E+02 0.  0.
        -11    1    5    5    0    0 -0.14405012263E+02  0.52184006907E+02  0.47511132855E+03  0.47818558057E+03  0.00000000000E+00 0.  1.
         12    1    5    5    0    0 -0.68690367650E+02 -0.95048645063E+01  0.65496952985E+03  0.65863024080E+03  0.00000000000E+00 0. -1.
         13    1    3    3    0    0 -0.69109578909E+02 -0.12930373405E+02 -0.61944682643E+03  0.62342417279E+03  0.00000000000E+00 0. -1.
        -14    1    3    3    0    0 -0.25480504698E+01  0.26418156425E+02 -0.70128434855E+03  0.70178639846E+03  0.00000000000E+00 0.  1.
          5    1    4    4  501    0  0.14039308444E+03 -0.61395854463E+02  0.82267568555E+02  0.17396865907E+03  0.41800000000E+01 0. -1.
         -5    1    4    4    0  501  0.14359924850E+02  0.52289290432E+01  0.10127818972E+03  0.10250996660E+03  0.41800000000E+01 0. -1.
</event>
<event>
11    1  0.9238666E-009  0.2421059E+03  0.7561462E-02  0.1028191E+00
         22   -1    0    0    0    0  0.00000000000E+00  0.00000000000E+00  0.14895783160E+04  0.14895783160E+04  0.00000000000E+00 0.  1.
         22   -1    0    0    0    0 -0.00000000000E+00 -0.00000000000E+00 -0.18706110370E+03  0.18706110370E+03  0.00000000000E+00 0. -1.
        -24    2    1    2    0    0  0.13624138982E+02 -0.24510426387E+03 -0.21066882864E+02  0.25950212994E+03  0.81460570598E+02 0.  0.
         25    2    1    2    0    0 -0.76727655395E+02  0.12661224141E+03  0.18504227323E+03  0.26796653572E+03  0.12509048168E+03 0.  0.
         24    2    1    2    0    0  0.63103516413E+02  0.11849202246E+03  0.11385418220E+04  0.11491707541E+04  0.79331762027E+02 0.  0.
        -13    1    5    5    0    0  0.48344809926E+02  0.12898794921E+03  0.10172696972E+04  0.10265538215E+04  0.00000000000E+00 0.  1.
         14    1    5    5    0    0  0.14758706487E+02 -0.10495926753E+02  0.12127212479E+03  0.12261693255E+03  0.00000000000E+00 0. -1.
         13    1    3    3    0    0  0.41357965494E+02 -0.11549255997E+03 -0.31168500943E+02  0.12657206710E+03  0.00000000000E+00 0. -1.
        -14    1    3    3    0    0 -0.27733826513E+02 -0.12961170390E+03  0.10101618079E+02  0.13293006284E+03  0.00000000000E+00 0.  1.
          5    1    4    4  501    0 -0.11412472318E+02  0.11365822965E+03  0.16014392082E+03  0.19675361615E+03  0.41800000000E+01 0. -1.
         -5    1    4    4    0  501 -0.65315183077E+02  0.12954011756E+02  0.24898352404E+02  0.71212919568E+02  0.41800000000E+01 0. -1.
</event>
<event>
11    1  0.9238666E-009  0.2850111E+03  0.7561462E-02  0.1006742E+00
         22   -1    0    0    0    0  0.00000000000E+00  0.00000000000E+00  0.74837081565E+03  0.74837081565E+03  0.00000000000E+00 0. -1.
         22   -1    0    0    0    0 -0.00000000000E+00 -0.00000000000E+00 -0.23925907445E+03  0.23925907445E+03  0.00000000000E+00 0.  1.
         24    2    1    2    0    0  0.10577703965E+03 -0.42651169765E+02 -0.86636975726E+02  0.16347693927E+03  0.78808880909E+02 0.  0.
         25    2    1    2    0    0  0.12620371999E+03  0.19887207000E+03  0.20020859510E+03  0.33347637876E+03  0.12508211093E+03 0.  0.
        -24    2    1    2    0    0 -0.23198075963E+03 -0.15622090024E+03  0.39554012182E+03  0.49067657207E+03  0.78047856467E+02 0.  0.
        -11    1    3    3    0    0  0.11775094004E+03 -0.45598365678E+02 -0.79864887940E+02  0.14940848422E+03  0.00000000000E+00 0.  1.
         12    1    3    3    0    0 -0.11973900390E+02  0.29471959138E+01 -0.67720877858E+01  0.14068455043E+02  0.00000000000E+00 0. -1.
         13    1    5    5    0    0 -0.15567068184E+02 -0.35871990613E+02  0.84448282520E+02  0.93062590459E+02  0.00000000000E+00 0. -1.
        -14    1    5    5    0    0 -0.21641369145E+03 -0.12034890962E+03  0.31109183931E+03  0.39761398162E+03  0.00000000000E+00 0.  1.
          5    1    4    4  501    0  0.12335953820E+03  0.84024025336E+02  0.13508206329E+03  0.20135105841E+03  0.41800000000E+01 0.  1.
         -5    1    4    4    0  501  0.28441817848E+01  0.11484804466E+03  0.65126531814E+02  0.13212532036E+03  0.41800000000E+01 0.  1.
</event>
<event>
11    1  0.9238666E-009  0.1564258E+03  0.7561462E-02  0.1090488E+00
         22   -1    0    0    0    0  0.00000000000E+00  0.00000000000E+00  0.17221839673E+04  0.17221839673E+04  0.00000000000E+00 0. -1.
         22   -1    0    0    0    0 -0.00000000000E+00 -0.00000000000E+00 -0.19077908561E+03  0.19077908561E+03  0.00000000000E+00 0. -1.
         24    2    1    2    0    0 -0.40537506520E+02  0.17433921739E+02 -0.14037787547E+03  0.16757453735E+03  0.80175099531E+02 0.  0.
         25    2    1    2    0    0  0.57024479058E+02 -0.10821139625E+03  0.18843979496E+03  0.25713569868E+03  0.12509082188E+03 0.  0.
        -24    2    1    2    0    0 -0.16486972538E+02  0.90777474512E+02  0.14833429622E+04  0.14882528168E+04  0.77959818284E+02 0.  0.
        -11    1    3    3    0    0 -0.41447491790E+02  0.45740766819E+02 -0.10931787353E+03  0.12554086903E+03  0.00000000000E+00 0.  1.
         12    1    3    3    0    0  0.90998527031E+00 -0.28306845081E+02 -0.31060001945E+02  0.42033668320E+02  0.00000000000E+00 0. -1.
         11    1    5    5    0    0 -0.47937748082E+02  0.59521040995E+02  0.92445950710E+03  0.92761315336E+03  0.00000000000E+00 0. -1.
        -12    1    5    5    0    0  0.31450775544E+02  0.31256433517E+02  0.55888345505E+03  0.56063966347E+03  0.00000000000E+00 0.  1.
          5    1    4    4  501    0  0.18227422621E+02  0.20107770328E+02  0.80248711571E+02  0.84816799467E+02  0.41800000000E+01 0.  1.
         -5    1    4    4    0  501  0.38797056437E+02 -0.12831916658E+03  0.10819108339E+03  0.17231889921E+03  0.41800000000E+01 0.  1.
</event>
<event>
11    1  0.9238666E-009  0.1440256E+03  0.7561462E-02  0.1103145E+00
         22   -1    0    0    0    0  0.00000000000E+00  0.00000000000E+00  0.19589533013E+03  0.19589533013E+03  0.00000000000E+00 0. -1.
         22   -1    0    0    0    0 -0.00000000000E+00 -0.00000000000E+00 -0.31126006048E+03  0.31126006048E+03  0.00000000000E+00 0. -1.
         24    2    1    2    0    0 -0.22134637950E+02 -0.40435680509E+02 -0.15807993198E+03  0.18402640423E+03  0.82167305558E+02 0.  0.
         25    2    1    2    0    0 -0.40038869436E+02 -0.60707160875E+01 -0.82525133846E+02  0.15526224659E+03  0.12512394991E+03 0.  0.
        -24    2    1    2    0    0  0.62173507386E+02  0.46506396596E+02  0.12524033548E+03  0.16786673979E+03  0.80409643403E+02 0.  0.
        -11    1    3    3    0    0 -0.17696282211E+02  0.26639747960E+01 -0.13251704197E+03  0.13371993710E+03  0.00000000000E+00 0.  1.
         12    1    3    3    0    0 -0.44383557386E+01 -0.43099655305E+02 -0.25562890011E+02  0.50306467127E+02  0.00000000000E+00 0. -1.
         13    1    5    5    0    0  0.68239731417E+02  0.62764585018E+02  0.93395805502E+02  0.13160102797E+03  0.00000000000E+00 0. -1.
        -14    1    5    5    0    0 -0.60662240308E+01 -0.16258188422E+02  0.31844529976E+02  0.36265711825E+02  0.00000000000E+00 0.  1.
          5    1    4    4  501    0 -0.37867647634E+02 -0.34187187529E+01  0.26225246673E+02  0.46377606001E+02  0.41800000000E+01 0. -1.
         -5    1    4    4    0  501 -0.21712218019E+01 -0.26519973346E+01 -0.10875038052E+03  0.10888464059E+03  0.41800000000E+01 0. -1.
</event>
<event>
11    1  0.9238666E-009  0.1933427E+03  0.7561462E-02  0.1059334E+00
         22   -1    0    0    0    0  0.00000000000E+00  0.00000000000E+00  0.11434016389E+04  0.11434016389E+04  0.00000000000E+00 0.  1.
         22   -1    0    0    0    0 -0.00000000000E+00 -0.00000000000E+00 -0.59153119547E+03  0.59153119547E+03  0.00000000000E+00 0. -1.
        -24    2    1    2    0    0 -0.13587112867E+03  0.56524773653E+02 -0.54458119586E+03  0.56980756842E+03  0.80349066553E+02 0.  0.
         25    2    1    2    0    0  0.17198262635E+03  0.11229720961E+02  0.34409748866E+03  0.40466793461E+03  0.12509566422E+03 0.  0.
         24    2    1    2    0    0 -0.36111497672E+02 -0.67754494614E+02  0.75235415061E+03  0.76045733132E+03  0.79773886779E+02 0.  0.
        -13    1    5    5    0    0 -0.50422966277E+02 -0.41458870371E+02  0.66332486271E+03  0.66652920937E+03  0.00000000000E+00 0.  1.
         14    1    5    5    0    0  0.14311468604E+02 -0.26295624243E+02  0.89029287902E+02  0.93928121946E+02  0.00000000000E+00 0. -1.
         13    1    3    3    0    0 -0.36008943901E+02  0.24042837851E+02 -0.30719734495E+03  0.31023363911E+03  0.00000000000E+00 0. -1.
        -14    1    3    3    0    0 -0.99862184772E+02  0.32481935802E+02 -0.23738385091E+03  0.25957392931E+03  0.00000000000E+00 0.  1.
          5    1    4    4  501    0  0.31913722260E+02  0.55546076304E+00 -0.83753537928E+00  0.32201988613E+02  0.41800000000E+01 0. -1.
         -5    1    4    4    0  501  0.14006890409E+03  0.10674260198E+02  0.34493502404E+03  0.37246594600E+03  0.41800000000E+01 0. -1.
</event>
<event>
11    1  0.9238666E-009  0.1543261E+03  0.7561462E-02  0.1092539E+00
         22   -1    0    0    0    0  0.00000000000E+00  0.00000000000E+00  0.16063475131E+03  0.16063475131E+03  0.00000000000E+00 0. -1.
         22   -1    0    0    0    0 -0.00000000000E+00 -0.00000000000E+00 -0.55909079442E+03  0.55909079442E+03  0.00000000000E+00 0.  1.
         24    2    1    2    0    0 -0.22049023482E+02 -0.91288210963E+02 -0.46584353700E+03  0.48171725691E+03  0.78877232048E+02 0.  0.
         25    2    1    2    0    0  0.11616476312E+02  0.56269874949E+02  0.12458598114E+02  0.13818295649E+03  0.12505227486E+03 0.  0.
        -24    2    1    2    0    0  0.10432547170E+02  0.35018336014E+02  0.54928895783E+02  0.99825332336E+02  0.74918565699E+02 0.  0.
        -13    1    3    3    0    0 -0.41968549360E+02 -0.41093256739E+02 -0.33593459870E+03  0.34103089228E+03  0.00000000000E+00 0.  1.
         14    1    3    3    0    0  0.19919525878E+02 -0.50194954225E+02 -0.12990893830E+03  0.14068636463E+03  0.00000000000E+00 0. -1.
         13    1    5    5    0    0  0.21543285839E+02 -0.48714782295E+01  0.54070963978E+02  0.58408163902E+02  0.00000000000E+00 0. -1.
        -14    1    5    5    0    0 -0.11110738669E+02  0.39889814244E+02  0.85793180559E+00  0.41417168435E+02  0.00000000000E+00 0.  1.
          5    1    4    4  501    0 -0.43710817842E+00  0.91470518853E+02 -0.13592511429E+02  0.92570382141E+02  0.41800000000E+01 0. -1.
         -5    1    4    4    0  501  0.12053584490E+02 -0.35200643904E+02  0.26051109543E+02  0.45612574349E+02  0.41800000000E+01 0. -1.
</event>
<event>
11    1  0.9238666E-009  0.2472042E+03  0.7561462E-02  0.1025399E+00
         22   -1    0    0    0    0  0.00000000000E+00  0.00000000000E+00  0.12614433011E+03  0.12614433011E+03  0.00000000000E+00 0. -1.
         22   -1    0    0    0    0 -0.00000000000E+00 -0.00000000000E+00 -0.30354989347E+04  0.30354989347E+04  0.00000000000E+00 0.  1.
         24    2    1    2    0    0 -0.33180313194E+02 -0.21966682207E+03 -0.28172112987E+04  0.28271245960E+04  0.81237513118E+02 0.  0.
         25    2    1    2    0    0  0.31584492812E+02  0.11983130638E+03 -0.10511589627E+03  0.20505690285E+03  0.12506742015E+03 0.  0.
        -24    2    1    2    0    0  0.15958203823E+01  0.99835515685E+02  0.12972590431E+02  0.12946176598E+03  0.81378030900E+02 0.  0.
        -13    1    3    3    0    0  0.10918444651E+02 -0.16856871771E+03 -0.20542540407E+04  0.20611875918E+04  0.00000000000E+00 0.  1.
         14    1    3    3    0    0 -0.44098757845E+02 -0.51098104358E+02 -0.76295725804E+03  0.76593700413E+03  0.00000000000E+00 0. -1.
         13    1    5    5    0    0 -0.19960766790E+02  0.10306187075E+02  0.28273313352E+02  0.36111354873E+02  0.00000000000E+00 0. -1.
        -14    1    5    5    0    0  0.21556587172E+02  0.89529328610E+02 -0.15300722921E+02  0.93350411107E+02  0.00000000000E+00 0.  1.
          5    1    4    4  501    0 -0.46865218026E+02  0.61191737968E+02 -0.56315143975E+02  0.95549177375E+02  0.41800000000E+01 0. -1.
         -5    1    4    4    0  501  0.78449710838E+02  0.58639568413E+02 -0.48800752300E+02  0.10950772548E+03  0.41800000000E+01 0. -1.
</event>
<event>
11    1  0.9238666E-009  0.1616549E+03  0.7561462E-02  0.1085531E+00
         22   -1    0    0    0    0  0.00000000000E+00  0.00000000000E+00  0.92844704667E+03  0.92844704667E+03  0.00000000000E+00 0.  1.
         22   -1    0    0    0    0 -0.00000000000E+00 -0.00000000000E+00 -0.32450135365E+03  0.32450135365E+03  0.00000000000E+00 0.  1.
         24    2    1    2    0    0 -0.57789822551E+02 -0.79631348605E+02 -0.22576449882E+03  0.25903105467E+03  0.80291114603E+02 0.  0.
         25    2    1    2    0    0  0.11880319775E+03  0.71322620631E+02  0.31487326962E+02  0.18928512179E+03  0.12504515009E+03 0.  0.
        -24    2    1    2    0    0 -0.61013375201E+02  0.83087279739E+01  0.79822286488E+03  0.80463222385E+03  0.80508426467E+02 0.  0.
        -13    1    3    3    0    0 -0.73007180510E+02 -0.51790699948E+02 -0.19624119694E+03  0.21569175317E+03  0.00000000000E+00 0.  1.
         14    1    3    3    0    0  0.15217357959E+02 -0.27840648657E+02 -0.29523301882E+02  0.43339301505E+02  0.00000000000E+00 0. -1.
         11    1    5    5    0    0 -0.24630942139E+02  0.37745748844E+02  0.22302887901E+03  0.22753748206E+03  0.00000000000E+00 0. -1.
        -12    1    5    5    0    0 -0.36382433063E+02 -0.29437020870E+02  0.57519398587E+03  0.57709474180E+03  0.00000000000E+00 0.  1.
          5    1    4    4  501    0  0.86893524003E+02  0.10210262011E+03  0.46992512518E+02  0.14213091915E+03  0.41800000000E+01 0. -1.
         -5    1    4    4    0  501  0.31909673750E+02 -0.30779999478E+02 -0.15505185556E+02  0.47154202631E+02  0.41800000000E+01 0. -1.
</event>
<event>
11    1  0.9238666E-009  0.1628714E+03  0.7561462E-02  0.1084407E+00
         22   -1    0    0    0    0  0.00000000000E+00  0.00000000000E+00  0.24870607204E+04  0.24870607204E+04  0.00000000000E+00 0. -1.
         22   -1    0    0    0    0 -0.00000000000E+00 -0.00000000000E+00 -0.22714753730E+02  0.22714753730E+02  0.00000000000E+00 0.  1.
         24    2    1    2    0    0 -0.36782289185E+02  0.92942499351E+02  0.26504131274E+03  0.29458444057E+03  0.80881704895E+02 0.  0.
         25    2    1    2    0    0  0.47561452723E+02 -0.11476087615E+03  0.12746258471E+04  0.12867597266E+04  0.12508954206E+03 0.  0.
        -24    2    1    2    0    0 -0.10779163538E+02  0.21818376797E+02  0.92467880686E+03  0.92843130694E+03  0.79759412741E+02 0.  0.
        -11    1    3    3    0    0 -0.34134950707E+02  0.18642486306E+02  0.33275780816E+02  0.51186079596E+02  0.00000000000E+00 0.  1.
         12    1    3    3    0    0 -0.26473384776E+01  0.74300013045E+02  0.23176553192E+03  0.24339836098E+03  0.00000000000E+00 0. -1.
         11    1    5    5    0    0 -0.39439620335E+02  0.11005678373E+02  0.74775624058E+03  0.74887649445E+03  0.00000000000E+00 0. -1.
        -12    1    5    5    0    0  0.28660456796E+02  0.10812698424E+02  0.17692256628E+03  0.17955481249E+03  0.00000000000E+00 0.  1.
          5    1    4    4  501    0 -0.24740830864E+02 -0.26860227670E+02  0.69950372971E+03  0.70046878647E+03  0.41800000000E+01 0.  1.
         -5    1    4    4    0  501  0.72302283588E+02 -0.87900648479E+02  0.57512211736E+03  0.58629094014E+03  0.41800000000E+01 0.  1.
</event>
<event>
11    1  0.9238666E-009  0.3820182E+03  0.7561462E-02  0.9704356E-01
         22   -1    0    0    0    0  0.00000000000E+00  0.00000000000E+00  0.55576424117E+03  0.55576424117E+03  0.00000000000E+00 0.  1.
         22   -1    0    0    0    0 -0.00000000000E+00 -0.00000000000E+00 -0.10495716204E+04  0.10495716204E+04  0.00000000000E+00 0. -1.
         24    2    1    2    0    0 -0.31602166847E+02  0.23307798386E+02 -0.77847350530E+03  0.78313414313E+03  0.75737291135E+02 0.  0.
         25    2    1    2    0    0 -0.33860648649E+03  0.30605836521E+02  0.31387138938E+02  0.36362673880E+03  0.12509269666E+03 0.  0.
        -24    2    1    2    0    0  0.37020865333E+03 -0.53913634907E+02  0.25327898712E+03  0.45857497965E+03  0.78610683837E+02 0.  0.
        -11    1    3    3    0    0 -0.36437648239E+01 -0.17519568204E+02 -0.52298666766E+02  0.55275336613E+02  0.00000000000E+00 0.  1.
         12    1    3    3    0    0 -0.27958402023E+02  0.40827366590E+02 -0.72617483853E+03  0.72785880652E+03  0.00000000000E+00 0. -1.
         13    1    5    5    0    0  0.60929218615E+02 -0.32203626487E+02  0.24034641013E+02  0.72987034524E+02  0.00000000000E+00 0. -1.
        -14    1    5    5    0    0  0.30927943472E+03 -0.21710008421E+02  0.22924434611E+03  0.38558794513E+03  0.00000000000E+00 0.  1.
          5    1    4    4  501    0 -0.29818993076E+03 -0.11294077074E+02  0.49510025147E+02  0.30251199311E+03  0.41800000000E+01 0. -1.
         -5    1    4    4    0  501 -0.40416555726E+02  0.41899913594E+02 -0.18122886209E+02  0.61114745688E+02  0.41800000000E+01 0. -1.
</event>
<event>
11    1  0.9424325E-009  0.1501774E+03  0.7561462E-02  0.1096698E+00
         22   -1    0    0    0    0  0.00000000000E+00  0.00000000000E+00  0.14760041022E+04  0.14760041022E+04  0.00000000000E+00 0. -1.
         22   -1    0    0    0    0 -0.00000000000E+00 -0.00000000000E+00 -0.35928012440E+03  0.35928012440E+03  0.00000000000E+00 0. -1.
        -24    2    1    2    0    0 -0.46331631625E+02 -0.10613410574E+02 -0.25768406586E+03  0.27402996977E+03  0.80200261605E+02 0.  0.
         25    2    1    2    0    0  0.60219683491E+02 -0.71386798076E+02 -0.23731631099E+02  0.15790157197E+03  0.12508889199E+03 0.  0.
         24    2    1    2    0    0 -0.13888051866E+02  0.82000208650E+02  0.13981396747E+04  0.14033526848E+04  0.87677224781E+02 0.  0.
        -11    1    5    5    0    0 -0.40571386741E+02  0.15929777661E+02  0.33431751274E+03  0.33714684421E+03  0.00000000000E+00 0.  1.
         12    1    5    5    0    0  0.26683334874E+02  0.66070430989E+02  0.10638221620E+04  0.10662058406E+04  0.00000000000E+00 0. -1.
         11    1    3    3    0    0 -0.40012513995E+02 -0.20332623246E+02 -0.25853879078E+03  0.26240564625E+03  0.00000000000E+00 0. -1.
        -12    1    3    3    0    0 -0.63191176295E+01  0.97192126725E+01  0.85472492454E+00  0.11624323519E+02  0.00000000000E+00 0.  1.
          5    1    4    4  501    0 -0.16131703999E+02  0.67825413781E+01  0.30829395727E+02  0.35695360796E+02  0.41800000000E+01 0. -1.
         -5    1    4    4    0  501  0.76351387490E+02 -0.78169339454E+02 -0.54561026826E+02  0.12220621118E+03  0.41800000000E+01 0. -1.
</event>
<event>
11    1  0.9238666E-009  0.1373908E+03  0.7561462E-02  0.1110507E+00
         22   -1    0    0    0    0  0.00000000000E+00  0.00000000000E+00  0.13131901571E+04  0.13131901571E+04  0.00000000000E+00 0. -1.
         22   -1    0    0    0    0 -0.00000000000E+00 -0.00000000000E+00 -0.69296602306E+02  0.69296602306E+02  0.00000000000E+00 0.  1.
        -24    2    1    2    0    0 -0.97975565459E+01  0.55945079812E+02 -0.17714519055E+02  0.10079296817E+03  0.81360765586E+02 0.  0.
         25    2    1    2    0    0 -0.14861411432E+02 -0.61849434845E+02  0.71844703117E+03  0.73201860392E+03  0.12505553070E+03 0.  0.
         24    2    1    2    0    0  0.24658967978E+02  0.59043550328E+01  0.54316104266E+03  0.54967518729E+03  0.80473394070E+02 0.  0.
        -11    1    5    5    0    0 -0.18965810384E+02  0.29234476467E+02  0.23427206313E+03  0.23684964881E+03  0.00000000000E+00 0.  1.
         12    1    5    5    0    0  0.43624778361E+02 -0.23330121435E+02  0.30888897952E+03  0.31282553848E+03  0.00000000000E+00 0. -1.
         13    1    3    3    0    0  0.18881536677E+02 -0.95625131295E+01  0.10855659035E+02  0.23786538582E+02  0.00000000000E+00 0. -1.
        -14    1    3    3    0    0 -0.28679093222E+02  0.65507592942E+02 -0.28570178090E+02  0.77006429583E+02  0.00000000000E+00 0.  1.
          5    1    4    4  501    0  0.42590206580E+02 -0.30472941913E+02  0.52769104144E+03  0.53029975816E+03  0.41800000000E+01 0.  1.
         -5    1    4    4    0  501 -0.57451618012E+02 -0.31376492932E+02  0.19075598973E+03  0.20171884577E+03  0.41800000000E+01 0.  1.
</event>
<event>
11    1  0.9588652E-009  0.1515019E+03  0.7561462E-02  0.1095354E+00
         22   -1    0    0    0    0  0.00000000000E+00  0.00000000000E+00  0.57303582874E+03  0.57303582874E+03  0.00000000000E+00 0.  1.
         22   -1    0    0    0    0 -0.00000000000E+00 -0.00000000000E+00 -0.93469590504E+03  0.93469590504E+03  0.00000000000E+00 0.  1.
         24    2    1    2    0    0 -0.42748710463E+02 -0.16874124751E+02 -0.56287347611E+03  0.57052756930E+03  0.81012152770E+02 0.  0.
         25    2    1    2    0    0  0.65327391438E+02  0.98822039581E+02 -0.34128247915E+03  0.38230223956E+03  0.12509119960E+03 0.  0.
        -24    2    1    2    0    0 -0.22578680976E+02 -0.81947914830E+02  0.54249587896E+03  0.55490192492E+03  0.79931908614E+02 0.  0.
        -13    1    3    3    0    0 -0.20983516416E+02 -0.27079115133E+02 -0.52189847050E+03  0.52302160562E+03  0.00000000000E+00 0.  1.
         14    1    3    3    0    0 -0.21765194046E+02  0.10204990382E+02 -0.40975005603E+02  0.47505963676E+02  0.00000000000E+00 0. -1.
         13    1    5    5    0    0  0.50947436075E+01  0.35140849493E+01  0.22114226969E+03  0.22122886034E+03  0.00000000000E+00 0. -1.
        -14    1    5    5    0    0 -0.27673424583E+02 -0.85461999779E+02  0.32135360927E+03  0.33367306458E+03  0.00000000000E+00 0.  1.
          5    1    4    4  501    0 -0.88505103547E+00  0.28053564696E+02 -0.24142018601E+03  0.24308221741E+03  0.41800000000E+01 0.  1.
         -5    1    4    4    0  501  0.66212442474E+02  0.70768474885E+02 -0.99862293139E+02  0.13922002215E+03  0.41800000000E+01 0.  1.
</event>
<event>
11    1  0.9238666E-009  0.1466287E+03  0.7561462E-02  0.1100374E+00
         22   -1    0    0    0    0  0.00000000000E+00  0.00000000000E+00  0.33489777283E+03  0.33489777283E+03  0.00000000000E+00 0. -1.
         22   -1    0    0    0    0 -0.00000000000E+00 -0.00000000000E+00 -0.49678012455E+03  0.49678012455E+03  0.00000000000E+00 0.  1.
        -24    2    1    2    0    0  0.20953115948E+02  0.28124313566E+02 -0.40348969960E+03  0.41282487404E+03  0.79940157999E+02 0.  0.
         25    2    1    2    0    0 -0.52934381520E+02 -0.92077796197E+02  0.13063629068E+02  0.16460980190E+03  0.12508141020E+03 0.  0.
         24    2    1    2    0    0  0.31981265572E+02  0.63953482631E+02  0.22854371881E+03  0.25424322144E+03  0.85408049700E+02 0.  0.
        -13    1    5    5    0    0  0.51804709871E+02  0.54743834831E+02  0.21659149839E+03  0.22933053131E+03  0.00000000000E+00 0.  1.
         14    1    5    5    0    0 -0.19823444299E+02  0.92096477998E+01  0.11952220416E+02  0.24912690127E+02  0.00000000000E+00 0. -1.
         13    1    3    3    0    0 -0.11480909723E+02  0.15003258957E+02 -0.19165672797E+02  0.26911560363E+02  0.00000000000E+00 0. -1.
        -14    1    3    3    0    0  0.32434025670E+02  0.13121054610E+02 -0.38432402680E+03  0.38591331367E+03  0.00000000000E+00 0.  1.
          5    1    4    4  501    0 -0.50248942405E+02 -0.90232878396E+02  0.58563231807E+02  0.11880258026E+03  0.41800000000E+01 0. -1.
         -5    1    4    4    0  501 -0.26854391156E+01 -0.18449178016E+01 -0.45499602739E+02  0.45807221640E+02  0.41800000000E+01 0. -1.
</event>
<event>
11    1  0.9238666E-009  0.1813430E+03  0.7561462E-02  0.1068562E+00
         22   -1    0    0    0    0  0.00000000000E+00  0.00000000000E+00  0.13293230092E+04  0.13293230092E+04  0.00000000000E+00 0.  1.
         22   -1    0    0    0    0 -0.00000000000E+00 -0.00000000000E+00 -0.89100959586E+03  0.89100959586E+03  0.00000000000E+00 0. -1.
        -24    2    1    2    0    0 -0.35364412186E+02  0.74674780733E+02 -0.81758586206E+03  0.82569546648E+03  0.80618837689E+02 0.  0.
         25    2    1    2    0    0 -0.88888948650E+02 -0.11854171259E+03  0.81674842923E+02  0.21040923330E+03  0.12509149721E+03 0.  0.
         24    2    1    2    0    0  0.12425336084E+03  0.43866931853E+02  0.11742244325E+04  0.11842279053E+04  0.78927235166E+02 0.  0.
        -13    1    5    5    0    0  0.32088959050E+02  0.46336449706E+02  0.60090050830E+03  0.60353805907E+03  0.00000000000E+00 0.  1.
         14    1    5    5    0    0  0.92164401786E+02 -0.24695178526E+01  0.57332392421E+03  0.58068984626E+03  0.00000000000E+00 0. -1.
         11    1    3    3    0    0  0.16464750308E+02  0.25180835583E+02 -0.46092490646E+03  0.46190576082E+03  0.00000000000E+00 0. -1.
        -12    1    3    3    0    0 -0.51829162494E+02  0.49493945150E+02 -0.35666095561E+03  0.36378970566E+03  0.00000000000E+00 0.  1.
          5    1    4    4  501    0 -0.38387905428E+02 -0.11156435676E+03  0.49062721343E+01  0.11815998007E+03  0.41800000000E+01 0.  1.
         -5    1    4    4    0  501 -0.50501043222E+02 -0.69773558244E+01  0.76768570789E+02  0.92249253231E+02  0.41800000000E+01 0.  1.
</event>
<event>
11    1  0.9238666E-009  0.2943564E+03  0.7561462E-02  0.1002608E+00
         22   -1    0    0    0    0  0.00000000000E+00  0.00000000000E+00  0.64642228338E+03  0.64642228338E+03  0.00000000000E+00 0.  1.
         22   -1    0    0    0    0 -0.00000000000E+00 -0.00000000000E+00 -0.42422183609E+03  0.42422183609E+03  0.00000000000E+00 0. -1.
        -24    2    1    2    0    0  0.20694411172E+03 -0.13845945659E+03 -0.23232318007E+03  0.34941040270E+03  0.78209225938E+02 0.  0.
         25    2    1    2    0    0 -0.31119154562E+03  0.18307077241E+03  0.19984474218E+03  0.43120852722E+03  0.12509111555E+03 0.  0.
         24    2    1    2    0    0  0.10424743390E+03 -0.44611315821E+02  0.25467888517E+03  0.29002518956E+03  0.79972364288E+02 0.  0.
        -13    1    5    5    0    0  0.10415086346E+03 -0.13713416340E+02  0.21854766243E+03  0.24248410443E+03  0.00000000000E+00 0.  1.
         14    1    5    5    0    0  0.96570441210E-01 -0.30897899481E+02  0.36131222743E+02  0.47541085128E+02  0.00000000000E+00 0. -1.
         11    1    3    3    0    0  0.13595969232E+03 -0.47809362504E+02 -0.14893155371E+03  0.20724714900E+03  0.00000000000E+00 0. -1.
        -12    1    3    3    0    0  0.70984419402E+02 -0.90650094082E+02 -0.83391626361E+02  0.14216325370E+03  0.00000000000E+00 0.  1.
          5    1    4    4  501    0 -0.32247662495E+03  0.17095639098E+03  0.19167154900E+03  0.41227747496E+03  0.41800000000E+01 0.  1.
         -5    1    4    4    0  501  0.11285079334E+02  0.12114381423E+02  0.81731931850E+01  0.18931052260E+02  0.41800000000E+01 0.  1.
</event>
<event>
11    1  0.9238666E-009  0.1377706E+03  0.7561462E-02  0.1110074E+00
         22   -1    0    0    0    0  0.00000000000E+00  0.00000000000E+00  0.42218955654E+03  0.42218955654E+03  0.00000000000E+00 0.  1.
         22   -1    0    0    0    0 -0.00000000000E+00 -0.00000000000E+00 -0.33727978385E+03  0.33727978385E+03  0.00000000000E+00 0.  1.
        -24    2    1    2    0    0  0.44505514671E+02  0.38700850922E+02 -0.28537743323E+03  0.30191988721E+03  0.78973680395E+02 0.  0.
         25    2    1    2    0    0 -0.16253673756E+02 -0.41862786182E+02  0.79695998523E+02  0.15497206418E+03  0.12509282041E+03 0.  0.
         24    2    1    2    0    0 -0.28251840915E+02  0.31619352602E+01  0.29059120740E+03  0.30257738900E+03  0.79383009318E+02 0.  0.
        -11    1    5    5    0    0 -0.28744038463E+02  0.36001313168E+01  0.29585633790E+03  0.29727117817E+03  0.00000000000E+00 0.  1.
         12    1    5    5    0    0  0.49219754772E+00 -0.43819605657E+00 -0.52651305029E+01  0.53062108347E+01  0.00000000000E+00 0. -1.
         11    1    3    3    0    0 -0.13200140777E+02  0.28302237195E+02 -0.46944364505E+02  0.56382920336E+02  0.00000000000E+00 0. -1.
        -12    1    3    3    0    0  0.57705655448E+02  0.10398613727E+02 -0.23843306873E+03  0.24553696687E+03  0.00000000000E+00 0.  1.
          5    1    4    4  501    0  0.49988695167E+02 -0.42815736721E+02  0.46934456452E+02  0.80946726665E+02  0.41800000000E+01 0.  1.
         -5    1    4    4    0  501 -0.66242368923E+02  0.95295053883E+00  0.32761542072E+02  0.74025337514E+02  0.41800000000E+01 0.  1.
</event>
<event>
11    1  0.9238666E-009  0.1516594E+03  0.7561462E-02  0.1095195E+00
         22   -1    0    0    0    0  0.00000000000E+00  0.00000000000E+00  0.35433544324E+03  0.35433544324E+03  0.00000000000E+00 0. -1.
         22   -1    0    0    0    0 -0.00000000000E+00 -0.00000000000E+00 -0.16517970008E+04  0.16517970008E+04  0.00000000000E+00 0. -1.
         24    2    1    2    0    0  0.26398089558E+02 -0.51963560202E+02 -0.15908883782E+04  0.15939548363E+04  0.79806750530E+02 0.  0.
         25    2    1    2    0    0  0.66662088210E+02  0.42811361238E+02  0.86393456187E+02  0.17142990156E+03  0.12509090783E+03 0.  0.
        -24    2    1    2    0    0 -0.93060177768E+02  0.91521989644E+01  0.20703336447E+03  0.24074770619E+03  0.79703730159E+02 0.  0.
        -11    1    3    3    0    0  0.14491349591E+02  0.20377510390E+02 -0.33839951791E+03  0.33932208278E+03  0.00000000000E+00 0.  1.
         12    1    3    3    0    0  0.11906739967E+02 -0.72341070592E+02 -0.12524888603E+04  0.12546327535E+04  0.00000000000E+00 0. -1.
         11    1    5    5    0    0 -0.63292925142E+02  0.91187631033E+01  0.20025687939E+03  0.21021884776E+03  0.00000000000E+00 0. -1.
        -12    1    5    5    0    0 -0.29767252627E+02  0.33435861102E-01  0.67764850833E+01  0.30528858429E+02  0.00000000000E+00 0.  1.
          5    1    4    4  501    0  0.69616875458E+02  0.35497236723E+02  0.11632339705E+03  0.14019689106E+03  0.41800000000E+01 0. -1.
         -5    1    4    4    0  501 -0.29547872477E+01  0.73141245150E+01 -0.29929940860E+02  0.31233010501E+02  0.41800000000E+01 0. -1.
</event>
<event>
11    1  0.9238666E-009  0.1460374E+03  0.7561462E-02  0.1100998E+00
         22   -1    0    0    0    0  0.00000000000E+00  0.00000000000E+00  0.10804482907E+04  0.10804482907E+04  0.00000000000E+00 0.  1.
         22   -1    0    0    0    0 -0.00000000000E+00 -0.00000000000E+00 -0.30389718929E+03  0.30389718929E+03  0.00000000000E+00 0. -1.
        -24    2    1    2    0    0 -0.93873554497E+01 -0.75213898164E+02 -0.27312977377E+03  0.29359553678E+03  0.76506293724E+02 0.  0.
         25    2    1    2    0    0 -0.19278396554E+02  0.65966266865E+02  0.26227474584E+03  0.29859621797E+03  0.12509378140E+03 0.  0.
         24    2    1    2    0    0  0.28665752004E+02  0.92476312988E+01  0.78740612932E+03  0.79215372522E+03  0.81190318773E+02 0.  0.
        -11    1    5    5    0    0  0.32086156785E+02  0.19113719300E+02  0.77516355237E+03  0.77606274788E+03  0.00000000000E+00 0.  1.
         12    1    5    5    0    0 -0.34204047810E+01 -0.98660880013E+01  0.12242576948E+02  0.16090977337E+02  0.00000000000E+00 0. -1.
         13    1    3    3    0    0 -0.12296923246E+02 -0.90135848929E+02 -0.24876391630E+03  0.26487576642E+03  0.00000000000E+00 0. -1.
        -14    1    3    3    0    0  0.29095677965E+01  0.14921950765E+02 -0.24365857464E+02  0.28719770357E+02  0.00000000000E+00 0.  1.
          5    1    4    4  501    0 -0.31082233644E+02 -0.30094164033E+02  0.57654067734E+02  0.72202686123E+02  0.41800000000E+01 0.  1.
         -5    1    4    4    0  501  0.11803837090E+02  0.96060430898E+02  0.20462067811E+03  0.22639353185E+03  0.41800000000E+01 0.  1.
</event>
<event>
11    1  0.9238666E-009  0.1913935E+03  0.7561462E-02  0.1060782E+00
         22   -1    0    0    0    0  0.00000000000E+00  0.00000000000E+00  0.31352734549E+03  0.31352734549E+03  0.00000000000E+00 0.  1.
         22   -1    0    0    0    0 -0.00000000000E+00 -0.00000000000E+00 -0.17410445337E+03  0.17410445337E+03  0.00000000000E+00 0.  1.
        -24    2    1    2    0    0 -0.11399301833E+03 -0.58353755757E+02  0.31958557454E+02  0.15618608919E+03  0.83505544867E+02 0.  0.
         25    2    1    2    0    0  0.15157829967E+03  0.68874308532E+02  0.30787405426E+02  0.21051118564E+03  0.12508974235E+03 0.  0.
         24    2    1    2    0    0 -0.37585281338E+02 -0.10520552775E+02  0.76676929242E+02  0.12093452403E+03  0.84985129414E+02 0.  0.
        -13    1    5    5    0    0  0.54782017945E+01 -0.27229732084E+02  0.68642999136E+02  0.74049512724E+02  0.00000000000E+00 0.  1.
         14    1    5    5    0    0 -0.43063483132E+02  0.16709179309E+02  0.80339301063E+01  0.46885011311E+02  0.00000000000E+00 0. -1.
         13    1    3    3    0    0 -0.19995025446E+02 -0.42524615912E+02 -0.15791666347E+02  0.49573387287E+02  0.00000000000E+00 0. -1.
        -14    1    3    3    0    0 -0.93997992882E+02 -0.15829139845E+02  0.47750223801E+02  0.10661270190E+03  0.00000000000E+00 0.  1.
          5    1    4    4  501    0  0.41200548488E+02  0.15718048070E+02  0.69102999030E+02  0.82080686558E+02  0.41800000000E+01 0. -1.
         -5    1    4    4    0  501  0.11037775118E+03  0.53156260462E+02 -0.38315593604E+02  0.12843049908E+03  0.41800000000E+01 0. -1.
</event>
<event>
11    1  0.9238666E-009  0.1750487E+03  0.7561462E-02  0.1073720E+00
         22   -1    0    0    0    0  0.00000000000E+00  0.00000000000E+00  0.25186955253E+04  0.25186955253E+04  0.00000000000E+00 0. -1.
         22   -1    0    0    0    0 -0.00000000000E+00 -0.00000000000E+00 -0.33226197060E+04  0.33226197060E+04  0.00000000000E+00 0. -1.
         24    2    1    2    0    0  0.11005493899E+03  0.53639799954E+02 -0.33075672631E+04  0.33107842317E+04  0.79383318345E+02 0.  0.
         25    2    1    2    0    0 -0.13311485284E+03 -0.41989389028E+02  0.69236993867E+03  0.71728850820E+03  0.12507597360E+03 0.  0.
        -24    2    1    2    0    0  0.23059913847E+02 -0.11650410925E+02  0.18112731437E+04  0.18132424913E+04  0.80439041077E+02 0.  0.
        -11    1    3    3    0    0  0.72835972283E+02  0.62871754558E+02 -0.16710822030E+04  0.16738499531E+04  0.00000000000E+00 0.  1.
         12    1    3    3    0    0  0.37218966710E+02 -0.92319546042E+01 -0.16364850601E+04  0.16369342786E+04  0.00000000000E+00 0. -1.
         13    1    5    5    0    0 -0.11471117622E+01 -0.31574672194E+02  0.15122883263E+04  0.15126183450E+04  0.00000000000E+00 0. -1.
        -14    1    5    5    0    0  0.24207025610E+02  0.19924261269E+02  0.29898481744E+03  0.30062414630E+03  0.00000000000E+00 0.  1.
          5    1    4    4  501    0 -0.49857271888E+02 -0.74088561749E+02  0.45426503447E+03  0.46297846222E+03  0.41800000000E+01 0.  1.
         -5    1    4    4    0  501 -0.83257580952E+02  0.32099172720E+02  0.23810490421E+03  0.25431004598E+03  0.41800000000E+01 0.  1.
</event>
<event>
11    1  0.9238666E-009  0.1324119E+03  0.7561462E-02  0.1116341E+00
         22   -1    0    0    0    0  0.00000000000E+00  0.00000000000E+00  0.69427275848E+03  0.69427275848E+03  0.00000000000E+00 0.  1.
         22   -1    0    0    0    0 -0.00000000000E+00 -0.00000000000E+00 -0.36809886915E+03  0.36809886915E+03  0.00000000000E+00 0. -1.
         24    2    1    2    0    0  0.28915725982E+02 -0.31758333361E+02 -0.32060714347E+03  0.33339622910E+03  0.80742765546E+02 0.  0.
         25    2    1    2    0    0 -0.24843408838E+02  0.48033736760E+02  0.83526296818E+02  0.15983967622E+03  0.12509054722E+03 0.  0.
        -24    2    1    2    0    0 -0.40723171441E+01 -0.16275403399E+02  0.56325473598E+03  0.56913572230E+03  0.79863009369E+02 0.  0.
        -13    1    3    3    0    0 -0.14529709386E+02 -0.30963837824E+02 -0.58937330196E+02  0.68143089146E+02  0.00000000000E+00 0.  1.
         14    1    3    3    0    0  0.43445435369E+02 -0.79449553668E+00 -0.26166981327E+03  0.26525313996E+03  0.00000000000E+00 0. -1.
         13    1    5    5    0    0 -0.36381921660E+02 -0.22048570139E+02  0.20421961734E+03  0.20860353730E+03  0.00000000000E+00 0. -1.
        -14    1    5    5    0    0  0.32309604516E+02  0.57731667399E+01  0.35903511865E+03  0.36053218500E+03  0.00000000000E+00 0.  1.
          5    1    4    4  501    0 -0.24255087540E+02  0.86429236104E+02  0.81242935780E+02  0.12114540495E+03  0.41800000000E+01 0. -1.
         -5    1    4    4    0  501 -0.58832129849E+00 -0.38395499344E+02  0.22833610372E+01  0.38694271274E+02  0.41800000000E+01 0. -1.
</event>
<event>
11    1  0.9238666E-009  0.1883538E+03  0.7561462E-02  0.1063079E+00
         22   -1    0    0    0    0  0.00000000000E+00  0.00000000000E+00  0.29588988130E+04  0.29588988130E+04  0.00000000000E+00 0. -1.
         22   -1    0    0    0    0 -0.00000000000E+00 -0.00000000000E+00 -0.10388848310E+03  0.10388848310E+03  0.00000000000E+00 0. -1.
         24    2    1    2    0    0  0.58476035878E+02  0.67320049807E+02  0.33342021581E+01  0.12007147083E+03  0.80340558405E+02 0.  0.
         25    2    1    2    0    0  0.60971785384E+02 -0.14310316761E+03  0.18839785295E+03  0.27447715189E+03  0.12509148942E+03 0.  0.
        -24    2    1    2    0    0 -0.11944782126E+03  0.75783117798E+02  0.26632782748E+04  0.26682386734E+04  0.80222105441E+02 0.  0.
        -13    1    3    3    0    0  0.63899744429E-01  0.82056846440E+01  0.31322674572E+02  0.32379735731E+02  0.00000000000E+00 0.  1.
         14    1    3    3    0    0  0.58412136134E+02  0.59114365163E+02 -0.27988472414E+02  0.87691735098E+02  0.00000000000E+00 0. -1.
         13    1    5    5    0    0 -0.86465825837E+02  0.69380648308E+02  0.13544786035E+04  0.13590078369E+04  0.00000000000E+00 0. -1.
        -14    1    5    5    0    0 -0.32981995425E+02  0.64024694896E+01  0.13087996713E+04  0.13092308365E+04  0.00000000000E+00 0.  1.
          5    1    4    4  501    0  0.89431519790E+02 -0.11947167752E+03  0.18406311988E+03  0.23699827629E+03  0.41800000000E+01 0. -1.
         -5    1    4    4    0  501 -0.28459734405E+02 -0.23631490084E+02  0.43347330640E+01  0.37478875607E+02  0.41800000000E+01 0. -1.
</event>
<event>
11    1  0.9238666E-009  0.1509181E+03  0.7561462E-02  0.1095944E+00
         22   -1    0    0    0    0  0.00000000000E+00  0.00000000000E+00  0.66405720242E+03  0.66405720242E+03  0.00000000000E+00 0. -1.
         22   -1    0    0    0    0 -0.00000000000E+00 -0.00000000000E+00 -0.26038432068E+03  0.26038432068E+03  0.00000000000E+00 0.  1.
        -24    2    1    2    0    0 -0.25891475547E+02  0.70875663139E+02 -0.19918213799E+03  0.22738159603E+03  0.79593580061E+02 0.  0.
         25    2    1    2    0    0  0.39503070878E+02  0.22385698436E+02  0.70639235516E+02  0.15066402554E+03  0.12509250535E+03 0.  0.
         24    2    1    2    0    0 -0.13611595331E+02 -0.93261361574E+02  0.53221578422E+03  0.54639590153E+03  0.80074235207E+02 0.  0.
        -13    1    5    5    0    0 -0.16026763753E+02  0.40246523105E+01  0.25264500900E+02  0.30188573805E+02  0.00000000000E+00 0.  1.
         14    1    5    5    0    0  0.24151684222E+01 -0.97286013885E+02  0.50695128332E+03  0.51620732773E+03  0.00000000000E+00 0. -1.
         11    1    3    3    0    0 -0.33792470152E+02  0.47384092024E+02 -0.51746821456E+02  0.77877575378E+02  0.00000000000E+00 0. -1.
        -12    1    3    3    0    0  0.79009946052E+01  0.23491571115E+02 -0.14743531654E+03  0.14950402066E+03  0.00000000000E+00 0.  1.
          5    1    4    4  501    0  0.50932007179E+02 -0.42852051951E+02  0.36800548671E+02  0.76171651513E+02  0.41800000000E+01 0. -1.
         -5    1    4    4    0  501 -0.11428936301E+02  0.65237750387E+02  0.33838686845E+02  0.74492374025E+02  0.41800000000E+01 0. -1.
</event>
<event>
11    1  0.9238666E-009  0.1524628E+03  0.7561462E-02  0.1094389E+00
         22   -1    0    0    0    0  0.00000000000E+00  0.00000000000E+00  0.31806600622E+03  0.31806600622E+03  0.00000000000E+00 0.  1.
         22   -1    0    0    0    0 -0.00000000000E+00 -0.00000000000E+00 -0.27683935151E+04  0.27683935151E+04  0.00000000000E+00 0. -1.
        -24    2    1    2    0    0 -0.86185489768E+02  0.22910199296E+02 -0.23685276489E+04  0.23716947581E+04  0.84023724296E+02 0.  0.
         25    2    1    2    0    0  0.59192253644E+02 -0.46935983476E+02 -0.37862148231E+03  0.40584359813E+03  0.12509232526E+03 0.  0.
         24    2    1    2    0    0  0.26993236125E+02  0.24025784180E+02  0.29682162232E+03  0.30892116507E+03  0.77610164570E+02 0.  0.
        -13    1    5    5    0    0  0.17347744630E+02 -0.10403768593E+02  0.24572928739E+03  0.24656046992E+03  0.00000000000E+00 0.  1.
         14    1    5    5    0    0  0.96454914943E+01  0.34429552773E+02  0.51092334931E+02  0.62360695145E+02  0.00000000000E+00 0. -1.
         13    1    3    3    0    0 -0.75490256627E+02  0.33753372934E+02 -0.23003852963E+04  0.23018711042E+04  0.00000000000E+00 0. -1.
        -14    1    3    3    0    0 -0.10695233141E+02 -0.10843173638E+02 -0.68142352614E+02  0.69823653917E+02  0.00000000000E+00 0.  1.
          5    1    4    4  501    0  0.92496627940E+02 -0.46276809271E+02 -0.21258062016E+03  0.23644272398E+03  0.41800000000E+01 0. -1.
         -5    1    4    4    0  501 -0.33304374297E+02 -0.65917420495E+00 -0.16604086215E+03  0.16940087415E+03  0.41800000000E+01 0. -1.
</event>
<event>
11    1  0.9238666E-009  0.1976203E+03  0.7561462E-02  0.1056219E+00
         22   -1    0    0    0    0  0.00000000000E+00  0.00000000000E+00  0.15543634113E+03  0.15543634113E+03  0.00000000000E+00 0. -1.
         22   -1    0    0    0    0 -0.00000000000E+00 -0.00000000000E+00 -0.83733730627E+03  0.83733730627E+03  0.00000000000E+00 0. -1.
        -24    2    1    2    0    0 -0.49590667601E+01  0.19241569524E+02 -0.49027116975E+03  0.49723074348E+03  0.80484545315E+02 0.  0.
         25    2    1    2    0    0 -0.12604476527E+03  0.64850629769E+02 -0.24797322942E+03  0.31181892398E+03  0.12508969508E+03 0.  0.
         24    2    1    2    0    0  0.13100383203E+03 -0.84092199292E+02  0.56343434023E+02  0.18372397993E+03  0.79664397660E+02 0.  0.
        -13    1    5    5    0    0  0.10087945465E+02  0.15286922753E+02  0.46951654879E+01  0.18907702925E+02  0.00000000000E+00 0.  1.
         14    1    5    5    0    0  0.12091588657E+03 -0.99379122045E+02  0.51648268535E+02  0.16481627700E+03  0.00000000000E+00 0. -1.
         13    1    3    3    0    0  0.19778744423E+02  0.26235163096E+02 -0.43538014272E+03  0.43661808390E+03  0.00000000000E+00 0. -1.
        -14    1    3    3    0    0 -0.24737811183E+02 -0.69935935727E+01 -0.54891027032E+02  0.60612659584E+02  0.00000000000E+00 0.  1.
          5    1    4    4  501    0 -0.10601395994E+03  0.96566410846E+02 -0.15359668480E+03  0.21017479722E+03  0.41800000000E+01 0. -1.
         -5    1    4    4    0  501 -0.20030805332E+02 -0.31715781078E+02 -0.94376544616E+02  0.10164412676E+03  0.41800000000E+01 0. -1.
</event>
<event>
11    1  0.9238666E-009  0.1443662E+03  0.7561462E-02  0.1102778E+00
         22   -1    0    0    0    0  0.00000000000E+00  0.00000000000E+00  0.47664548122E+03  0.47664548122E+03  0.00000000000E+00 0.  1.
         22   -1    0    0    0    0 -0.00000000000E+00 -0.00000000000E+00 -0.21733881937E+03  0.21733881937E+03  0.00000000000E+00 0.  1.
         24    2    1    2    0    0  0.52254213593E+02 -0.48519470944E+02 -0.13979672166E+03  0.17609092777E+03  0.79876464347E+02 0.  0.
         25    2    1    2    0    0  0.11134242620E+02 -0.34273203907E+01  0.26007864505E+02  0.12829512557E+03  0.12509001696E+03 0.  0.
        -24    2    1    2    0    0 -0.63388456213E+02  0.51946791335E+02  0.37309551901E+03  0.38959824725E+03  0.76615680143E+02 0.  0.
        -11    1    3    3    0    0 -0.18588249050E+01 -0.43568706765E+02 -0.98881236422E+02  0.10807028433E+03  0.00000000000E+00 0.  1.
         12    1    3    3    0    0  0.54113038498E+02 -0.49507641793E+01 -0.40915485242E+02  0.68020643440E+02  0.00000000000E+00 0. -1.
         11    1    5    5    0    0  0.11444183881E+01 -0.13327124011E+02  0.15804151550E+02  0.20704906038E+02  0.00000000000E+00 0. -1.
        -12    1    5    5    0    0 -0.64532874601E+02  0.65273915345E+02  0.35729136746E+03  0.36889334122E+03  0.00000000000E+00 0.  1.
          5    1    4    4  501    0 -0.12331286234E+02  0.49538996460E+02 -0.19190811677E+02  0.54698559791E+02  0.41800000000E+01 0. -1.
         -5    1    4    4    0  501  0.23465528854E+02 -0.52966316851E+02  0.45198676182E+02  0.73596565774E+02  0.41800000000E+01 0. -1.
</event>
<event>
11    1  0.9238666E-009  0.1348329E+03  0.7561462E-02  0.1113470E+00
         22   -1    0    0    0    0  0.00000000000E+00  0.00000000000E+00  0.68468735791E+02  0.68468735791E+02  0.00000000000E+00 0. -1.
         22   -1    0    0    0    0 -0.00000000000E+00 -0.00000000000E+00 -0.13327675279E+04  0.13327675279E+04  0.00000000000E+00 0.  1.
         24    2    1    2    0    0 -0.18736385880E+01  0.34934693133E+02 -0.99929203397E+03  0.10031694467E+04  0.80872901784E+02 0.  0.
         25    2    1    2    0    0  0.47200505595E+02 -0.48634354046E+02 -0.24278389146E+03  0.28139852729E+03  0.12509166674E+03 0.  0.
        -24    2    1    2    0    0 -0.45326867007E+02  0.13699660912E+02 -0.22222866717E+02  0.11666828978E+03  0.10428532233E+03 0.  0.
        -13    1    3    3    0    0 -0.26694149456E+02  0.38290199253E+02 -0.88194266996E+03  0.88317698683E+03  0.00000000000E+00 0.  1.
         14    1    3    3    0    0  0.24820510868E+02 -0.33555061196E+01 -0.11734936401E+03  0.11999245982E+03  0.00000000000E+00 0. -1.
         13    1    5    5    0    0 -0.13819182253E+02  0.38460248865E+02  0.30105075438E+02  0.50759000266E+02  0.00000000000E+00 0. -1.
        -14    1    5    5    0    0 -0.31507684754E+02 -0.24760587952E+02 -0.52327942155E+02  0.65909289516E+02  0.00000000000E+00 0.  1.
          5    1    4    4  501    0  0.24410921173E+02  0.24007763098E+01 -0.21917147349E+03  0.22057938252E+03  0.41800000000E+01 0.  1.
         -5    1    4    4    0  501  0.22789584422E+02 -0.51035130355E+02 -0.23612417968E+02  0.60819144772E+02  0.41800000000E+01 0.  1.
</event>
<event>
11    1  0.9238666E-009  0.3159550E+03  0.7561462E-02  0.9936560E-01
         22   -1    0    0    0    0  0.00000000000E+00  0.00000000000E+00  0.14346790868E+04  0.14346790868E+04  0.00000000000E+00 0. -1.
         22   -1    0    0    0    0 -0.00000000000E+00 -0.00000000000E+00 -0.19791665746E+03  0.19791665746E+03  0.00000000000E+00 0. -1.
        -24    2    1    2    0    0  0.24199307581E+02 -0.59774066050E+02 -0.90779036113E+02  0.13811092299E+03  0.81702192096E+02 0.  0.
         25    2    1    2    0    0 -0.30674644133E+03  0.20903694386E+02  0.39707649448E+03  0.51754031471E+03  0.12509153117E+03 0.  0.
         24    2    1    2    0    0  0.28254713375E+03  0.38870371664E+02  0.93046497098E+03  0.97694450655E+03  0.85508584872E+02 0.  0.
        -11    1    5    5    0    0  0.12919455241E+03 -0.24247643370E+02  0.38444256249E+03  0.40629455378E+03  0.00000000000E+00 0.  1.
         12    1    5    5    0    0  0.15335258135E+03  0.63118015034E+02  0.54602240849E+03  0.57064995277E+03  0.00000000000E+00 0. -1.
         11    1    3    3    0    0  0.44381153551E+02 -0.10090864837E+02 -0.62989910328E+02  0.77712554628E+02  0.00000000000E+00 0. -1.
        -12    1    3    3    0    0 -0.20181845970E+02 -0.49683201213E+02 -0.27789125785E+02  0.60398368367E+02  0.00000000000E+00 0.  1.
          5    1    4    4  501    0 -0.28542514339E+03  0.40392278424E+02  0.39396881761E+03  0.48818843727E+03  0.41800000000E+01 0. -1.
         -5    1    4    4    0  501 -0.21321297944E+02 -0.19488584038E+02  0.31076768737E+01  0.29351877442E+02  0.41800000000E+01 0. -1.
</event>
<event>
11    1  0.9238666E-009  0.2212004E+03  0.7561462E-02  0.1040468E+00
         22   -1    0    0    0    0  0.00000000000E+00  0.00000000000E+00  0.34999974706E+03  0.34999974706E+03  0.00000000000E+00 0. -1.
         22   -1    0    0    0    0 -0.00000000000E+00 -0.00000000000E+00 -0.42162579017E+03  0.42162579017E+03  0.00000000000E+00 0.  1.
         24    2    1    2    0    0 -0.15813741881E+03 -0.99395853644E+02 -0.27045778397E+03  0.33810291406E+03  0.79241331613E+02 0.  0.
         25    2    1    2    0    0  0.14155528991E+03  0.93191113492E+02 -0.86474617306E+01  0.21081808641E+03  0.12508798194E+03 0.  0.
        -24    2    1    2    0    0  0.16582128897E+02  0.62047401524E+01  0.20747920259E+03  0.22270453677E+03  0.78969775173E+02 0.  0.
        -13    1    3    3    0    0 -0.12608509171E+03 -0.35541947884E+02 -0.18557403056E+03  0.22715281471E+03  0.00000000000E+00 0.  1.
         14    1    3    3    0    0 -0.32052327100E+02 -0.63853905760E+02 -0.84883753403E+02  0.11095009935E+03  0.00000000000E+00 0. -1.
         11    1    5    5    0    0  0.33857678445E+01 -0.52716650303E+00  0.20785720595E+03  0.20788544777E+03  0.00000000000E+00 0. -1.
        -12    1    5    5    0    0  0.13196361053E+02  0.67319066555E+01 -0.37800336027E+00  0.14819089000E+02  0.00000000000E+00 0.  1.
          5    1    4    4  501    0  0.59682504497E+02  0.26976958722E+02 -0.64099676992E+02  0.91738752092E+02  0.41800000000E+01 0.  1.
         -5    1    4    4    0  501  0.81872785415E+02  0.66214154770E+02  0.55452215261E+02  0.11907933431E+03  0.41800000000E+01 0.  1.
</event>
<event>
11    1  0.9238666E-009  0.1720239E+03  0.7561462E-02  0.1076284E+00
         22   -1    0    0    0    0  0.00000000000E+00  0.00000000000E+00  0.42971013557E+03  0.42971013557E+03  0.00000000000E+00 0. -1.
         22   -1    0    0    0    0 -0.00000000000E+00 -0.00000000000E+00 -0.48810270432E+03  0.48810270432E+03  0.00000000000E+00 0. -1.
         24    2    1    2    0    0  0.93983615672E+02  0.69234038992E+02 -0.38610913963E+03  0.41363152912E+03  0.91566926390E+02 0.  0.
         25    2    1    2    0    0 -0.86102462891E+02 -0.98026652366E+02  0.17090794578E+02  0.18155662091E+03  0.12509137718E+03 0.  0.
        -24    2    1    2    0    0 -0.78811527812E+01  0.28792613374E+02  0.31062577630E+03  0.32262468987E+03  0.81897438648E+02 0.  0.
        -11    1    3    3    0    0  0.33380917648E+02  0.13219487709E+02 -0.26366561460E+02  0.44544764917E+02  0.00000000000E+00 0.  1.
         12    1    3    3    0    0  0.60602698024E+02  0.56014551284E+02 -0.35974257817E+03  0.36908676420E+03  0.00000000000E+00 0. -1.
         13    1    5    5    0    0  0.24697127933E+01 -0.13592931073E+02  0.23430997559E+03  0.23471691869E+03  0.00000000000E+00 0. -1.
        -14    1    5    5    0    0 -0.10350865575E+02  0.42385544447E+02  0.76315800703E+02  0.87907771177E+02  0.00000000000E+00 0.  1.
          5    1    4    4  501    0 -0.11632230283E+03 -0.93869778109E+02  0.18857091986E+02  0.15071654088E+03  0.41800000000E+01 0. -1.
         -5    1    4    4    0  501  0.30219839936E+02 -0.41568742570E+01 -0.17662974077E+01  0.30840080024E+02  0.41800000000E+01 0. -1.
</event>
<event>
11    1  0.9238666E-009  0.1480024E+03  0.7561462E-02  0.1098938E+00
         22   -1    0    0    0    0  0.00000000000E+00  0.00000000000E+00  0.14332517387E+04  0.14332517387E+04  0.00000000000E+00 0. -1.
         22   -1    0    0    0    0 -0.00000000000E+00 -0.00000000000E+00 -0.63875926025E+03  0.63875926025E+03  0.00000000000E+00 0.  1.
         24    2    1    2    0    0  0.58096245449E+02 -0.53930848094E+02 -0.62344244085E+03  0.63357114963E+03  0.80300775065E+02 0.  0.
         25    2    1    2    0    0 -0.71721898012E+01  0.69280752038E+02  0.75951710030E+03  0.77289478725E+03  0.12509541797E+03 0.  0.
        -24    2    1    2    0    0 -0.50924055648E+02 -0.15349903945E+02  0.65841781904E+03  0.66554506211E+03  0.81285461615E+02 0.  0.
        -13    1    3    3    0    0  0.14935863768E+01 -0.31477944425E+02 -0.42077357217E+03  0.42195200062E+03  0.00000000000E+00 0.  1.
         14    1    3    3    0    0  0.56602659072E+02 -0.22452903669E+02 -0.20266886868E+03  0.21161914901E+03  0.00000000000E+00 0. -1.
         11    1    5    5    0    0 -0.27586855603E+02 -0.27513275834E+02  0.60234411332E+03  0.60360288750E+03  0.00000000000E+00 0. -1.
        -12    1    5    5    0    0 -0.23337200044E+02  0.12163371890E+02  0.56073705727E+02  0.61942174611E+02  0.00000000000E+00 0.  1.
          5    1    4    4  501    0 -0.43201100094E+01  0.42456003533E+01 -0.27390196991E+01  0.78525856739E+01  0.41800000000E+01 0. -1.
         -5    1    4    4    0  501 -0.28520797918E+01  0.65035151685E+02  0.76225612000E+03  0.76504220157E+03  0.41800000000E+01 0. -1.
</event>
<event>
11    1  0.9238666E-009  0.1279448E+03  0.7561462E-02  0.1121820E+00
         22   -1    0    0    0    0  0.00000000000E+00  0.00000000000E+00  0.10915989033E+04  0.10915989033E+04  0.00000000000E+00 0. -1.
         22   -1    0    0    0    0 -0.00000000000E+00 -0.00000000000E+00 -0.13500199337E+03  0.13500199337E+03  0.00000000000E+00 0. -1.
        -24    2    1    2    0    0  0.17657440284E+02 -0.21839973076E+02 -0.10173007804E+03  0.13212472562E+03  0.79493174049E+02 0.  0.
         25    2    1    2    0    0  0.80936331667E+00  0.10017701516E+02  0.23026545919E+03  0.26224147061E+03  0.12508955912E+03 0.  0.
         24    2    1    2    0    0 -0.18466803601E+02  0.11822271561E+02  0.82806152874E+03  0.83223470040E+03  0.80298893083E+02 0.  0.
        -13    1    5    5    0    0  0.69927955922E+01  0.11152254363E+02  0.21086296141E+02  0.24857671905E+02  0.00000000000E+00 0.  1.
         14    1    5    5    0    0 -0.25459599193E+02  0.67001719822E+00  0.80697523260E+03  0.80737702850E+03  0.00000000000E+00 0. -1.
         13    1    3    3    0    0  0.31352653226E+01 -0.49987769367E+02 -0.45904315549E+02  0.67939775986E+02  0.00000000000E+00 0. -1.
        -14    1    3    3    0    0  0.14522174962E+02  0.28147796291E+02 -0.55825762490E+02  0.64184949632E+02  0.00000000000E+00 0.  1.
          5    1    4    4  501    0  0.70570500387E+01 -0.51244515229E+02  0.16247529111E+03  0.17056229044E+03  0.41800000000E+01 0.  1.
         -5    1    4    4    0  501 -0.62476867220E+01  0.61262216745E+02  0.67790168082E+02  0.91679180180E+02  0.41800000000E+01 0.  1.
</event>
<event>
11    1  0.1335879E-008  0.1662447E+03  0.7561462E-02  0.1081347E+00
         22   -1    0    0    0    0  0.00000000000E+00  0.00000000000E+00  0.82443406055E+03  0.82443406055E+03  0.00000000000E+00 0.  1.
         22   -1    0    0    0    0 -0.00000000000E+00 -0.00000000000E+00 -0.63856981646E+03  0.63856981646E+03  0.00000000000E+00 0. -1.
        -24    2    1    2    0    0 -0.29601555511E+01  0.10481718311E+03 -0.46985430643E+03  0.48812860068E+03  0.80691121788E+02 0.  0.
         25    2    1    2    0    0  0.10698615685E+03 -0.13466854009E+03 -0.79565235516E+02  0.22704598345E+03  0.12505038365E+03 0.  0.
         24    2    1    2    0    0 -0.10402600130E+03  0.29851356978E+02  0.73528378604E+03  0.74782929288E+03  0.83029469631E+02 0.  0.
        -13    1    5    5    0    0 -0.68853413395E+02  0.58978643132E+02  0.50075170698E+03  0.50889246892E+03  0.00000000000E+00 0.  1.
         14    1    5    5    0    0 -0.35172587904E+02 -0.29127286153E+02  0.23453207906E+03  0.23893682396E+03  0.00000000000E+00 0. -1.
         11    1    3    3    0    0 -0.17781778246E+02  0.84656788620E+02 -0.44322513370E+03  0.45158773526E+03  0.00000000000E+00 0. -1.
        -12    1    3    3    0    0  0.14821622695E+02  0.20160394487E+02 -0.26629172736E+02  0.36540865422E+02  0.00000000000E+00 0.  1.
          5    1    4    4  501    0  0.25887242269E+02 -0.14344063424E+02  0.32130804965E+02  0.43883510519E+02  0.41800000000E+01 0.  1.
         -5    1    4    4    0  501  0.81098914581E+02 -0.12032447666E+03 -0.11169604048E+03  0.18316247293E+03  0.41800000000E+01 0.  1.
</event>
<event>
11    1  0.9238666E-009  0.1648462E+03  0.7561462E-02  0.1082606E+00
         22   -1    0    0    0    0  0.00000000000E+00  0.00000000000E+00  0.10238309966E+03  0.10238309966E+03  0.00000000000E+00 0. -1.
         22   -1    0    0    0    0 -0.00000000000E+00 -0.00000000000E+00 -0.12848134861E+04  0.12848134861E+04  0.00000000000E+00 0. -1.
        -24    2    1    2    0    0  0.97177835106E+01  0.14194046501E+02 -0.85701637691E+03  0.86030803579E+03  0.73191118853E+02 0.  0.
         25    2    1    2    0    0 -0.69377872359E+02  0.76024584403E+02 -0.35501499049E+03  0.39022506778E+03  0.12508770301E+03 0.  0.
         24    2    1    2    0    0  0.59660088848E+02 -0.90218630904E+02  0.29600980969E+02  0.13666348219E+03  0.78115054411E+02 0.  0.
        -11    1    5    5    0    0  0.25590774385E+01  0.14020132631E+02  0.31762137213E+00  0.14255310578E+02  0.00000000000E+00 0.  1.
         12    1    5    5    0    0  0.57101011410E+02 -0.10423876354E+03  0.29283359597E+02  0.12240817161E+03  0.00000000000E+00 0. -1.
         13    1    3    3    0    0  0.19077698730E+02 -0.17475902170E+01 -0.80276391847E+03  0.80299247908E+03  0.00000000000E+00 0. -1.
        -14    1    3    3    0    0 -0.93599152192E+01  0.15941636718E+02 -0.54252458435E+02  0.57315556705E+02  0.00000000000E+00 0.  1.
          5    1    4    4  501    0 -0.90417143197E+02  0.12482742181E+02 -0.24373459606E+03  0.26029810670E+03  0.41800000000E+01 0. -1.
         -5    1    4    4    0  501  0.21039270838E+02  0.63541842223E+02 -0.11128039443E+03  0.12992696108E+03  0.41800000000E+01 0. -1.
</event>
<event>
11    1  0.9238666E-009  0.1758393E+03  0.7561462E-02  0.1073059E+00
         22   -1    0    0    0    0  0.00000000000E+00  0.00000000000E+00  0.43877667447E+03  0.43877667447E+03  0.00000000000E+00 0.  1.
         22   -1    0    0    0    0 -0.00000000000E+00 -0.00000000000E+00 -0.47784702793E+03  0.47784702793E+03  0.00000000000E+00 0.  1.
         24    2    1    2    0    0  0.77879990047E+01  0.36256872962E+02 -0.39179485153E+03  0.40155526872E+03  0.79801092640E+02 0.  0.
         25    2    1    2    0    0  0.80632386233E+01  0.94929632537E+02  0.36789086719E+02  0.16148588685E+03  0.12509038252E+03 0.  0.
        -24    2    1    2    0    0 -0.15851237628E+02 -0.13118650550E+03  0.31593541135E+03  0.35358254683E+03  0.88001547257E+02 0.  0.
        -11    1    3    3    0    0  0.36350017878E+02  0.29295304037E+02 -0.32808264960E+03  0.33138763345E+03  0.00000000000E+00 0.  1.
         12    1    3    3    0    0 -0.28562018873E+02  0.69615689245E+01 -0.63712201929E+02  0.70167635265E+02  0.00000000000E+00 0. -1.
         13    1    5    5    0    0  0.61146295815E+01 -0.45404593519E+02  0.31285343989E+02  0.55477369765E+02  0.00000000000E+00 0. -1.
        -14    1    5    5    0    0 -0.21965867210E+02 -0.85781911981E+02  0.28465006736E+03  0.29810517707E+03  0.00000000000E+00 0.  1.
          5    1    4    4  501    0  0.41549218192E+02  0.75203182654E+01 -0.25001184826E+02  0.49248597563E+02  0.41800000000E+01 0. -1.
         -5    1    4    4    0  501 -0.33485979569E+02  0.87409314272E+02  0.61790271545E+02  0.11223728929E+03  0.41800000000E+01 0. -1.
</event>
<event>
11    1  0.9238666E-009  0.1352282E+03  0.7561462E-02  0.1113007E+00
         22   -1    0    0    0    0  0.00000000000E+00  0.00000000000E+00  0.63492540439E+03  0.63492540439E+03  0.00000000000E+00 0. -1.
         22   -1    0    0    0    0 -0.00000000000E+00 -0.00000000000E+00 -0.11994473336E+04  0.11994473336E+04  0.00000000000E+00 0. -1.
        -24    2    1    2    0    0  0.36099012532E+02  0.36278344070E+02 -0.11612730234E+04  0.11651708175E+04  0.80304060517E+02 0.  0.
         25    2    1    2    0    0 -0.48064627827E+02 -0.46466379192E+02  0.12076121913E+03  0.18627905072E+03  0.12508908765E+03 0.  0.
         24    2    1    2    0    0  0.11965615295E+02  0.10188035121E+02  0.47598987511E+03  0.48292286971E+03  0.80007280129E+02 0.  0.
        -13    1    5    5    0    0 -0.22389209454E+02  0.12030035628E+02  0.55673392580E+02  0.61200695245E+02  0.00000000000E+00 0.  1.
         14    1    5    5    0    0  0.34354824749E+02 -0.18420005072E+01  0.42031648253E+03  0.42172217446E+03  0.00000000000E+00 0. -1.
         13    1    3    3    0    0  0.98970474847E+01  0.40056072118E+02 -0.10493015610E+04  0.10501124732E+04  0.00000000000E+00 0. -1.
        -14    1    3    3    0    0  0.26201965047E+02 -0.37777280480E+01 -0.11197146244E+03  0.11505834434E+03  0.00000000000E+00 0.  1.
          5    1    4    4  501    0  0.41000290603E+02 -0.91296322224E+00  0.42387447422E+02  0.59127197044E+02  0.41800000000E+01 0.  1.
         -5    1    4    4    0  501 -0.89064918430E+02 -0.45553415969E+02  0.78373771709E+02  0.12715185368E+03  0.41800000000E+01 0.  1.
</event>
<event>
11    1  0.9238666E-009  0.1448767E+03  0.7561462E-02  0.1102232E+00
         22   -1    0    0    0    0  0.00000000000E+00  0.00000000000E+00  0.14420643254E+04  0.14420643254E+04  0.00000000000E+00 0. -1.
         22   -1    0    0    0    0 -0.00000000000E+00 -0.00000000000E+00 -0.12366610236E+03  0.12366610236E+03  0.00000000000E+00 0. -1.
         24    2    1    2    0    0  0.73250629625E+02 -0.36463739800E+01 -0.82312793200E+02  0.13627134314E+03  0.80097017750E+02 0.  0.
         25    2    1    2    0    0 -0.69709632255E+02 -0.45875900499E+01  0.38814697687E+03  0.41374514330E+03  0.12508592702E+03 0.  0.
        -24    2    1    2    0    0 -0.35409973702E+01  0.82339640299E+01  0.10125640394E+04  0.10157139413E+04  0.79426317825E+02 0.  0.
        -11    1    3    3    0    0  0.53798688700E+02  0.10416166204E+02 -0.46623707945E+01  0.54995755524E+02  0.00000000000E+00 0.  1.
         12    1    3    3    0    0  0.19451940925E+02 -0.14062540184E+02 -0.77650422405E+02  0.81275587613E+02  0.00000000000E+00 0. -1.
         13    1    5    5    0    0  0.76862293159E+01 -0.32828150045E+02  0.30207696144E+03  0.30395272032E+03  0.00000000000E+00 0. -1.
        -14    1    5    5    0    0 -0.11227226686E+02  0.41062114075E+02  0.71048707794E+03  0.71176122102E+03  0.00000000000E+00 0.  1.
          5    1    4    4  501    0 -0.73602117145E+02 -0.37162629945E+02  0.13353959373E+03  0.15699881594E+03  0.41800000000E+01 0.  1.
         -5    1    4    4    0  501  0.38924848898E+01  0.32575039895E+02  0.25460738314E+03  0.25674632736E+03  0.41800000000E+01 0.  1.
</event>
<event>
11    1  0.9238666E-009  0.1336222E+03  0.7561462E-02  0.1114897E+00
         22   -1    0    0    0    0  0.00000000000E+00  0.00000000000E+00  0.19759475845E+04  0.19759475845E+04  0.00000000000E+00 0.  1.
         22   -1    0    0    0    0 -0.00000000000E+00 -0.00000000000E+00 -0.12860032918E+04  0.12860032918E+04  0.00000000000E+00 0.  1.
         24    2    1    2    0    0  0.46591166958E+01 -0.35807784407E+02 -0.12252465930E+04  0.12283697366E+04  0.79743910538E+02 0.  0.
         25    2    1    2    0    0  0.62811975915E+01  0.80837214347E+02  0.37607622228E+02  0.15373991949E+03  0.12509005128E+03 0.  0.
        -24    2    1    2    0    0 -0.10940314287E+02 -0.45029429939E+02  0.18775832634E+04  0.18798412203E+04  0.79603783247E+02 0.  0.
        -13    1    3    3    0    0  0.84875902458E+01 -0.18512998522E+02 -0.11734745433E+04  0.11736512575E+04  0.00000000000E+00 0.  1.
         14    1    3    3    0    0 -0.38284735501E+01 -0.17294785885E+02 -0.51772049664E+02  0.54718479099E+02  0.00000000000E+00 0. -1.
         13    1    5    5    0    0  0.26517087537E+02 -0.12572167297E+01  0.28987082689E+03  0.29108389308E+03  0.00000000000E+00 0. -1.
        -14    1    5    5    0    0 -0.37457401824E+02 -0.43772213210E+02  0.15877124365E+04  0.15887573272E+04  0.00000000000E+00 0.  1.
          5    1    4    4  501    0 -0.50815568736E+02  0.43945275213E+02  0.50847174525E+02  0.84358264543E+02  0.41800000000E+01 0.  1.
         -5    1    4    4    0  501  0.57096766328E+02  0.36891939134E+02 -0.13239552298E+02  0.69381654947E+02  0.41800000000E+01 0.  1.
</event>
<event>
11    1  0.9238666E-009  0.2207681E+03  0.7561462E-02  0.1040737E+00
         22   -1    0    0    0    0  0.00000000000E+00  0.00000000000E+00  0.88489329884E+03  0.88489329884E+03  0.00000000000E+00 0.  1.
         22   -1    0    0    0    0 -0.00000000000E+00 -0.00000000000E+00 -0.78558997935E+03  0.78558997935E+03  0.00000000000E+00 0.  1.
        -24    2    1    2    0    0 -0.18582319758E+02 -0.32563849729E+02 -0.62304711712E+03  0.62920495658E+03  0.79406928584E+02 0.  0.
         25    2    1    2    0    0  0.65662497333E+02 -0.14528979195E+03 -0.77245081409E+02  0.21687333024E+03  0.12508617657E+03 0.  0.
         24    2    1    2    0    0 -0.47080177576E+02  0.17785364168E+03  0.79959551802E+03  0.82440499137E+03  0.80262920332E+02 0.  0.
        -11    1    5    5    0    0 -0.52825081366E+02  0.14021621794E+03  0.48781211252E+03  0.51030553017E+03  0.00000000000E+00 0.  1.
         12    1    5    5    0    0  0.57449037898E+01  0.37637423739E+02  0.31178340550E+03  0.31409946120E+03  0.00000000000E+00 0. -1.
         11    1    3    3    0    0 -0.47888082029E+02 -0.32663930245E+02 -0.37964572382E+03  0.38404566962E+03  0.00000000000E+00 0. -1.
        -12    1    3    3    0    0  0.29305762271E+02  0.10008051588E+00 -0.24340139330E+03  0.24515928695E+03  0.00000000000E+00 0.  1.
          5    1    4    4  501    0  0.96802431174E+02 -0.96515207336E+02 -0.25469059641E+02  0.13911161464E+03  0.41800000000E+01 0. -1.
         -5    1    4    4    0  501 -0.31139933840E+02 -0.48774584615E+02 -0.51776021768E+02  0.77761715606E+02  0.41800000000E+01 0. -1.
</event>
<event>
11    1  0.9238666E-009  0.1887051E+03  0.7561462E-02  0.1062811E+00
         22   -1    0    0    0    0  0.00000000000E+00  0.00000000000E+00  0.14514192613E+04  0.14514192613E+04  0.00000000000E+00 0. -1.
         22   -1    0    0    0    0 -0.00000000000E+00 -0.00000000000E+00 -0.16415917115E+03  0.16415917115E+03  0.00000000000E+00 0.  1.
         24    2    1    2    0    0 -0.28788674127E+02 -0.42468285438E+02 -0.10984422548E+03  0.15087487572E+03  0.89806075669E+02 0.  0.
         25    2    1    2    0    0  0.11361247070E+03  0.14371371240E+03  0.41631300012E+03  0.47172626499E+03  0.12509088849E+03 0.  0.
        -24    2    1    2    0    0 -0.84823796574E+02 -0.10124542696E+03  0.98079131547E+03  0.99297729170E+03  0.81280898081E+02 0.  0.
        -13    1    3    3    0    0  0.13274576244E+02 -0.15875702146E+02 -0.97405600766E+02  0.99579633227E+02  0.00000000000E+00 0.  1.
         14    1    3    3    0    0 -0.42063250372E+02 -0.26592583292E+02 -0.12438624715E+02  0.51295242496E+02  0.00000000000E+00 0. -1.
         13    1    5    5    0    0 -0.61683637218E+02 -0.11318843837E+03  0.83129207381E+03  0.84122708329E+03  0.00000000000E+00 0. -1.
        -14    1    5    5    0    0 -0.23140159356E+02  0.11943011414E+02  0.14949924166E+03  0.15175020841E+03  0.00000000000E+00 0.  1.
          5    1    4    4  501    0  0.50731132684E+02  0.14727850507E+03  0.32845374103E+03  0.36354358511E+03  0.41800000000E+01 0.  1.
         -5    1    4    4    0  501  0.62881338017E+02 -0.35647926765E+01  0.87859259099E+02  0.10818267988E+03  0.41800000000E+01 0.  1.
</event>
<event>
11    1  0.9238666E-009  0.1575619E+03  0.7561462E-02  0.1089393E+00
         22   -1    0    0    0    0  0.00000000000E+00  0.00000000000E+00  0.42893471763E+04  0.42893471763E+04  0.00000000000E+00 0.  1.
         22   -1    0    0    0    0 -0.00000000000E+00 -0.00000000000E+00 -0.13219229092E+03  0.13219229092E+03  0.00000000000E+00 0.  1.
         24    2    1    2    0    0 -0.76622456696E+02  0.60451529295E+02 -0.88467823732E+02  0.16010298408E+03  0.91000117645E+02 0.  0.
         25    2    1    2    0    0  0.49979914998E+01 -0.82205535087E+02  0.79225900447E+03  0.80629094237E+03  0.12509206075E+03 0.  0.
        -24    2    1    2    0    0  0.71624465196E+02  0.21754005792E+02  0.34533637047E+04  0.34551455408E+04  0.81893409784E+02 0.  0.
        -13    1    3    3    0    0 -0.93216557202E+02  0.45637107882E+02 -0.90582381974E+02  0.13775790386E+03  0.00000000000E+00 0.  1.
         14    1    3    3    0    0  0.16594100506E+02  0.14814421413E+02  0.21145582418E+01  0.22345080218E+02  0.00000000000E+00 0. -1.
         13    1    5    5    0    0  0.31587375409E+02 -0.14714019874E+02  0.46986943666E+03  0.47115979474E+03  0.00000000000E+00 0. -1.
        -14    1    5    5    0    0  0.40037089787E+02  0.36468025666E+02  0.29834942680E+04  0.29839857460E+04  0.00000000000E+00 0.  1.
          5    1    4    4  501    0 -0.14277815443E+02  0.13072830536E+02  0.20800489666E+02  0.28720857968E+02  0.41800000000E+01 0. -1.
         -5    1    4    4    0  501  0.19275806943E+02 -0.95278365623E+02  0.77145851481E+03  0.77757008440E+03  0.41800000000E+01 0. -1.
</event>
<event>
11    1  0.9238666E-009  0.1790271E+03  0.7561462E-02  0.1070433E+00
         22   -1    0    0    0    0  0.00000000000E+00  0.00000000000E+00  0.22458230455E+04  0.22458230455E+04  0.00000000000E+00 0.  1.
         22   -1    0    0    0    0 -0.00000000000E+00 -0.00000000000E+00 -0.13458416506E+04  0.13458416506E+04  0.00000000000E+00 0.  1.
        -24    2    1    2    0    0 -0.11541020598E+03  0.55262856531E+02 -0.13300446316E+04  0.13385601622E+04  0.79693705855E+02 0.  0.
         25    2    1    2    0    0  0.17523444065E+03 -0.33961296089E+02  0.16393968554E+04  0.16538228885E+04  0.12509043992E+03 0.  0.
         24    2    1    2    0    0 -0.59824234668E+02 -0.21301560442E+02  0.59062917101E+03  0.59928164546E+03  0.79138975283E+02 0.  0.
        -13    1    5    5    0    0 -0.59789912522E+02 -0.28726767886E+02  0.58748522534E+03  0.59121819224E+03  0.00000000000E+00 0.  1.
         14    1    5    5    0    0 -0.34322146203E-01  0.74252074445E+01  0.31439456678E+01  0.80634532284E+01  0.00000000000E+00 0. -1.
         11    1    3    3    0    0 -0.29671798055E+02  0.23034078259E+02 -0.13860209489E+03  0.14360196750E+03  0.00000000000E+00 0. -1.
        -12    1    3    3    0    0 -0.85738407925E+02  0.32228778272E+02 -0.11914425367E+04  0.11949581947E+04  0.00000000000E+00 0.  1.
          5    1    4    4  501    0  0.19784433603E+02 -0.29820475560E+02  0.75426790027E+03  0.75512795098E+03  0.41800000000E+01 0. -1.
         -5    1    4    4    0  501  0.15545000704E+03 -0.41408205292E+01  0.88512895516E+03  0.89869493753E+03  0.41800000000E+01 0. -1.
</event>
<event>
11    1  0.9238666E-009  0.1316907E+03  0.7561462E-02  0.1117209E+00
         22   -1    0    0    0    0  0.00000000000E+00  0.00000000000E+00  0.10527824307E+04  0.10527824307E+04  0.00000000000E+00 0.  1.
         22   -1    0    0    0    0 -0.00000000000E+00 -0.00000000000E+00 -0.39405772514E+03  0.39405772514E+03  0.00000000000E+00 0.  1.
        -24    2    1    2    0    0  0.21501434413E+02 -0.95577208759E+01 -0.14308092606E+03  0.16650312597E+03  0.81838119756E+02 0.  0.
         25    2    1    2    0    0 -0.33568355527E+01 -0.27516878809E+02 -0.22019542920E+03  0.25476314335E+03  0.12509910152E+03 0.  0.
         24    2    1    2    0    0 -0.18144598860E+02  0.37074599685E+02  0.10220010608E+04  0.10255738865E+04  0.74912455469E+02 0.  0.
        -13    1    5    5    0    0 -0.15268957584E+02  0.33614544982E+02  0.10199694323E+04  0.10206374095E+04  0.00000000000E+00 0.  1.
         14    1    5    5    0    0 -0.28756412758E+01  0.34600547024E+01  0.20316284629E+01  0.49364770335E+01  0.00000000000E+00 0. -1.
         13    1    3    3    0    0  0.40387364666E+02  0.23757448836E+02 -0.79119470269E+02  0.91953500072E+02  0.00000000000E+00 0. -1.
        -14    1    3    3    0    0 -0.18885930253E+02 -0.33315169712E+02 -0.63961455792E+02  0.74549625898E+02  0.00000000000E+00 0.  1.
          5    1    4    4  501    0  0.63076343119E+01 -0.32630804556E+02  0.75270058051E+00  0.33505143109E+02  0.41800000000E+01 0.  1.
         -5    1    4    4    0  501 -0.96644698645E+01  0.51139257472E+01 -0.22094812978E+03  0.22125800024E+03  0.41800000000E+01 0.  1.
</event>
<event>
11    1  0.9238666E-009  0.1267779E+03  0.7561462E-02  0.1123293E+00
         22   -1    0    0    0    0  0.00000000000E+00  0.00000000000E+00  0.11922946665E+04  0.11922946665E+04  0.00000000000E+00 0.  1.
         22   -1    0    0    0    0 -0.00000000000E+00 -0.00000000000E+00 -0.14282844530E+03  0.14282844530E+03  0.00000000000E+00 0. -1.
         24    2    1    2    0    0  0.14758388540E+02  0.28742294588E+02 -0.99656399209E+02  0.12946798069E+03  0.76069905945E+02 0.  0.
         25    2    1    2    0    0  0.65210163007E+01 -0.30304814421E+02  0.13005295999E+03  0.18308836752E+03  0.12508665991E+03 0.  0.
        -24    2    1    2    0    0 -0.21279404840E+02  0.15625198333E+01  0.10190696604E+04  0.10225667636E+04  0.81759150542E+02 0.  0.
        -13    1    3    3    0    0 -0.29054899757E+02  0.15240239671E+02 -0.22722576109E+02  0.39909492231E+02  0.00000000000E+00 0.  1.
         14    1    3    3    0    0  0.43813288297E+02  0.13502054917E+02 -0.76933823101E+02  0.89558488460E+02  0.00000000000E+00 0. -1.
         11    1    5    5    0    0  0.10605961461E+02  0.17198348203E+02  0.70653524248E+02  0.73485985658E+02  0.00000000000E+00 0. -1.
        -12    1    5    5    0    0 -0.31885366302E+02 -0.15635828370E+02  0.94841613615E+03  0.94908077792E+03  0.00000000000E+00 0.  1.
          5    1    4    4  501    0  0.32343155298E+02  0.84278776946E+01 -0.10247370856E+02  0.35207809169E+02  0.41800000000E+01 0.  1.
         -5    1    4    4    0  501 -0.25822138997E+02 -0.38732692116E+02  0.14030033085E+03  0.14788055835E+03  0.41800000000E+01 0.  1.
</event>
<event>
11    1  0.9238666E-009  0.1353498E+03  0.7561462E-02  0.1112865E+00
         22   -1    0    0    0    0  0.00000000000E+00  0.00000000000E+00  0.13848992239E+03  0.13848992239E+03  0.00000000000E+00 0.  1.
         22   -1    0    0    0    0 -0.00000000000E+00 -0.00000000000E+00 -0.56478579526E+03  0.56478579526E+03  0.00000000000E+00 0. -1.
         24    2    1    2    0    0  0.18061947536E+02 -0.45960812420E+02 -0.38042205046E+03  0.39205367285E+03  0.80910541298E+02 0.  0.
         25    2    1    2    0    0 -0.10014153534E+02  0.64417836217E+02 -0.13082852055E+03  0.19238844656E+03  0.12508905502E+03 0.  0.
        -24    2    1    2    0    0 -0.80477940017E+01 -0.18457023797E+02  0.84954698135E+02  0.11883359824E+03  0.80614481448E+02 0.  0.
        -11    1    3    3    0    0  0.29999965074E+02 -0.76202851437E+01 -0.47347695517E+02  0.56567401575E+02  0.00000000000E+00 0.  1.
         12    1    3    3    0    0 -0.11938017539E+02 -0.38340527276E+02 -0.33307435494E+03  0.33548627128E+03  0.00000000000E+00 0. -1.
         11    1    5    5    0    0  0.27280631134E+01 -0.46782607980E+02  0.28748491494E+02  0.54977545425E+02  0.00000000000E+00 0. -1.
        -12    1    5    5    0    0 -0.10775857115E+02  0.28325584183E+02  0.56206206641E+02  0.63856052813E+02  0.00000000000E+00 0.  1.
          5    1    4    4  501    0  0.37278170339E+02  0.82202596784E+02 -0.84289706404E+02  0.12356842601E+03  0.41800000000E+01 0.  1.
         -5    1    4    4    0  501 -0.47292323873E+02 -0.17784760567E+02 -0.46538814144E+02  0.68820020544E+02  0.41800000000E+01 0.  1.
</event>
<event>
11    1  0.9238666E-009  0.1458425E+03  0.7561462E-02  0.1101204E+00
         22   -1    0    0    0    0  0.00000000000E+00  0.00000000000E+00  0.30685087126E+03  0.30685087126E+03  0.00000000000E+00 0.  1.
         22   -1    0    0    0    0 -0.00000000000E+00 -0.00000000000E+00 -0.13341878142E+04  0.13341878142E+04  0.00000000000E+00 0. -1.
         24    2    1    2    0    0 -0.55063546376E+02 -0.47308963969E+02 -0.11145096966E+04  0.11197177571E+04  0.79786337974E+02 0.  0.
         25    2    1    2    0    0  0.64819993342E+02  0.84401977056E+02 -0.17796845312E+03  0.24216884506E+03  0.12509058295E+03 0.  0.
        -24    2    1    2    0    0 -0.97564469655E+01 -0.37093013087E+02  0.26514120670E+03  0.27915208330E+03  0.78453465483E+02 0.  0.
        -13    1    3    3    0    0  0.78555952042E+01  0.16049773932E+02 -0.14269520042E+03  0.14380968619E+03  0.00000000000E+00 0.  1.
         14    1    3    3    0    0 -0.62919141581E+02 -0.63358737902E+02 -0.97181449614E+03  0.97590807096E+03  0.00000000000E+00 0. -1.
         13    1    5    5    0    0  0.27342914433E+02 -0.26339584270E+02  0.64646803332E+02  0.74970779976E+02  0.00000000000E+00 0. -1.
        -14    1    5    5    0    0 -0.37099361398E+02 -0.10753428817E+02  0.20049440337E+03  0.20418130333E+03  0.00000000000E+00 0.  1.
          5    1    4    4  501    0  0.33688588234E+02 -0.23282049074E+02 -0.13953020648E+02  0.43464168823E+02  0.41800000000E+01 0. -1.
         -5    1    4    4    0  501  0.31131405108E+02  0.10768402613E+03 -0.16401543248E+03  0.19870467624E+03  0.41800000000E+01 0. -1.
</event>
<event>
11    1  0.9238666E-009  0.1543486E+03  0.7561462E-02  0.1092516E+00
         22   -1    0    0    0    0  0.00000000000E+00  0.00000000000E+00  0.25021824220E+03  0.25021824220E+03  0.00000000000E+00 0. -1.
         22   -1    0    0    0    0 -0.00000000000E+00 -0.00000000000E+00 -0.15079279371E+03  0.15079279371E+03  0.00000000000E+00 0.  1.
         24    2    1    2    0    0 -0.55641381507E+02  0.67841713168E+02 -0.19412952458E+02  0.11936072134E+03  0.78559898771E+02 0.  0.
         25    2    1    2    0    0  0.90183932308E+02 -0.46997950784E+02  0.50004648563E+02  0.16878639211E+03  0.12508569965E+03 0.  0.
        -24    2    1    2    0    0 -0.34542550800E+02 -0.20843762384E+02  0.68833752390E+02  0.11286392246E+03  0.79828123360E+02 0.  0.
        -13    1    3    3    0    0 -0.40083571173E+02 -0.25355714321E+01  0.10199123179E+02  0.41438435227E+02  0.00000000000E+00 0.  1.
         14    1    3    3    0    0 -0.15557810335E+02  0.70377284600E+02 -0.29612075638E+02  0.77922286117E+02  0.00000000000E+00 0. -1.
         13    1    5    5    0    0 -0.17753143557E+02  0.28055156923E+02  0.45030696030E+02  0.55946666755E+02  0.00000000000E+00 0. -1.
        -14    1    5    5    0    0 -0.16789407244E+02 -0.48898919308E+02  0.23803056361E+02  0.56917255706E+02  0.00000000000E+00 0.  1.
          5    1    4    4  501    0  0.93871172969E+02 -0.62675242264E+02  0.77266078597E+02  0.13684846513E+03  0.41800000000E+01 0.  1.
         -5    1    4    4    0  501 -0.36872406612E+01  0.15677291480E+02 -0.27261430034E+02  0.31937926973E+02  0.41800000000E+01 0.  1.
</event>
<event>
11    1  0.9238666E-009  0.1322102E+03  0.7561462E-02  0.1116583E+00
         22   -1    0    0    0    0  0.00000000000E+00  0.00000000000E+00  0.36275480033E+04  0.36275480033E+04  0.00000000000E+00 0.  1.
         22   -1    0    0    0    0 -0.00000000000E+00 -0.00000000000E+00 -0.78309920573E+01  0.78309920573E+01  0.00000000000E+00 0.  1.
        -24    2    1    2    0    0 -0.24807188412E+02  0.12707933209E+02  0.49640452575E+03  0.50352449008E+03  0.79640258419E+02 0.  0.
         25    2    1    2    0    0  0.59838566283E+02 -0.17339207280E+02  0.15928667022E+04  0.15989830822E+04  0.12506503993E+03 0.  0.
         24    2    1    2    0    0 -0.35031377871E+02  0.46312740712E+01  0.15304457833E+04  0.15328714231E+04  0.78624791313E+02 0.  0.
        -11    1    5    5    0    0 -0.70116216715E+00  0.14805130896E+02  0.12574679241E+04  0.12575552726E+04  0.00000000000E+00 0.  1.
         12    1    5    5    0    0 -0.34330215704E+02 -0.10173856825E+02  0.27297785926E+03  0.27531615049E+03  0.00000000000E+00 0. -1.
         13    1    3    3    0    0  0.17797920737E+02  0.13181688154E+02  0.35860134270E+03  0.35928463072E+03  0.00000000000E+00 0. -1.
        -14    1    3    3    0    0 -0.42605109149E+02 -0.47375494510E+00  0.13780318305E+03  0.14423985936E+03  0.00000000000E+00 0.  1.
          5    1    4    4  501    0 -0.25973956625E+02  0.21049948536E+02  0.77297160261E+03  0.77370557552E+03  0.41800000000E+01 0.  1.
         -5    1    4    4    0  501  0.85812522907E+02 -0.38389155816E+02  0.81989509956E+03  0.82527750670E+03  0.41800000000E+01 0.  1.
</event>
<event>
11    1  0.9238666E-009  0.1386228E+03  0.7561462E-02  0.1109106E+00
         22   -1    0    0    0    0  0.00000000000E+00  0.00000000000E+00  0.77407982592E+02  0.77407982592E+02  0.00000000000E+00 0.  1.
         22   -1    0    0    0    0 -0.00000000000E+00 -0.00000000000E+00 -0.14891111102E+04  0.14891111102E+04  0.00000000000E+00 0. -1.
         24    2    1    2    0    0 -0.38090604668E+02 -0.22447766268E+02 -0.89838038990E+03  0.90349033260E+03  0.85162549037E+02 0.  0.
         25    2    1    2    0    0 -0.44757360970E+00  0.68570806357E+02 -0.53922753251E+03  0.55778283791E+03  0.12511277567E+03 0.  0.
        -24    2    1    2    0    0  0.38538178277E+02 -0.46123040090E+02  0.25904794785E+02  0.10524592231E+03  0.82420384363E+02 0.  0.
        -13    1    3    3    0    0 -0.39814789832E+01 -0.38370021158E+02 -0.17823408825E+03  0.18236090840E+03  0.00000000000E+00 0.  1.
         14    1    3    3    0    0 -0.34109125685E+02  0.15922254890E+02 -0.72014630165E+03  0.72112942419E+03  0.00000000000E+00 0. -1.
         11    1    5    5    0    0 -0.15728734808E+02 -0.30925832176E+02 -0.12688256784E+02  0.36943092110E+02  0.00000000000E+00 0. -1.
        -12    1    5    5    0    0  0.54266913085E+02 -0.15197207914E+02  0.38593051570E+02  0.68302830202E+02  0.00000000000E+00 0.  1.
          5    1    4    4  501    0  0.18385332728E+02  0.10144824048E+03 -0.42567601860E+03  0.43800377985E+03  0.41800000000E+01 0. -1.
         -5    1    4    4    0  501 -0.18832906338E+02 -0.32877434122E+02 -0.11355151392E+03  0.11977905805E+03  0.41800000000E+01 0. -1.
</event>
<event>
11    1  0.9238666E-009  0.1383021E+03  0.7561462E-02  0.1109469E+00
         22   -1    0    0    0    0  0.00000000000E+00  0.00000000000E+00  0.29819170519E+03  0.29819170519E+03  0.00000000000E+00 0. -1.
         22   -1    0    0    0    0 -0.00000000000E+00 -0.00000000000E+00 -0.10034196730E+04  0.10034196730E+04  0.00000000000E+00 0. -1.
        -24    2    1    2    0    0 -0.49421143212E+02 -0.37928907875E+02 -0.76873450372E+03  0.77534624490E+03  0.79548795245E+02 0.  0.
         25    2    1    2    0    0  0.55285509111E+02 -0.13796873834E+02 -0.20155399248E+03  0.24396517020E+03  0.12509257030E+03 0.  0.
         24    2    1    2    0    0 -0.58643658993E+01  0.51725781710E+02  0.26506052838E+03  0.28229996311E+03  0.82013646344E+02 0.  0.
        -11    1    5    5    0    0  0.18890353698E+02  0.20666959919E+02  0.20924354366E+02  0.34954217210E+02  0.00000000000E+00 0.  1.
         12    1    5    5    0    0 -0.24754719597E+02  0.31058821791E+02  0.24413617401E+03  0.24734574590E+03  0.00000000000E+00 0. -1.
         13    1    3    3    0    0 -0.39400648429E+02 -0.54757282914E+02 -0.71460946086E+03  0.71778649519E+03  0.00000000000E+00 0. -1.
        -14    1    3    3    0    0 -0.10020494783E+02  0.16828375039E+02 -0.54125042861E+02  0.57559749711E+02  0.00000000000E+00 0.  1.
          5    1    4    4  501    0  0.44849877589E+02 -0.50133260473E+02 -0.19374962887E+03  0.20513714050E+03  0.41800000000E+01 0. -1.
         -5    1    4    4    0  501  0.10435631522E+02  0.36336386638E+02 -0.78043636067E+01  0.38828029702E+02  0.41800000000E+01 0. -1.
</event>
<event>
11    1  0.9238666E-009  0.1394110E+03  0.7561462E-02  0.1108218E+00
         22   -1    0    0    0    0  0.00000000000E+00  0.00000000000E+00  0.91609326627E+03  0.91609326627E+03  0.00000000000E+00 0.  1.
         22   -1    0    0    0    0 -0.00000000000E+00 -0.00000000000E+00 -0.72410463639E+03  0.72410463639E+03  0.00000000000E+00 0.  1.
         24    2    1    2    0    0 -0.11295289596E+02  0.29464216800E+02 -0.70090698984E+03  0.70620273365E+03  0.80349044613E+02 0.  0.
         25    2    1    2    0    0  0.46997880262E+02 -0.72249320743E+02  0.33177828030E+03  0.36490045508E+03  0.12508696871E+03 0.  0.
        -24    2    1    2    0    0 -0.35702590666E+02  0.42785103944E+02  0.56111733942E+03  0.56909471393E+03  0.76882278328E+02 0.  0.
        -11    1    3    3    0    0 -0.46755275747E+01  0.17073409804E+02 -0.68396482903E+03  0.68419386816E+03  0.00000000000E+00 0.  1.
         12    1    3    3    0    0 -0.66197620213E+01  0.12390806996E+02 -0.16942160815E+02  0.22008865493E+02  0.00000000000E+00 0. -1.
         13    1    5    5    0    0  0.14739287662E+02  0.17878546690E+02  0.52628619029E+02  0.57503570093E+02  0.00000000000E+00 0. -1.
        -14    1    5    5    0    0 -0.50441878328E+02  0.24906557254E+02  0.50848872039E+03  0.51159114383E+03  0.00000000000E+00 0.  1.
          5    1    4    4  501    0  0.31407320834E+02  0.32527495565E+02  0.86559737913E+02  0.97747216826E+02  0.41800000000E+01 0. -1.
         -5    1    4    4    0  501  0.15590559428E+02 -0.10477681631E+03  0.24521854238E+03  0.26715323825E+03  0.41800000000E+01 0. -1.
</event>
<event>
11    1  0.9238666E-009  0.1544060E+03  0.7561462E-02  0.1092460E+00
         22   -1    0    0    0    0  0.00000000000E+00  0.00000000000E+00  0.15301038167E+03  0.15301038167E+03  0.00000000000E+00 0. -1.
         22   -1    0    0    0    0 -0.00000000000E+00 -0.00000000000E+00 -0.47379630029E+04  0.47379630029E+04  0.00000000000E+00 0. -1.
         24    2    1    2    0    0 -0.45645920476E+02  0.50283835677E+01 -0.43562398416E+04  0.43571769162E+04  0.77822149913E+02 0.  0.
         25    2    1    2    0    0  0.90825300889E+02 -0.81109626366E+02 -0.33206818968E+03  0.37515780255E+03  0.12508432133E+03 0.  0.
        -24    2    1    2    0    0 -0.45179380413E+02  0.76081242798E+02  0.10335541007E+03  0.15863866578E+03  0.81574221224E+02 0.  0.
        -13    1    3    3    0    0 -0.24127933929E+02 -0.28919231418E+02 -0.10201992474E+04  0.10208942078E+04  0.00000000000E+00 0.  1.
         14    1    3    3    0    0 -0.21517986547E+02  0.33947614986E+02 -0.33360405942E+04  0.33362827084E+04  0.00000000000E+00 0. -1.
         13    1    5    5    0    0 -0.55309792938E+02  0.48017847615E+02  0.10582529102E+03  0.12870073467E+03  0.00000000000E+00 0. -1.
        -14    1    5    5    0    0  0.10130412524E+02  0.28063395184E+02 -0.24698809507E+01  0.29937931109E+02  0.00000000000E+00 0.  1.
          5    1    4    4  501    0  0.12037090880E+03 -0.67272912245E+02 -0.29459084972E+03  0.32529377729E+03  0.41800000000E+01 0.  1.
         -5    1    4    4    0  501 -0.29545607906E+02 -0.13836714121E+02 -0.37477339965E+02  0.49864025259E+02  0.41800000000E+01 0.  1.
</event>
<event>
11    1  0.9238666E-009  0.1359591E+03  0.7561462E-02  0.1112157E+00
         22   -1    0    0    0    0  0.00000000000E+00  0.00000000000E+00  0.44649828474E+03  0.44649828474E+03  0.00000000000E+00 0.  1.
         22   -1    0    0    0    0 -0.00000000000E+00 -0.00000000000E+00 -0.16867782971E+03  0.16867782971E+03  0.00000000000E+00 0. -1.
         24    2    1    2    0    0 -0.28753702689E+02  0.40184186512E+02 -0.47013913519E+02  0.10375967244E+03  0.78193460700E+02 0.  0.
         25    2    1    2    0    0 -0.25333234108E+02 -0.26187733702E+02 -0.38059308957E+02  0.13571608013E+03  0.12507107284E+03 0.  0.
        -24    2    1    2    0    0  0.54086936798E+02 -0.13996452810E+02  0.36289367751E+03  0.37570036188E+03  0.79609316778E+02 0.  0.
        -11    1    3    3    0    0 -0.33179152180E+02  0.19952453481E+02  0.12548752269E+02  0.40699234917E+02  0.00000000000E+00 0.  1.
         12    1    3    3    0    0  0.44254494907E+01  0.20231733031E+02 -0.59562665788E+02  0.63060437522E+02  0.00000000000E+00 0. -1.
         11    1    5    5    0    0  0.62164419839E+01  0.28452622284E+02  0.16989179576E+03  0.17237000358E+03  0.00000000000E+00 0. -1.
        -12    1    5    5    0    0  0.47870494814E+02 -0.42449075094E+02  0.19300188175E+03  0.20333035830E+03  0.00000000000E+00 0.  1.
          5    1    4    4  501    0  0.49618818059E+02  0.13880453057E+01 -0.20320933505E+02  0.53799317039E+02  0.41800000000E+01 0.  1.
         -5    1    4    4    0  501 -0.74952052167E+02 -0.27575779007E+02 -0.17738375451E+02  0.81916763093E+02  0.41800000000E+01 0.  1.
</event>
<event>
11    1  0.9238666E-009  0.2511656E+03  0.7561462E-02  0.1023280E+00
         22   -1    0    0    0    0  0.00000000000E+00  0.00000000000E+00  0.13571136398E+03  0.13571136398E+03  0.00000000000E+00 0. -1.
         22   -1    0    0    0    0 -0.00000000000E+00 -0.00000000000E+00 -0.79976631724E+03  0.79976631724E+03  0.00000000000E+00 0.  1.
        -24    2    1    2    0    0  0.33478368338E+00  0.74758850447E+02 -0.27923121222E+03  0.30113985280E+03  0.84416486915E+02 0.  0.
         25    2    1    2    0    0 -0.15961865866E+03  0.10034652807E+03 -0.28860388744E+03  0.36672447406E+03  0.12508834535E+03 0.  0.
         24    2    1    2    0    0  0.15928387498E+03 -0.17510537852E+03 -0.96219853590E+02  0.26761335436E+03  0.79532388305E+02 0.  0.
        -13    1    5    5    0    0  0.46777481256E+02 -0.69565827349E+02 -0.73887422853E+02  0.11174474638E+03  0.00000000000E+00 0.  1.
         14    1    5    5    0    0  0.11250639373E+03 -0.10553955117E+03 -0.22332430738E+02  0.15586860798E+03  0.00000000000E+00 0. -1.
         13    1    3    3    0    0 -0.35697335424E+02  0.14082310244E+02 -0.13833635819E+03  0.14356029819E+03  0.00000000000E+00 0. -1.
        -14    1    3    3    0    0  0.36032119107E+02  0.60676540203E+02 -0.14089485403E+03  0.15757955461E+03  0.00000000000E+00 0.  1.
          5    1    4    4  501    0 -0.13778415787E+03  0.89438955357E+02 -0.29794898306E+03  0.34025706430E+03  0.41800000000E+01 0.  1.
         -5    1    4    4    0  501 -0.21834500797E+02  0.10907572713E+02  0.93450956244E+01  0.26467409767E+02  0.41800000000E+01 0.  1.
</event>
<event>
11    1  0.9238666E-009  0.1431173E+03  0.7561462E-02  0.1104126E+00
         22   -1    0    0    0    0  0.00000000000E+00  0.00000000000E+00  0.18702665479E+03  0.18702665479E+03  0.00000000000E+00 0. -1.
         22   -1    0    0    0    0 -0.00000000000E+00 -0.00000000000E+00 -0.16459067465E+04  0.16459067465E+04  0.00000000000E+00 0. -1.
        -24    2    1    2    0    0 -0.14735836359E+01 -0.56264452980E+01 -0.15203960625E+04  0.15222914602E+04  0.75718391327E+02 0.  0.
         25    2    1    2    0    0 -0.57003116223E+02  0.42704628457E+02 -0.55610043900E+02  0.15431917149E+03  0.12509552012E+03 0.  0.
         24    2    1    2    0    0  0.58476699859E+02 -0.37078183159E+02  0.11712601464E+03  0.15632276959E+03  0.76967453464E+02 0.  0.
        -13    1    5    5    0    0  0.27297927488E+02 -0.11999686801E+02 -0.27496705767E+01  0.29945450686E+02  0.00000000000E+00 0.  1.
         14    1    5    5    0    0  0.31178772371E+02 -0.25078496358E+02  0.11987568522E+03  0.12637731890E+03  0.00000000000E+00 0. -1.
         13    1    3    3    0    0  0.28956072333E+02 -0.16797619021E+02 -0.11477852970E+04  0.11482733569E+04  0.00000000000E+00 0. -1.
        -14    1    3    3    0    0 -0.30429655968E+02  0.11171173723E+02 -0.37261076547E+03  0.37401810334E+03  0.00000000000E+00 0.  1.
          5    1    4    4  501    0  0.38259818787E+02  0.26606697131E+02 -0.23964989729E+02  0.52569222922E+02  0.41800000000E+01 0.  1.
         -5    1    4    4    0  501 -0.95262935010E+02  0.16097931326E+02 -0.31645054171E+02  0.10174994857E+03  0.41800000000E+01 0.  1.
</event>
<event>
11    1  0.9238666E-009  0.1596646E+03  0.7561462E-02  0.1087393E+00
         22   -1    0    0    0    0  0.00000000000E+00  0.00000000000E+00  0.41392994702E+03  0.41392994702E+03  0.00000000000E+00 0.  1.
         22   -1    0    0    0    0 -0.00000000000E+00 -0.00000000000E+00 -0.49088987168E+03  0.49088987168E+03  0.00000000000E+00 0. -1.
        -24    2    1    2    0    0  0.56816136312E+02  0.83751261697E+02 -0.34173560601E+03  0.36552249286E+03  0.81124109792E+02 0.  0.
         25    2    1    2    0    0 -0.45265696989E+02 -0.79967222367E+02 -0.86980094127E+02  0.17792388741E+03  0.12509049908E+03 0.  0.
         24    2    1    2    0    0 -0.11550439322E+02 -0.37840393303E+01  0.35175577548E+03  0.36137343843E+03  0.81920112424E+02 0.  0.
        -11    1    5    5    0    0 -0.20098392913E+02  0.16336162154E+01  0.35060908999E+03  0.35118847943E+03  0.00000000000E+00 0.  1.
         12    1    5    5    0    0  0.85479535906E+01 -0.54176555457E+01  0.11466854830E+01  0.10184958998E+02  0.00000000000E+00 0. -1.
         11    1    3    3    0    0  0.53330368636E+00 -0.83437520439E+01 -0.10513072238E+03  0.10546265405E+03  0.00000000000E+00 0. -1.
        -12    1    3    3    0    0  0.56282832625E+02  0.92095013741E+02 -0.23660488363E+03  0.26005983881E+03  0.00000000000E+00 0.  1.
          5    1    4    4  501    0  0.15559947036E+02 -0.13095292316E+02 -0.84904825219E+02  0.87406523659E+02  0.41800000000E+01 0. -1.
         -5    1    4    4    0  501 -0.60825644026E+02 -0.66871930050E+02 -0.20752689073E+01  0.90517363753E+02  0.41800000000E+01 0. -1.
</event>
<event>
11    1  0.9238666E-009  0.1306385E+03  0.7561462E-02  0.1118487E+00
         22   -1    0    0    0    0  0.00000000000E+00  0.00000000000E+00  0.34667610985E+03  0.34667610985E+03  0.00000000000E+00 0.  1.
         22   -1    0    0    0    0 -0.00000000000E+00 -0.00000000000E+00 -0.38457827804E+03  0.38457827804E+03  0.00000000000E+00 0. -1.
         24    2    1    2    0    0  0.14496599016E+02 -0.31308267801E+02 -0.30726957865E+03  0.31953265862E+03  0.80598802359E+02 0.  0.
         25    2    1    2    0    0  0.21630423325E+02  0.13181469935E+02  0.96404792761E-01  0.12762702616E+03  0.12508805758E+03 0.  0.
        -24    2    1    2    0    0 -0.36127022341E+02  0.18126797866E+02  0.26927100568E+03  0.28409470312E+03  0.81050498435E+02 0.  0.
        -13    1    3    3    0    0  0.40810479425E+02 -0.18294892540E+02 -0.92262760776E+02  0.10253104579E+03  0.00000000000E+00 0.  1.
         14    1    3    3    0    0 -0.26313880409E+02 -0.13013375261E+02 -0.21500681788E+03  0.21700161283E+03  0.00000000000E+00 0. -1.
         13    1    5    5    0    0  0.25748385441E+02  0.43951693693E+00  0.64554790516E+02  0.69501751824E+02  0.00000000000E+00 0. -1.
        -14    1    5    5    0    0 -0.61875407782E+02  0.17687280929E+02  0.20471621516E+03  0.21459295129E+03  0.00000000000E+00 0.  1.
          5    1    4    4  501    0  0.21103966789E+02  0.36212143756E+02  0.54218869699E+02  0.68657519625E+02  0.41800000000E+01 0. -1.
         -5    1    4    4    0  501  0.52645653602E+00 -0.23030673821E+02 -0.54122464906E+02  0.58969506532E+02  0.41800000000E+01 0. -1.
</event>
<event>
11    1  0.9238666E-009  0.1595201E+03  0.7561462E-02  0.1087529E+00
         22   -1    0    0    0    0  0.00000000000E+00  0.00000000000E+00  0.62735140863E+03  0.62735140863E+03  0.00000000000E+00 0.  1.
         22   -1    0    0    0    0 -0.00000000000E+00 -0.00000000000E+00 -0.34004561432E+03  0.34004561432E+03  0.00000000000E+00 0.  1.
        -24    2    1    2    0    0 -0.15156140800E+01 -0.99968780223E+02 -0.24122280337E+03  0.27337015002E+03  0.80911951827E+02 0.  0.
         25    2    1    2    0    0 -0.16904694871E+02  0.94147513542E+02 -0.59893200792E+00  0.15747109447E+03  0.12508902373E+03 0.  0.
         24    2    1    2    0    0  0.18420308951E+02  0.58212666808E+01  0.52912752969E+03  0.53655577847E+03  0.86850249261E+02 0.  0.
        -13    1    5    5    0    0  0.47933271772E+02  0.93072455974E+01  0.43780412898E+03  0.44051864741E+03  0.00000000000E+00 0.  1.
         14    1    5    5    0    0 -0.29512962821E+02 -0.34859789165E+01  0.91323400717E+02  0.96037131059E+02  0.00000000000E+00 0. -1.
         13    1    3    3    0    0 -0.30178266010E+01 -0.20607318302E+02 -0.15379110062E+01  0.20883821854E+02  0.00000000000E+00 0. -1.
        -14    1    3    3    0    0  0.15022125210E+01 -0.79361461922E+02 -0.23968489237E+03  0.25248632816E+03  0.00000000000E+00 0.  1.
          5    1    4    4  501    0  0.16768641957E+01 -0.19475550406E+02 -0.32296199247E+02  0.37981914419E+02  0.41800000000E+01 0. -1.
         -5    1    4    4    0  501 -0.18581559066E+02  0.11362306395E+03  0.31697267239E+02  0.11948918005E+03  0.41800000000E+01 0. -1.
</event>
<event>
11    1  0.9238666E-009  0.1271262E+03  0.7561462E-02  0.1122851E+00
         22   -1    0    0    0    0  0.00000000000E+00  0.00000000000E+00  0.26281536346E+04  0.26281536346E+04  0.00000000000E+00 0.  1.
         22   -1    0    0    0    0 -0.00000000000E+00 -0.00000000000E+00 -0.74688372629E+02  0.74688372629E+02  0.00000000000E+00 0.  1.
        -24    2    1    2    0    0  0.22055837014E+02  0.44070119117E+01 -0.30949382421E+02  0.10083201935E+03  0.93291747507E+02 0.  0.
         25    2    1    2    0    0 -0.30805857999E+02  0.34298497930E+02  0.56190583189E+03  0.57750402889E+03  0.12508937453E+03 0.  0.
         24    2    1    2    0    0  0.87500209856E+01 -0.38705509841E+02  0.20225088125E+04  0.20245059590E+04  0.80670948927E+02 0.  0.
        -11    1    5    5    0    0  0.95125495071E+01 -0.19143895863E+02  0.19214270463E+04  0.19215459588E+04  0.00000000000E+00 0.  1.
         12    1    5    5    0    0 -0.76252852158E+00 -0.19561613978E+02  0.10108176614E+03  0.10296000018E+03  0.00000000000E+00 0. -1.
         11    1    3    3    0    0  0.10571355524E+02 -0.42630772918E+02 -0.28484541959E+02  0.52349837514E+02  0.00000000000E+00 0. -1.
        -12    1    3    3    0    0  0.11484481490E+02  0.47037784829E+02 -0.24648404620E+01  0.48482181833E+02  0.00000000000E+00 0.  1.
          5    1    4    4  501    0  0.25297703554E+02  0.10734553623E+02  0.44295797225E+03  0.44382929379E+03  0.41800000000E+01 0. -1.
         -5    1    4    4    0  501 -0.56103561553E+02  0.23563944307E+02  0.11894785965E+03  0.13367473510E+03  0.41800000000E+01 0. -1.
</event>
<event>
11    1  0.9238666E-009  0.1509677E+03  0.7561462E-02  0.1095894E+00
         22   -1    0    0    0    0  0.00000000000E+00  0.00000000000E+00  0.11435767380E+04  0.11435767380E+04  0.00000000000E+00 0.  1.
         22   -1    0    0    0    0 -0.00000000000E+00 -0.00000000000E+00 -0.15053653542E+03  0.15053653542E+03  0.00000000000E+00 0. -1.
        -24    2    1    2    0    0  0.11513567483E+02  0.13533012242E+02 -0.51977400074E+02  0.95303151663E+02  0.77880266704E+02 0.  0.
         25    2    1    2    0    0 -0.21787526157E+02 -0.96756518206E+02  0.13271758206E+02  0.16018830058E+03  0.12509049510E+03 0.  0.
         24    2    1    2    0    0  0.10273958674E+02  0.83223505964E+02  0.10317458445E+04  0.10386218212E+04  0.84876932916E+02 0.  0.
        -11    1    5    5    0    0  0.40979537158E+02  0.26823992590E+02  0.61619978501E+03  0.61814320679E+03  0.00000000000E+00 0.  1.
         12    1    5    5    0    0 -0.30705578484E+02  0.56399513374E+02  0.41554605945E+03  0.42047861442E+03  0.00000000000E+00 0. -1.
         11    1    3    3    0    0  0.35883964475E+02  0.17953653859E+02 -0.57317100650E+02  0.69966010464E+02  0.00000000000E+00 0. -1.
        -12    1    3    3    0    0 -0.24370396992E+02 -0.44206416173E+01  0.53397005763E+01  0.25337141198E+02  0.00000000000E+00 0.  1.
          5    1    4    4  501    0  0.59893127684E+01 -0.44929538788E+02 -0.54076906918E+02  0.70684648863E+02  0.41800000000E+01 0. -1.
         -5    1    4    4    0  501 -0.27776838926E+02 -0.51826979417E+02  0.67348665124E+02  0.89503651714E+02  0.41800000000E+01 0. -1.
</event>
<event>
11    1  0.9238666E-009  0.1359622E+03  0.7561462E-02  0.1112153E+00
         22   -1    0    0    0    0  0.00000000000E+00  0.00000000000E+00  0.13719883650E+03  0.13719883650E+03  0.00000000000E+00 0. -1.
         22   -1    0    0    0    0 -0.00000000000E+00 -0.00000000000E+00 -0.11001322678E+04  0.11001322678E+04  0.00000000000E+00 0. -1.
         24    2    1    2    0    0 -0.53982122713E+01 -0.59898913361E+02 -0.60153345239E+03  0.61166889314E+03  0.93162867985E+02 0.  0.
         25    2    1    2    0    0  0.72687074048E+01  0.40512138812E+02 -0.47144862691E+03  0.48949515319E+03  0.12509048597E+03 0.  0.
        -24    2    1    2    0    0 -0.18704951335E+01  0.19386774549E+02  0.11004864805E+03  0.13616705792E+03  0.77790853863E+02 0.  0.
        -11    1    3    3    0    0 -0.10529365480E+01 -0.72443574632E+02 -0.26079136262E+03  0.27066827482E+03  0.00000000000E+00 0.  1.
         12    1    3    3    0    0 -0.43452757233E+01  0.12544661270E+02 -0.34074208978E+03  0.34100061832E+03  0.00000000000E+00 0. -1.
         11    1    5    5    0    0 -0.21248115210E+01  0.16414406613E+01  0.11705584871E+03  0.11708663830E+03  0.00000000000E+00 0. -1.
        -12    1    5    5    0    0  0.25431638754E+00  0.17745333888E+02 -0.70072006608E+01  0.19080419616E+02  0.00000000000E+00 0.  1.
          5    1    4    4  501    0 -0.56285907249E+02  0.27445909322E+02 -0.17261959361E+03  0.18367465201E+03  0.41800000000E+01 0.  1.
         -5    1    4    4    0  501  0.63554614654E+02  0.13066229491E+02 -0.29882903331E+03  0.30582050118E+03  0.41800000000E+01 0.  1.
</event>
<event>
11    1  0.9238666E-009  0.1387088E+03  0.7561462E-02  0.1109009E+00
         22   -1    0    0    0    0  0.00000000000E+00  0.00000000000E+00  0.77282408806E+02  0.77282408806E+02  0.00000000000E+00 0. -1.
         22   -1    0    0    0    0 -0.00000000000E+00 -0.00000000000E+00 -0.16440237721E+04  0.16440237721E+04  0.00000000000E+00 0. -1.
         24    2    1    2    0    0 -0.45062510934E+02 -0.43066054155E+00 -0.13978936151E+04  0.14011465407E+04  0.84108585262E+02 0.  0.
         25    2    1    2    0    0  0.28476168362E+02  0.59892640511E+02 -0.16484810150E+03  0.21730322705E+03  0.12509106829E+03 0.  0.
        -24    2    1    2    0    0  0.16586342573E+02 -0.59461979970E+02 -0.39996467515E+01  0.10285641318E+03  0.82174270523E+02 0.  0.
        -13    1    3    3    0    0  0.19407356982E+02  0.18180667510E+02 -0.52765003134E+03  0.52831973061E+03  0.00000000000E+00 0.  1.
         14    1    3    3    0    0 -0.64469867916E+02 -0.18611328052E+02 -0.87024358373E+03  0.87282681010E+03  0.00000000000E+00 0. -1.
         13    1    5    5    0    0 -0.15147308021E+02 -0.68367046171E+01  0.28760613024E+02  0.33216777866E+02  0.00000000000E+00 0. -1.
        -14    1    5    5    0    0  0.31733650593E+02 -0.52625275353E+02 -0.32760259776E+02  0.69639635313E+02  0.00000000000E+00 0.  1.
          5    1    4    4  501    0  0.14150752068E+02 -0.38439764022E+02 -0.37267049325E+02  0.55535255537E+02  0.41800000000E+01 0.  1.
         -5    1    4    4    0  501  0.14325416294E+02  0.98332404533E+02 -0.12758105218E+03  0.16176797151E+03  0.41800000000E+01 0.  1.
</event>
<event>
11    1  0.9238666E-009  0.1780076E+03  0.7561462E-02  0.1071266E+00
         22   -1    0    0    0    0  0.00000000000E+00  0.00000000000E+00  0.21799730348E+03  0.21799730348E+03  0.00000000000E+00 0.  1.
         22   -1    0    0    0    0 -0.00000000000E+00 -0.00000000000E+00 -0.13418071510E+04  0.13418071510E+04  0.00000000000E+00 0.  1.
        -24    2    1    2    0    0  0.63414316348E+01  0.29100831972E+02 -0.11486780703E+04  0.11517954104E+04  0.79273488732E+02 0.  0.
         25    2    1    2    0    0  0.35896201570E+02 -0.14374434979E+03 -0.98131294182E+02  0.21732100764E+03  0.12509074338E+03 0.  0.
         24    2    1    2    0    0 -0.42237633205E+02  0.11464351782E+03  0.12299951689E+03  0.19068803654E+03  0.79409648576E+02 0.  0.
        -11    1    5    5    0    0 -0.44845978680E+02  0.12557737525E+03  0.11910231579E+03  0.17879094106E+03  0.00000000000E+00 0.  1.
         12    1    5    5    0    0  0.26083454751E+01 -0.10933857430E+02  0.38972011005E+01  0.11897095479E+02  0.00000000000E+00 0. -1.
         11    1    3    3    0    0 -0.21264540280E+02 -0.66935543314E+01 -0.11566434363E+03  0.11779314382E+03  0.00000000000E+00 0. -1.
        -12    1    3    3    0    0  0.27605971915E+02  0.35794386303E+02 -0.10330137266E+04  0.10340022665E+04  0.00000000000E+00 0.  1.
          5    1    4    4  501    0  0.20375355154E+02  0.36297081570E+01 -0.60918530664E+02  0.64473790467E+02  0.41800000000E+01 0.  1.
         -5    1    4    4    0  501  0.15520846415E+02 -0.14737405795E+03 -0.37212763519E+02  0.15284721717E+03  0.41800000000E+01 0.  1.
</event>
<event>
11    1  0.9238666E-009  0.2511854E+03  0.7561462E-02  0.1023270E+00
         22   -1    0    0    0    0  0.00000000000E+00  0.00000000000E+00  0.27781717844E+03  0.27781717844E+03  0.00000000000E+00 0.  1.
         22   -1    0    0    0    0 -0.00000000000E+00 -0.00000000000E+00 -0.92339497731E+03  0.92339497731E+03  0.00000000000E+00 0.  1.
         24    2    1    2    0    0  0.17577538182E+02  0.14780307909E+02 -0.70005615802E+03  0.70491687909E+03  0.79383592062E+02 0.  0.
         25    2    1    2    0    0 -0.11700157753E+03 -0.19918583983E+03 -0.72354165492E+01  0.26279658709E+03  0.12508128156E+03 0.  0.
        -24    2    1    2    0    0  0.99424039348E+02  0.18440553192E+03  0.61713775704E+02  0.23349868957E+03  0.82598475263E+02 0.  0.
        -13    1    3    3    0    0  0.43813574544E+01 -0.15850976052E+02 -0.58220035255E+03  0.58243257142E+03  0.00000000000E+00 0.  1.
         14    1    3    3    0    0  0.13196180728E+02  0.30631283961E+02 -0.11785580547E+03  0.12248430767E+03  0.00000000000E+00 0. -1.
         11    1    5    5    0    0 -0.89698780668E+01  0.29028406899E+01  0.13829836537E+02  0.16737669350E+02  0.00000000000E+00 0. -1.
        -12    1    5    5    0    0  0.10839391741E+03  0.18150269123E+03  0.47883939166E+02  0.21676102022E+03  0.00000000000E+00 0.  1.
          5    1    4    4  501    0 -0.46699763661E+02 -0.10683676507E+03  0.57244375987E+02  0.12995904462E+03  0.41800000000E+01 0. -1.
         -5    1    4    4    0  501 -0.70301813869E+02 -0.92349074761E+02 -0.64479792536E+02  0.13283754246E+03  0.41800000000E+01 0. -1.
</event>
<event>
11    1  0.1080994E-008  0.1576111E+03  0.7561462E-02  0.1089346E+00
         22   -1    0    0    0    0  0.00000000000E+00  0.00000000000E+00  0.36554621474E+03  0.36554621474E+03  0.00000000000E+00 0. -1.
         22   -1    0    0    0    0 -0.00000000000E+00 -0.00000000000E+00 -0.12009114856E+04  0.12009114856E+04  0.00000000000E+00 0.  1.
         24    2    1    2    0    0  0.38372748687E+02 -0.28362337497E+02 -0.82262052322E+03  0.82790660747E+03  0.80299037533E+02 0.  0.
         25    2    1    2    0    0 -0.13189503762E+03  0.42396751166E+02 -0.34002059557E+03  0.38788558202E+03  0.12508970327E+03 0.  0.
        -24    2    1    2    0    0  0.93522288937E+02 -0.14034413669E+02  0.32727584793E+03  0.35066551086E+03  0.83147077938E+02 0.  0.
        -13    1    3    3    0    0  0.26171026209E+01 -0.45421735792E+02 -0.60508489511E+03  0.60679297425E+03  0.00000000000E+00 0.  1.
         14    1    3    3    0    0  0.35755646066E+02  0.17059398295E+02 -0.21753562811E+03  0.22111363322E+03  0.00000000000E+00 0. -1.
         11    1    5    5    0    0  0.58612539627E+02 -0.42639224542E+02  0.25797638632E+03  0.26796520141E+03  0.00000000000E+00 0. -1.
        -12    1    5    5    0    0  0.34909749310E+02  0.28604810873E+02  0.69299461614E+02  0.82700309443E+02  0.00000000000E+00 0.  1.
          5    1    4    4  501    0 -0.17208061392E+02  0.34315618611E+01  0.77268928456E+01  0.19623207350E+02  0.41800000000E+01 0. -1.
         -5    1    4    4    0  501 -0.11468697623E+03  0.38965189305E+02 -0.34774748842E+03  0.36826237467E+03  0.41800000000E+01 0. -1.
</event>
<event>
11    1  0.9238666E-009  0.1454018E+03  0.7561462E-02  0.1101672E+00
         22   -1    0    0    0    0  0.00000000000E+00  0.00000000000E+00  0.16896588380E+04  0.16896588380E+04  0.00000000000E+00 0. -1.
         22   -1    0    0    0    0 -0.00000000000E+00 -0.00000000000E+00 -0.25539879773E+02  0.25539879773E+02  0.00000000000E+00 0.  1.
        -24    2    1    2    0    0 -0.25496355895E+02 -0.23581666226E+02  0.11448068390E+03  0.14372717010E+03  0.79658730176E+02 0.  0.
         25    2    1    2    0    0  0.39730031387E+02  0.85549483925E+02  0.86590563677E+03  0.87996401452E+03  0.12508759116E+03 0.  0.
         24    2    1    2    0    0 -0.14233675492E+02 -0.61967817698E+02  0.68373263752E+03  0.69150753312E+03  0.81545942874E+02 0.  0.
        -11    1    5    5    0    0 -0.14053321545E+02 -0.45103177745E+02  0.14481166042E+03  0.15232271493E+03  0.00000000000E+00 0.  1.
         12    1    5    5    0    0 -0.18035394762E+00 -0.16864639953E+02  0.53892097710E+03  0.53918481819E+03  0.00000000000E+00 0. -1.
         13    1    3    3    0    0  0.22004947569E+02  0.89906799285E+01  0.13134991481E+02  0.27158388102E+02  0.00000000000E+00 0. -1.
        -14    1    3    3    0    0 -0.47501303464E+02 -0.32572346155E+02  0.10134569242E+03  0.11656878200E+03  0.00000000000E+00 0.  1.
          5    1    4    4  501    0  0.65828022540E+02  0.10267908078E+03  0.74958493842E+03  0.75945465598E+03  0.41800000000E+01 0.  1.
         -5    1    4    4    0  501 -0.26097991153E+02 -0.17129596858E+02  0.11632069835E+03  0.12050935853E+03  0.41800000000E+01 0.  1.
</event>
<event>
11    1  0.9238666E-009  0.1354337E+03  0.7561462E-02  0.1112767E+00
         22   -1    0    0    0    0  0.00000000000E+00  0.00000000000E+00  0.14860836584E+03  0.14860836584E+03  0.00000000000E+00 0.  1.
         22   -1    0    0    0    0 -0.00000000000E+00 -0.00000000000E+00 -0.51756572683E+03  0.51756572683E+03  0.00000000000E+00 0. -1.
         24    2    1    2    0    0  0.43457635293E+02  0.31215079811E+02 -0.29132544045E+03  0.30478460152E+03  0.71834488908E+02 0.  0.
         25    2    1    2    0    0 -0.21433350901E+02 -0.47233525766E+02 -0.18100988282E+03  0.22606496424E+03  0.12510154233E+03 0.  0.
        -24    2    1    2    0    0 -0.22024284392E+02  0.16018445955E+02  0.10337796228E+03  0.13532452691E+03  0.82970264463E+02 0.  0.
        -13    1    3    3    0    0  0.52595482791E+02  0.11227107475E+02 -0.11339560849E+03  0.12550257677E+03  0.00000000000E+00 0.  1.
         14    1    3    3    0    0 -0.91378474984E+01  0.19987972336E+02 -0.17792983196E+03  0.17928202474E+03  0.00000000000E+00 0. -1.
         13    1    5    5    0    0 -0.37400855401E+01  0.70662843438E+01 -0.14038904700E+02  0.16155849078E+02  0.00000000000E+00 0. -1.
        -14    1    5    5    0    0 -0.18284198851E+02  0.89521616109E+01  0.11741686698E+03  0.11916867784E+03  0.00000000000E+00 0.  1.
          5    1    4    4  501    0  0.79450392741E+01  0.85078579696E+01  0.15400772470E+02  0.19752556517E+02  0.41800000000E+01 0. -1.
         -5    1    4    4    0  501 -0.29378390175E+02 -0.55741383735E+02 -0.19641065529E+03  0.20631240772E+03  0.41800000000E+01 0. -1.
</event>
<event>
11    1  0.9238666E-009  0.1743724E+03  0.7561462E-02  0.1074288E+00
         22   -1    0    0    0    0  0.00000000000E+00  0.00000000000E+00  0.19204466517E+04  0.19204466517E+04  0.00000000000E+00 0.  1.
         22   -1    0    0    0    0 -0.00000000000E+00 -0.00000000000E+00 -0.25128805164E+03  0.25128805164E+03  0.00000000000E+00 0. -1.
         24    2    1    2    0    0  0.12468954018E+03 -0.23484694001E+02 -0.18803847800E+03  0.24067638447E+03  0.80421642293E+02 0.  0.
         25    2    1    2    0    0 -0.86620841853E+02  0.15328443872E+02  0.12772817979E+03  0.19924781939E+03  0.12508826557E+03 0.  0.
        -24    2    1    2    0    0 -0.38068698332E+02  0.81562501295E+01  0.17294688983E+04  0.17318104995E+04  0.81173800060E+02 0.  0.
        -13    1    3    3    0    0  0.21757521840E+02 -0.20817423853E+02 -0.48040142165E+01  0.30493170467E+02  0.00000000000E+00 0.  1.
         14    1    3    3    0    0  0.10293201834E+03 -0.26672701482E+01 -0.18323446379E+03  0.21018321401E+03  0.00000000000E+00 0. -1.
         13    1    5    5    0    0 -0.28941598771E+01  0.33608032091E+02  0.34132795183E+03  0.34299073848E+03  0.00000000000E+00 0. -1.
        -14    1    5    5    0    0 -0.35174538455E+02 -0.25451781962E+02  0.13881409465E+04  0.13888197610E+04  0.00000000000E+00 0.  1.
          5    1    4    4  501    0 -0.98923394053E+02  0.39049130095E+01  0.35260262353E+02  0.10517530479E+03  0.41800000000E+01 0. -1.
         -5    1    4    4    0  501  0.12302552200E+02  0.11423530862E+02  0.92467917434E+02  0.94072514597E+02  0.41800000000E+01 0. -1.
</event>
<event>
11    1  0.9238666E-009  0.1530368E+03  0.7561462E-02  0.1093816E+00
         22   -1    0    0    0    0  0.00000000000E+00  0.00000000000E+00  0.62101205975E+03  0.62101205975E+03  0.00000000000E+00 0.  1.
         22   -1    0    0    0    0 -0.00000000000E+00 -0.00000000000E+00 -0.49824403244E+03  0.49824403244E+03  0.00000000000E+00 0.  1.
        -24    2    1    2    0    0  0.77630929608E+02 -0.38241405404E+02 -0.39862336561E+03  0.41583674064E+03  0.80812381082E+02 0.  0.
         25    2    1    2    0    0 -0.72236473906E+02  0.84982059120E+02 -0.60696680008E+01  0.16770283836E+03  0.12508933843E+03 0.  0.
         24    2    1    2    0    0 -0.53944557025E+01 -0.46740653716E+02  0.52746106093E+03  0.53571651319E+03  0.81013720113E+02 0.  0.
        -13    1    5    5    0    0  0.27333478736E+02  0.57627442970E+01  0.24329490056E+03  0.24489331742E+03  0.00000000000E+00 0.  1.
         14    1    5    5    0    0 -0.32727934439E+02 -0.52503398013E+02  0.28416616037E+03  0.29082319577E+03  0.00000000000E+00 0. -1.
         11    1    3    3    0    0  0.21458432332E+02 -0.94627736747E+01 -0.16841308868E+02  0.28872791485E+02  0.00000000000E+00 0. -1.
        -12    1    3    3    0    0  0.56172497276E+02 -0.28778631729E+02 -0.38178205674E+03  0.38696394915E+03  0.00000000000E+00 0.  1.
          5    1    4    4  501    0 -0.68319990917E+02  0.68198627122E+02  0.50071780084E+02  0.10882706217E+03  0.41800000000E+01 0.  1.
         -5    1    4    4    0  501 -0.39164829883E+01  0.16783431998E+02 -0.56141448085E+02  0.58875776187E+02  0.41800000000E+01 0.  1.
</event>
<event>
11    1  0.9238666E-009  0.1270680E+03  0.7561462E-02  0.1122925E+00
         22   -1    0    0    0    0  0.00000000000E+00  0.00000000000E+00  0.68404698488E+03  0.68404698488E+03  0.00000000000E+00 0.  1.
         22   -1    0    0    0    0 -0.00000000000E+00 -0.00000000000E+00 -0.13116324516E+03  0.13116324516E+03  0.00000000000E+00 0. -1.
         24    2    1    2    0    0  0.55769889758E+01 -0.80866536887E+01 -0.65256524871E+02  0.10559462835E+03  0.82433698959E+02 0.  0.
         25    2    1    2    0    0  0.16397030219E+02  0.16775515105E+01  0.50961759621E+02  0.13606958156E+03  0.12508458460E+03 0.  0.
        -24    2    1    2    0    0 -0.21974019195E+02  0.64091021781E+01  0.56717850498E+03  0.57354602013E+03  0.82095350557E+02 0.  0.
        -13    1    3    3    0    0  0.23948636534E+02 -0.34514700441E+02 -0.12561535164E+02  0.43847393355E+02  0.00000000000E+00 0.  1.
         14    1    3    3    0    0 -0.18371647558E+02  0.26428046753E+02 -0.52694989707E+02  0.61747234994E+02  0.00000000000E+00 0. -1.
         11    1    5    5    0    0  0.10869413450E+02  0.14303539665E+02  0.27728303709E+02  0.33039283017E+02  0.00000000000E+00 0. -1.
        -12    1    5    5    0    0 -0.32843432646E+02 -0.78944374866E+01  0.53945020127E+03  0.54050673711E+03  0.00000000000E+00 0.  1.
          5    1    4    4  501    0  0.62895719160E+02 -0.15407137173E+02  0.20297884866E-01  0.64890093054E+02  0.41800000000E+01 0. -1.
         -5    1    4    4    0  501 -0.46498688941E+02  0.17084688683E+02  0.50941461736E+02  0.71179488509E+02  0.41800000000E+01 0. -1.
</event>
<event>
11    1  0.9238666E-009  0.1314540E+03  0.7561462E-02  0.1117495E+00
         22   -1    0    0    0    0  0.00000000000E+00  0.00000000000E+00  0.11382871771E+04  0.11382871771E+04  0.00000000000E+00 0.  1.
         22   -1    0    0    0    0 -0.00000000000E+00 -0.00000000000E+00 -0.19188555571E+04  0.19188555571E+04  0.00000000000E+00 0.  1.
        -24    2    1    2    0    0 -0.17132829673E+02  0.52542254031E+02 -0.19044831029E+04  0.19070345951E+04  0.81675183184E+02 0.  0.
         25    2    1    2    0    0 -0.11194363546E+01 -0.10296122146E+01  0.39284261161E+03  0.41228062370E+03  0.12509069486E+03 0.  0.
         24    2    1    2    0    0  0.18252266028E+02 -0.51512641816E+02  0.73107211123E+03  0.73782751541E+03  0.83284531583E+02 0.  0.
        -11    1    5    5    0    0  0.42703756990E+02 -0.47252631956E+02  0.64812005707E+03  0.65124191393E+03  0.00000000000E+00 0.  1.
         12    1    5    5    0    0 -0.24451490962E+02 -0.42600098604E+01  0.82952054164E+02  0.86585601483E+02  0.00000000000E+00 0. -1.
         11    1    3    3    0    0  0.85507322769E+01 -0.18775856407E+02 -0.26594128329E+03  0.26674034934E+03  0.00000000000E+00 0. -1.
        -12    1    3    3    0    0 -0.25683561950E+02  0.71318110438E+02 -0.16385418196E+04  0.16402942458E+04  0.00000000000E+00 0.  1.
          5    1    4    4  501    0  0.25564003672E+02 -0.39014099430E+02  0.59614561637E+02  0.75808882047E+02  0.41800000000E+01 0. -1.
         -5    1    4    4    0  501 -0.26683440026E+02  0.37984487215E+02  0.33322804997E+03  0.33647174165E+03  0.41800000000E+01 0. -1.
</event>
<event>
11    1  0.9238666E-009  0.1496621E+03  0.7561462E-02  0.1097225E+00
         22   -1    0    0    0    0  0.00000000000E+00  0.00000000000E+00  0.86224899794E+03  0.86224899794E+03  0.00000000000E+00 0.  1.
         22   -1    0    0    0    0 -0.00000000000E+00 -0.00000000000E+00 -0.14650078250E+03  0.14650078250E+03  0.00000000000E+00 0. -1.
        -24    2    1    2    0    0 -0.33058648988E+02 -0.71421011797E+02 -0.88444875469E+02  0.14360318060E+03  0.81274487277E+02 0.  0.
         25    2    1    2    0    0  0.59862294715E+02  0.10081711178E+03  0.24581347764E+03  0.29969162908E+03  0.12507286835E+03 0.  0.
         24    2    1    2    0    0 -0.26803645728E+02 -0.29396099980E+02  0.55837961327E+03  0.56545497076E+03  0.79805797528E+02 0.  0.
        -11    1    5    5    0    0 -0.13276985649E+02  0.25811476299E+02  0.26778432662E+03  0.26935284710E+03  0.00000000000E+00 0.  1.
         12    1    5    5    0    0 -0.13526660079E+02 -0.55207576279E+02  0.29059528665E+03  0.29610212366E+03  0.00000000000E+00 0. -1.
         11    1    3    3    0    0 -0.24220539714E+02 -0.31740419196E+02 -0.94419029830E+02  0.10251361836E+03  0.00000000000E+00 0. -1.
        -12    1    3    3    0    0 -0.88381092737E+01 -0.39680592601E+02  0.59741543618E+01  0.41089562239E+02  0.00000000000E+00 0.  1.
          5    1    4    4  501    0 -0.38137790051E+02  0.37915015443E+02  0.63456670141E+02  0.83284217060E+02  0.41800000000E+01 0.  1.
         -5    1    4    4    0  501  0.98000084766E+02  0.62902096333E+02  0.18235680750E+03  0.21640741202E+03  0.41800000000E+01 0.  1.
</event>
<event>
11    1  0.9238666E-009  0.1620378E+03  0.7561462E-02  0.1085176E+00
         22   -1    0    0    0    0  0.00000000000E+00  0.00000000000E+00  0.71415989372E+03  0.71415989372E+03  0.00000000000E+00 0.  1.
         22   -1    0    0    0    0 -0.00000000000E+00 -0.00000000000E+00 -0.19668434719E+03  0.19668434719E+03  0.00000000000E+00 0.  1.
        -24    2    1    2    0    0  0.11204479877E+03  0.28397213160E+02 -0.10234136184E+03  0.17452375778E+03  0.81390104081E+02 0.  0.
         25    2    1    2    0    0 -0.72424850738E+02  0.64377906281E+01  0.41993652907E+02  0.15065994459E+03  0.12509255720E+03 0.  0.
         24    2    1    2    0    0 -0.39619948028E+02 -0.34835003788E+02  0.57782325546E+03  0.58566053855E+03  0.79594811937E+02 0.  0.
        -11    1    5    5    0    0 -0.29830637913E+02 -0.17701338945E+02  0.55235044515E+03  0.55343854096E+03  0.00000000000E+00 0.  1.
         12    1    5    5    0    0 -0.97893101150E+01 -0.17133664843E+02  0.25472810312E+02  0.32221997590E+02  0.00000000000E+00 0. -1.
         11    1    3    3    0    0  0.75063060913E+02  0.53324867447E+02 -0.46783498147E+02  0.10327971873E+03  0.00000000000E+00 0. -1.
        -12    1    3    3    0    0  0.36981737853E+02 -0.24927654287E+02 -0.55557863691E+02  0.71244039054E+02  0.00000000000E+00 0.  1.
          5    1    4    4  501    0 -0.39538906057E+02  0.65635103173E+02  0.19444104509E+02  0.79163359333E+02  0.41800000000E+01 0.  1.
         -5    1    4    4    0  501 -0.32885944680E+02 -0.59197312545E+02  0.22549548398E+02  0.71496585254E+02  0.41800000000E+01 0.  1.
</event>
<event>
11    1  0.9238666E-009  0.1542202E+03  0.7561462E-02  0.1092643E+00
         22   -1    0    0    0    0  0.00000000000E+00  0.00000000000E+00  0.78381258534E+03  0.78381258534E+03  0.00000000000E+00 0.  1.
         22   -1    0    0    0    0 -0.00000000000E+00 -0.00000000000E+00 -0.77500413527E+02  0.77500413527E+02  0.00000000000E+00 0.  1.
        -24    2    1    2    0    0 -0.55859325698E+02 -0.35153327523E+02  0.10641906068E+02  0.10425771535E+03  0.80002502093E+02 0.  0.
         25    2    1    2    0    0  0.18147197751E+02  0.11270959522E+03  0.30370966126E+03  0.34773570914E+03  0.12509113249E+03 0.  0.
         24    2    1    2    0    0  0.37712127947E+02 -0.77556267702E+02  0.39196060449E+03  0.40931957438E+03  0.80450104079E+02 0.  0.
        -13    1    5    5    0    0 -0.36965202018E+01 -0.55065514135E+02  0.30917517647E+03  0.31406235823E+03  0.00000000000E+00 0.  1.
         14    1    5    5    0    0  0.41408648149E+02 -0.22490753567E+02  0.82785428016E+02  0.95257216154E+02  0.00000000000E+00 0. -1.
         13    1    3    3    0    0 -0.29699196381E+02 -0.18715835105E+02  0.45636513403E+02  0.57576176539E+02  0.00000000000E+00 0. -1.
        -14    1    3    3    0    0 -0.26160129317E+02 -0.16437492418E+02 -0.34994607335E+02  0.46681538807E+02  0.00000000000E+00 0.  1.
          5    1    4    4  501    0  0.14220421243E+02 -0.24308325084E+02  0.84458493884E+02  0.89128136062E+02  0.41800000000E+01 0.  1.
         -5    1    4    4    0  501  0.39267765080E+01  0.13701792031E+03  0.21925116738E+03  0.25860757308E+03  0.41800000000E+01 0.  1.
</event>
<event>
11    1  0.9238666E-009  0.4472731E+03  0.7561462E-02  0.9519731E-01
         22   -1    0    0    0    0  0.00000000000E+00  0.00000000000E+00  0.28227425564E+04  0.28227425564E+04  0.00000000000E+00 0.  1.
         22   -1    0    0    0    0 -0.00000000000E+00 -0.00000000000E+00 -0.32396367716E+03  0.32396367716E+03  0.00000000000E+00 0.  1.
        -24    2    1    2    0    0 -0.26976676138E+02 -0.59677790938E+01 -0.16331386297E+03  0.18820530839E+03  0.89367023145E+02 0.  0.
         25    2    1    2    0    0  0.45269218407E+03  0.15094232185E+02  0.30126915847E+03  0.55818362755E+03  0.12509119413E+03 0.  0.
         24    2    1    2    0    0 -0.42571550794E+03 -0.91264530912E+01  0.23608235837E+04  0.24003172976E+04  0.81964320684E+02 0.  0.
        -11    1    5    5    0    0 -0.29490459268E+03 -0.91312668824E+01  0.18288443622E+04  0.18524912415E+04  0.00000000000E+00 0.  1.
         12    1    5    5    0    0 -0.13081091525E+03  0.48137912164E-02  0.53197922153E+03  0.54782605607E+03  0.00000000000E+00 0. -1.
         13    1    3    3    0    0 -0.45323544606E+02 -0.21221464662E+02 -0.44340186689E+02  0.66862743091E+02  0.00000000000E+00 0. -1.
        -14    1    3    3    0    0  0.18346868467E+02  0.15253685568E+02 -0.11897367628E+03  0.12134256530E+03  0.00000000000E+00 0.  1.
          5    1    4    4  501    0  0.17988936413E+03  0.44239265917E+02  0.65865193959E+02  0.19665449944E+03  0.41800000000E+01 0.  1.
         -5    1    4    4    0  501  0.27280281995E+03 -0.29145033732E+02  0.23540396451E+03  0.36152912811E+03  0.41800000000E+01 0.  1.
</event>
<event>
11    1  0.9238666E-009  0.1543529E+03  0.7561462E-02  0.1092512E+00
         22   -1    0    0    0    0  0.00000000000E+00  0.00000000000E+00  0.34098484095E+03  0.34098484095E+03  0.00000000000E+00 0.  1.
         22   -1    0    0    0    0 -0.00000000000E+00 -0.00000000000E+00 -0.68558838069E+03  0.68558838069E+03  0.00000000000E+00 0. -1.
         24    2    1    2    0    0 -0.20561530321E+02 -0.46349486343E+01 -0.45358331226E+03  0.46108125257E+03  0.80086459751E+02 0.  0.
         25    2    1    2    0    0  0.77952283812E+02 -0.64602960341E+02 -0.18674159997E+03  0.24651790129E+03  0.12509416238E+03 0.  0.
        -24    2    1    2    0    0 -0.57390753491E+02  0.69237908975E+02  0.29572137248E+03  0.31897406778E+03  0.78776513944E+02 0.  0.
        -11    1    3    3    0    0 -0.47917179228E+02 -0.19400078557E+02 -0.28943469083E+03  0.29401506657E+03  0.00000000000E+00 0.  1.
         12    1    3    3    0    0  0.27355648907E+02  0.14765129923E+02 -0.16414862142E+03  0.16706618600E+03  0.00000000000E+00 0. -1.
         11    1    5    5    0    0  0.84306838789E+01 -0.70959384622E+00  0.44828770320E+00  0.84723618878E+01  0.00000000000E+00 0. -1.
        -12    1    5    5    0    0 -0.65821437370E+02  0.69947502822E+02  0.29527308478E+03  0.31050170590E+03  0.00000000000E+00 0.  1.
          5    1    4    4  501    0  0.43842149622E+02 -0.78176599174E+02 -0.18929126023E+03  0.20948118851E+03  0.41800000000E+01 0.  1.
         -5    1    4    4    0  501  0.34110134190E+02  0.13573638833E+02  0.25496602625E+01  0.37036712773E+02  0.41800000000E+01 0.  1.
</event>
<event>
11    1  0.9238666E-009  0.1484437E+03  0.7561462E-02  0.1098480E+00
         22   -1    0    0    0    0  0.00000000000E+00  0.00000000000E+00  0.20152300028E+04  0.20152300028E+04  0.00000000000E+00 0. -1.
         22   -1    0    0    0    0 -0.00000000000E+00 -0.00000000000E+00 -0.14786620991E+04  0.14786620991E+04  0.00000000000E+00 0. -1.
        -24    2    1    2    0    0 -0.19732315543E+02 -0.62199266493E+02 -0.14248581085E+04  0.14289011852E+04  0.85322064916E+02 0.  0.
         25    2    1    2    0    0  0.97593967419E+02  0.45247745025E+02  0.86007690068E+02  0.18605749659E+03  0.12509247932E+03 0.  0.
         24    2    1    2    0    0 -0.77861651876E+02  0.16951521468E+02  0.18754183221E+04  0.18789334201E+04  0.82747346001E+02 0.  0.
        -11    1    5    5    0    0 -0.24963079804E+02 -0.33343971860E+02  0.73986930718E+03  0.74104086765E+03  0.00000000000E+00 0.  1.
         12    1    5    5    0    0 -0.52898572072E+02  0.50295493328E+02  0.11355490150E+04  0.11378925525E+04  0.00000000000E+00 0. -1.
         11    1    3    3    0    0 -0.29780005196E-01 -0.68817257849E+02 -0.13306166535E+04  0.13323950219E+04  0.00000000000E+00 0. -1.
        -12    1    3    3    0    0 -0.19702535538E+02  0.66179913565E+01 -0.94241455015E+02  0.96506163324E+02  0.00000000000E+00 0.  1.
          5    1    4    4  501    0  0.27964264035E+02  0.47680329683E+02  0.10049729467E+03  0.11477191528E+03  0.41800000000E+01 0. -1.
         -5    1    4    4    0  501  0.69629703384E+02 -0.24325846584E+01 -0.14489604600E+02  0.71285581312E+02  0.41800000000E+01 0. -1.
</event>
<event>
11    1  0.9238666E-009  0.1353471E+03  0.7561462E-02  0.1112868E+00
         22   -1    0    0    0    0  0.00000000000E+00  0.00000000000E+00  0.32206177733E+03  0.32206177733E+03  0.00000000000E+00 0. -1.
         22   -1    0    0    0    0 -0.00000000000E+00 -0.00000000000E+00 -0.23217405674E+03  0.23217405674E+03  0.00000000000E+00 0.  1.
        -24    2    1    2    0    0  0.41553726222E+02 -0.32826991913E+02 -0.16169249884E+03  0.18808076100E+03  0.80159746248E+02 0.  0.
         25    2    1    2    0    0 -0.76125367678E+01  0.55629097482E+02  0.50980856382E+02  0.14628405368E+03  0.12508968559E+03 0.  0.
         24    2    1    2    0    0 -0.33941189454E+02 -0.22802105569E+02  0.20059936304E+03  0.21987101939E+03  0.80194889833E+02 0.  0.
        -13    1    5    5    0    0 -0.34471387806E+02  0.23549738431E+02  0.72749370821E+02  0.83876920022E+02  0.00000000000E+00 0.  1.
         14    1    5    5    0    0  0.53019835177E+00 -0.46351844000E+02  0.12784999222E+03  0.13599409937E+03  0.00000000000E+00 0. -1.
         11    1    3    3    0    0 -0.16263279430E+02 -0.24677986041E+02 -0.22522469328E+02  0.37158563985E+02  0.00000000000E+00 0. -1.
        -12    1    3    3    0    0  0.57817005652E+02 -0.81490058721E+01 -0.13917002951E+03  0.15092219702E+03  0.00000000000E+00 0.  1.
          5    1    4    4  501    0  0.31384756068E+02 -0.26558723341E+02 -0.11690856182E+01  0.41342567169E+02  0.41800000000E+01 0.  1.
         -5    1    4    4    0  501 -0.38997292836E+02  0.82187820823E+02  0.52149942001E+02  0.10494148651E+03  0.41800000000E+01 0.  1.
</event>
<event>
11    1  0.9238666E-009  0.1679805E+03  0.7561462E-02  0.1079803E+00
         22   -1    0    0    0    0  0.00000000000E+00  0.00000000000E+00  0.69462056478E+02  0.69462056478E+02  0.00000000000E+00 0. -1.
         22   -1    0    0    0    0 -0.00000000000E+00 -0.00000000000E+00 -0.35724210811E+04  0.35724210811E+04  0.00000000000E+00 0.  1.
        -24    2    1    2    0    0  0.63196557563E+02  0.90600771825E+02 -0.32072756912E+04  0.32101566192E+04  0.79283391932E+02 0.  0.
         25    2    1    2    0    0 -0.57069734663E+02 -0.14325484701E+03 -0.26333826441E+03  0.32980608555E+03  0.12508439854E+03 0.  0.
         24    2    1    2    0    0 -0.61268229003E+01  0.52654075181E+02 -0.32345069075E+02  0.10192043281E+03  0.80818200536E+02 0.  0.
        -11    1    5    5    0    0  0.20597869154E+01 -0.13991348854E+02 -0.31765736988E+02  0.34771577636E+02  0.00000000000E+00 0.  1.
         12    1    5    5    0    0 -0.81866098157E+01  0.66645424035E+02 -0.57933208743E+00  0.67148855171E+02  0.00000000000E+00 0. -1.
         11    1    3    3    0    0  0.23795370177E+02  0.76123042729E+02 -0.13156263648E+04  0.13180416036E+04  0.00000000000E+00 0. -1.
        -12    1    3    3    0    0  0.39401187387E+02  0.14477729096E+02 -0.18916493264E+04  0.18921150156E+04  0.00000000000E+00 0.  1.
          5    1    4    4  501    0  0.19521691384E+02 -0.60387530772E+02 -0.17573346986E+03  0.18688893797E+03  0.41800000000E+01 0.  1.
         -5    1    4    4    0  501 -0.76591426047E+02 -0.82867316234E+02 -0.87604794554E+02  0.14291714758E+03  0.41800000000E+01 0.  1.
</event>
<event>
11    1  0.9238666E-009  0.1549855E+03  0.7561462E-02  0.1091891E+00
         22   -1    0    0    0    0  0.00000000000E+00  0.00000000000E+00  0.97549421934E+03  0.97549421934E+03  0.00000000000E+00 0.  1.
         22   -1    0    0    0    0 -0.00000000000E+00 -0.00000000000E+00 -0.30512678549E+03  0.30512678549E+03  0.00000000000E+00 0.  1.
        -24    2    1    2    0    0 -0.39769052074E+02 -0.20684903093E+02 -0.20542421452E+03  0.22497902471E+03  0.80043806302E+02 0.  0.
         25    2    1    2    0    0 -0.48001551119E+02 -0.11889732248E+02 -0.32828974700E+02  0.13845909693E+03  0.12509062834E+03 0.  0.
         24    2    1    2    0    0  0.87770603193E+02  0.32574635341E+02  0.90862062308E+03  0.91718288320E+03  0.82874718091E+02 0.  0.
        -11    1    5    5    0    0  0.78088545888E+02  0.14949254471E+01  0.79961562250E+03  0.80342093547E+03  0.00000000000E+00 0.  1.
         12    1    5    5    0    0  0.96820573047E+01  0.31079709894E+02  0.10900500058E+03  0.11376194773E+03  0.00000000000E+00 0. -1.
         11    1    3    3    0    0 -0.42204535832E+02 -0.24677685274E+01 -0.38920676251E+02  0.57464178112E+02  0.00000000000E+00 0. -1.
        -12    1    3    3    0    0  0.24354837583E+01 -0.18217134566E+02 -0.16650353827E+03  0.16751484659E+03  0.00000000000E+00 0.  1.
          5    1    4    4  501    0  0.75992383258E+01 -0.42976906965E+02 -0.55487862541E+02  0.70718726267E+02  0.41800000000E+01 0.  1.
         -5    1    4    4    0  501 -0.55600789445E+02  0.31087174717E+02  0.22658887841E+02  0.67740370659E+02  0.41800000000E+01 0.  1.
</event>
<event>
11    1  0.9238666E-009  0.1824209E+03  0.7561462E-02  0.1067701E+00
         22   -1    0    0    0    0  0.00000000000E+00  0.00000000000E+00  0.16981676087E+03  0.16981676087E+03  0.00000000000E+00 0.  1.
         22   -1    0    0    0    0 -0.00000000000E+00 -0.00000000000E+00 -0.28647801006E+04  0.28647801006E+04  0.00000000000E+00 0. -1.
        -24    2    1    2    0    0 -0.74232631978E+02 -0.21587570499E+02 -0.23832840786E+04  0.23859482310E+04  0.82033257222E+02 0.  0.
         25    2    1    2    0    0 -0.23747372929E+01  0.13242598649E+03 -0.42021573520E+03  0.45800291518E+03  0.12507247870E+03 0.  0.
         24    2    1    2    0    0  0.76607369271E+02 -0.11083841599E+03  0.10853647403E+03  0.19064571525E+03  0.80073585286E+02 0.  0.
        -13    1    5    5    0    0  0.66388311023E+02 -0.10170978742E+03  0.12148904343E+03  0.17179021035E+03  0.00000000000E+00 0.  1.
         14    1    5    5    0    0  0.10219058248E+02 -0.91286285676E+01 -0.12952569397E+02  0.18855504899E+02  0.00000000000E+00 0. -1.
         13    1    3    3    0    0 -0.79740362538E+02 -0.93086442576E+01 -0.23126809804E+04  0.23140740034E+04  0.00000000000E+00 0. -1.
        -14    1    3    3    0    0  0.55077305595E+01 -0.12278926242E+02 -0.70603098178E+02  0.71874227634E+02  0.00000000000E+00 0.  1.
          5    1    4    4  501    0 -0.46814992197E+02  0.12696473027E+03 -0.34133932161E+03  0.36720796711E+03  0.41800000000E+01 0. -1.
         -5    1    4    4    0  501  0.44440254904E+02  0.54612562232E+01 -0.78876413590E+02  0.90794948077E+02  0.41800000000E+01 0. -1.
</event>
<event>
11    1  0.9238666E-009  0.1605209E+03  0.7561462E-02  0.1086588E+00
         22   -1    0    0    0    0  0.00000000000E+00  0.00000000000E+00  0.20359392280E+04  0.20359392280E+04  0.00000000000E+00 0. -1.
         22   -1    0    0    0    0 -0.00000000000E+00 -0.00000000000E+00 -0.67267830779E+02  0.67267830779E+02  0.00000000000E+00 0.  1.
         24    2    1    2    0    0  0.72454679560E+02  0.62845648288E+02  0.23164748702E+02  0.12732352479E+03  0.80469983744E+02 0.  0.
         25    2    1    2    0    0 -0.13361626593E+03 -0.67069601075E+02  0.70935331441E+03  0.73565073849E+03  0.12509295132E+03 0.  0.
        -24    2    1    2    0    0  0.61161586370E+02  0.42239527869E+01  0.12361533342E+04  0.12402327955E+04  0.79647599909E+02 0.  0.
        -13    1    3    3    0    0  0.82874338429E+02  0.35479394385E+02  0.26511030106E+00  0.90149951078E+02  0.00000000000E+00 0.  1.
         14    1    3    3    0    0 -0.10419658869E+02  0.27366253903E+02  0.22899638401E+02  0.37173573712E+02  0.00000000000E+00 0. -1.
         11    1    5    5    0    0  0.11711414057E+02 -0.80984172856E+01  0.91088915798E+03  0.91100043892E+03  0.00000000000E+00 0. -1.
        -12    1    5    5    0    0  0.49450172313E+02  0.12322370072E+02  0.32526417617E+03  0.32923235662E+03  0.00000000000E+00 0.  1.
          5    1    4    4  501    0 -0.15696913640E+03 -0.67855596135E+02  0.61341573971E+03  0.63682025238E+03  0.41800000000E+01 0. -1.
         -5    1    4    4    0  501  0.23352870468E+02  0.78599506045E+00  0.95937574693E+02  0.98830486113E+02  0.41800000000E+01 0. -1.
</event>
<event>
11    1  0.9238666E-009  0.1689170E+03  0.7561462E-02  0.1078978E+00
         22   -1    0    0    0    0  0.00000000000E+00  0.00000000000E+00  0.11676355702E+04  0.11676355702E+04  0.00000000000E+00 0.  1.
         22   -1    0    0    0    0 -0.00000000000E+00 -0.00000000000E+00 -0.18600006903E+03  0.18600006903E+03  0.00000000000E+00 0. -1.
         24    2    1    2    0    0 -0.98923465324E+02 -0.69281219709E+02 -0.88089465883E+02  0.17078172363E+03  0.82588762727E+02 0.  0.
         25    2    1    2    0    0  0.89843591608E+02  0.33658184298E+02  0.58925054846E+02  0.16829811157E+03  0.12508935985E+03 0.  0.
        -24    2    1    2    0    0  0.90798737157E+01  0.35623035411E+02  0.10107999122E+04  0.10145558040E+04  0.79092175462E+02 0.  0.
        -13    1    3    3    0    0 -0.26834166852E+02 -0.51504189990E+02 -0.34313158000E+01  0.58176696583E+02  0.00000000000E+00 0.  1.
         14    1    3    3    0    0 -0.72089298472E+02 -0.17777029719E+02 -0.84658150083E+02  0.11260502704E+03  0.00000000000E+00 0. -1.
         11    1    5    5    0    0 -0.18450441954E+01  0.43579216108E+02  0.25993433917E+03  0.26356861145E+03  0.00000000000E+00 0. -1.
        -12    1    5    5    0    0  0.10924917911E+02 -0.79561806972E+01  0.75086557302E+03  0.75098719256E+03  0.00000000000E+00 0.  1.
          5    1    4    4  501    0 -0.22892780291E+02 -0.12880727464E+02  0.34965172455E+02  0.43932086386E+02  0.41800000000E+01 0. -1.
         -5    1    4    4    0  501  0.11273637190E+03  0.46538911762E+02  0.23959882391E+02  0.12436602519E+03  0.41800000000E+01 0. -1.
</event>
<event>
11    1  0.9238666E-009  0.1375288E+03  0.7561462E-02  0.1110350E+00
         22   -1    0    0    0    0  0.00000000000E+00  0.00000000000E+00  0.10035367908E+03  0.10035367908E+03  0.00000000000E+00 0. -1.
         22   -1    0    0    0    0 -0.00000000000E+00 -0.00000000000E+00 -0.12084820153E+04  0.12084820153E+04  0.00000000000E+00 0. -1.
        -24    2    1    2    0    0  0.14649860078E+02  0.25166526492E+02 -0.10448571851E+04  0.10484912097E+04  0.82215005062E+02 0.  0.
         25    2    1    2    0    0  0.29398231091E+02  0.20418655873E+02 -0.92463975516E+02  0.15961745184E+03  0.12508783579E+03 0.  0.
         24    2    1    2    0    0 -0.44048091169E+02 -0.45585182365E+02  0.29192824396E+02  0.10072703286E+03  0.72632437426E+02 0.  0.
        -11    1    5    5    0    0 -0.28006037277E+02  0.90889833541E+00 -0.17395270747E+02  0.32981201684E+02  0.00000000000E+00 0.  1.
         12    1    5    5    0    0 -0.16042053892E+02 -0.46494080700E+02  0.46588095143E+02  0.67745831180E+02  0.00000000000E+00 0. -1.
         11    1    3    3    0    0  0.46697255507E+02  0.10724717871E+02 -0.75339793642E+03  0.75491993208E+03  0.00000000000E+00 0. -1.
        -12    1    3    3    0    0 -0.32047395430E+02  0.14441808621E+02 -0.29145924865E+03  0.29357127757E+03  0.00000000000E+00 0.  1.
          5    1    4    4  501    0 -0.22056570888E+02 -0.42280951388E+02 -0.24837727681E+02  0.53931032681E+02  0.41800000000E+01 0.  1.
         -5    1    4    4    0  501  0.51454801980E+02  0.62699607261E+02 -0.67626247835E+02  0.10568641915E+03  0.41800000000E+01 0.  1.
</event>
<event>
11    1  0.9238666E-009  0.1599968E+03  0.7561462E-02  0.1087080E+00
         22   -1    0    0    0    0  0.00000000000E+00  0.00000000000E+00  0.16205857288E+03  0.16205857288E+03  0.00000000000E+00 0. -1.
         22   -1    0    0    0    0 -0.00000000000E+00 -0.00000000000E+00 -0.87897523061E+03  0.87897523061E+03  0.00000000000E+00 0.  1.
         24    2    1    2    0    0  0.87660154347E+02  0.42653019790E+02 -0.72454671643E+03  0.73551340567E+03  0.80674920951E+02 0.  0.
         25    2    1    2    0    0 -0.98232511644E+02 -0.87196001348E+02 -0.59423271969E+02  0.19087040047E+03  0.12509042941E+03 0.  0.
        -24    2    1    2    0    0  0.10572357298E+02  0.44542981558E+02  0.67053330673E+02  0.11464999735E+03  0.80948259981E+02 0.  0.
        -11    1    3    3    0    0  0.10301253118E+03  0.33543062874E+02 -0.60148072507E+03  0.61115937470E+03  0.00000000000E+00 0.  1.
         12    1    3    3    0    0 -0.15352376837E+02  0.91099569160E+01 -0.12306599136E+03  0.12435403097E+03  0.00000000000E+00 0. -1.
         11    1    5    5    0    0  0.57391087688E+01  0.25905244345E+02  0.84561003920E+02  0.88626082154E+02  0.00000000000E+00 0. -1.
        -12    1    5    5    0    0  0.48332485288E+01  0.18637737213E+02 -0.17507673247E+02  0.26023915199E+02  0.00000000000E+00 0.  1.
          5    1    4    4  501    0  0.49040906006E+01  0.25685969445E+02 -0.19198964022E+02  0.32709199784E+02  0.41800000000E+01 0. -1.
         -5    1    4    4    0  501 -0.10313660225E+03 -0.11288197079E+03 -0.40224307947E+02  0.15816120069E+03  0.41800000000E+01 0. -1.
</event>
<event>
11    1  0.9238666E-009  0.1328559E+03  0.7561462E-02  0.1115809E+00
         22   -1    0    0    0    0  0.00000000000E+00  0.00000000000E+00  0.17640155640E+04  0.17640155640E+04  0.00000000000E+00 0.  1.
         22   -1    0    0    0    0 -0.00000000000E+00 -0.00000000000E+00 -0.68093381125E+02  0.68093381125E+02  0.00000000000E+00 0. -1.
        -24    2    1    2    0    0  0.30760410871E+02  0.78665005033E+01 -0.23731923286E+02  0.89091988143E+02  0.79787802710E+02 0.  0.
         25    2    1    2    0    0 -0.68349329410E+02 -0.12871554010E+02  0.55038106368E+03  0.56868661449E+03  0.12509133666E+03 0.  0.
         24    2    1    2    0    0  0.37588918539E+02  0.50050535070E+01  0.11692730424E+04  0.11743303425E+04  0.10205061525E+03 0.  0.
        -13    1    5    5    0    0  0.12364817480E+02  0.53121203987E+02  0.58635019578E+03  0.58888139987E+03  0.00000000000E+00 0.  1.
         14    1    5    5    0    0  0.25224101059E+02 -0.48116150480E+02  0.58292284666E+03  0.58544894258E+03  0.00000000000E+00 0. -1.
         11    1    3    3    0    0  0.19535258746E+02  0.27934241146E+02 -0.45886152254E+02  0.57161937785E+02  0.00000000000E+00 0. -1.
        -12    1    3    3    0    0  0.11225152125E+02 -0.20067740643E+02  0.22154228968E+02  0.31930050358E+02  0.00000000000E+00 0.  1.
          5    1    4    4  501    0  0.16441700701E+02 -0.38933905380E+02  0.30067512154E+03  0.30365964437E+03  0.41800000000E+01 0.  1.
         -5    1    4    4    0  501 -0.84791030111E+02  0.26062351370E+02  0.24970594214E+03  0.26502697011E+03  0.41800000000E+01 0.  1.
</event>
<event>
11    1  0.9238666E-009  0.1476900E+03  0.7561462E-02  0.1099263E+00
         22   -1    0    0    0    0  0.00000000000E+00  0.00000000000E+00  0.30428414355E+03  0.30428414355E+03  0.00000000000E+00 0. -1.
         22   -1    0    0    0    0 -0.00000000000E+00 -0.00000000000E+00 -0.50107234284E+03  0.50107234284E+03  0.00000000000E+00 0.  1.
         24    2    1    2    0    0 -0.71500219164E+02  0.38340880983E+02 -0.40889286601E+03  0.42441650925E+03  0.79710055584E+02 0.  0.
         25    2    1    2    0    0  0.56958269987E+02 -0.15213339862E+02 -0.14282025088E+02  0.13902150849E+03  0.12508922157E+03 0.  0.
        -24    2    1    2    0    0  0.14541949177E+02 -0.23127541121E+02  0.22638669181E+03  0.24191846864E+03  0.80791458690E+02 0.  0.
        -13    1    3    3    0    0 -0.49930437589E+02  0.60620181880E+02 -0.33858046047E+03  0.34756953730E+03  0.00000000000E+00 0.  1.
         14    1    3    3    0    0 -0.21569781574E+02 -0.22279300897E+02 -0.70312405534E+02  0.76846971949E+02  0.00000000000E+00 0. -1.
         13    1    5    5    0    0  0.12291276843E+02 -0.49007122271E+02  0.19362020926E+03  0.20010387042E+03  0.00000000000E+00 0. -1.
        -14    1    5    5    0    0  0.22506723338E+01  0.25879581150E+02  0.32766482546E+02  0.41814598227E+02  0.00000000000E+00 0.  1.
          5    1    4    4  501    0  0.63189983800E+02  0.27018167695E+02  0.31996462361E+02  0.75922338227E+02  0.41800000000E+01 0. -1.
         -5    1    4    4    0  501 -0.62317138128E+01 -0.42231507558E+02 -0.46278487449E+02  0.63099170265E+02  0.41800000000E+01 0. -1.
</event>
<event>
11    1  0.9238666E-009  0.1714724E+03  0.7561462E-02  0.1076757E+00
         22   -1    0    0    0    0  0.00000000000E+00  0.00000000000E+00  0.52177977821E+03  0.52177977821E+03  0.00000000000E+00 0.  1.
         22   -1    0    0    0    0 -0.00000000000E+00 -0.00000000000E+00 -0.10917180446E+04  0.10917180446E+04  0.00000000000E+00 0.  1.
         24    2    1    2    0    0 -0.93523666438E+02 -0.72403409752E+02 -0.10448124943E+04  0.10546541573E+04  0.81690350153E+02 0.  0.
         25    2    1    2    0    0  0.52327695679E+02  0.70816978009E+02  0.12489065128E+03  0.19748001675E+03  0.12508976828E+03 0.  0.
        -24    2    1    2    0    0  0.41195970760E+02  0.15864317435E+01  0.34998357663E+03  0.36136364876E+03  0.79972232468E+02 0.  0.
        -13    1    3    3    0    0 -0.60681272894E+02 -0.59597480682E+02 -0.94462061752E+03  0.94844197905E+03  0.00000000000E+00 0.  1.
         14    1    3    3    0    0 -0.32842393544E+02 -0.12805929070E+02 -0.10019187682E+03  0.10621217828E+03  0.00000000000E+00 0. -1.
         11    1    5    5    0    0  0.52930768358E+02 -0.44679656455E+01  0.12279653089E+03  0.13379318725E+03  0.00000000000E+00 0. -1.
        -12    1    5    5    0    0 -0.11734797598E+02  0.60543973890E+01  0.22718704573E+03  0.22757046151E+03  0.00000000000E+00 0.  1.
          5    1    4    4  501    0  0.68995171263E+02 -0.24220359508E+01  0.92688619682E+02  0.11564969751E+03  0.41800000000E+01 0. -1.
         -5    1    4    4    0  501 -0.16667475584E+02  0.73239013960E+02  0.32202031602E+02  0.81830319243E+02  0.41800000000E+01 0. -1.
</event>
<event>
11    1  0.9238666E-009  0.1705392E+03  0.7561462E-02  0.1077563E+00
         22   -1    0    0    0    0  0.00000000000E+00  0.00000000000E+00  0.26298423489E+03  0.26298423489E+03  0.00000000000E+00 0.  1.
         22   -1    0    0    0    0 -0.00000000000E+00 -0.00000000000E+00 -0.27740208081E+03  0.27740208081E+03  0.00000000000E+00 0.  1.
         24    2    1    2    0    0  0.79666571924E+02  0.45189582588E+02 -0.69788931802E+02  0.14179677068E+03  0.82746408481E+02 0.  0.
         25    2    1    2    0    0 -0.13922375632E+03 -0.82693584015E+02 -0.85605234227E+02  0.22180588538E+03  0.12509241183E+03 0.  0.
        -24    2    1    2    0    0  0.59557184399E+02  0.37504001427E+02  0.14097632012E+03  0.17678365964E+03  0.80153173024E+02 0.  0.
        -11    1    3    3    0    0  0.75528322665E+02  0.66266424220E+00 -0.58871998795E+02  0.95764705871E+02  0.00000000000E+00 0.  1.
         12    1    3    3    0    0  0.41382492590E+01  0.44526918346E+02 -0.10916933008E+02  0.46032064809E+02  0.00000000000E+00 0. -1.
         13    1    5    5    0    0  0.16067479162E+02  0.34175181345E+02  0.10479973330E+02  0.39191028917E+02  0.00000000000E+00 0. -1.
        -14    1    5    5    0    0  0.43489705238E+02  0.33288200814E+01  0.13049634679E+03  0.13759263072E+03  0.00000000000E+00 0.  1.
          5    1    4    4  501    0 -0.28606004973E+02 -0.73572322360E+02  0.39211772906E+01  0.79145676883E+02  0.41800000000E+01 0. -1.
         -5    1    4    4    0  501 -0.11061775135E+03 -0.91212616549E+01 -0.89526411518E+02  0.14266020849E+03  0.41800000000E+01 0. -1.
</event>
<event>
11    1  0.9238666E-009  0.1463735E+03  0.7561462E-02  0.1100643E+00
         22   -1    0    0    0    0  0.00000000000E+00  0.00000000000E+00  0.81956788415E+02  0.81956788415E+02  0.00000000000E+00 0. -1.
         22   -1    0    0    0    0 -0.00000000000E+00 -0.00000000000E+00 -0.68928711391E+03  0.68928711391E+03  0.00000000000E+00 0.  1.
        -24    2    1    2    0    0  0.33546863631E+02 -0.50688589827E+02 -0.26297277224E+03  0.28089299248E+03  0.77791189001E+02 0.  0.
         25    2    1    2    0    0 -0.67191778105E+01 -0.28622622104E+02 -0.35099301306E+03  0.37377490566E+03  0.12508870069E+03 0.  0.
         24    2    1    2    0    0 -0.26827685821E+02  0.79311211930E+02  0.66354598037E+01  0.11657600418E+03  0.80845175243E+02 0.  0.
        -11    1    5    5    0    0  0.38863169790E+01 -0.15887288057E+02  0.78457388535E+00  0.16374520990E+02  0.00000000000E+00 0.  1.
         12    1    5    5    0    0 -0.30714002800E+02  0.95198499988E+02  0.58508859184E+01  0.10020148319E+03  0.00000000000E+00 0. -1.
         13    1    3    3    0    0 -0.18586220598E+01 -0.87640287299E+01  0.28998200018E+01  0.94165615584E+01  0.00000000000E+00 0. -1.
        -14    1    3    3    0    0  0.35405485691E+02 -0.41924561097E+02 -0.26587259224E+03  0.27147643092E+03  0.00000000000E+00 0.  1.
          5    1    4    4  501    0  0.40802878661E+02 -0.55210408765E+02 -0.14224130204E+03  0.15799722956E+03  0.41800000000E+01 0.  1.
         -5    1    4    4    0  501 -0.47522056472E+02  0.26587786661E+02 -0.20875171102E+03  0.21577767610E+03  0.41800000000E+01 0.  1.
</event>
<event>
11    1  0.9238666E-009  0.1312325E+03  0.7561462E-02  0.1117764E+00
         22   -1    0    0    0    0  0.00000000000E+00  0.00000000000E+00  0.54485519341E+03  0.54485519341E+03  0.00000000000E+00 0.  1.
         22   -1    0    0    0    0 -0.00000000000E+00 -0.00000000000E+00 -0.47453984747E+03  0.47453984747E+03  0.00000000000E+00 0.  1.
        -24    2    1    2    0    0 -0.10245664516E+02 -0.69530969900E+01 -0.44266294848E+03  0.45049345673E+03  0.82707613926E+02 0.  0.
         25    2    1    2    0    0  0.32938199629E+02  0.36007783446E+02  0.19038216828E+03  0.23296714792E+03  0.12508731569E+03 0.  0.
         24    2    1    2    0    0 -0.22692535113E+02 -0.29054686456E+02  0.32259612614E+03  0.33593443624E+03  0.86165880126E+02 0.  0.
        -13    1    5    5    0    0  0.48996778379E+01 -0.23382991409E+02  0.29673267841E+03  0.29769288464E+03  0.00000000000E+00 0.  1.
         14    1    5    5    0    0 -0.27592212951E+02 -0.56716950478E+01  0.25863447728E+02  0.38241551598E+02  0.00000000000E+00 0. -1.
         13    1    3    3    0    0 -0.31734283309E+02  0.27297101277E+02 -0.18493551385E+03  0.18961366185E+03  0.00000000000E+00 0. -1.
        -14    1    3    3    0    0  0.21488618793E+02 -0.34250198267E+02 -0.25772743462E+03  0.26087979488E+03  0.00000000000E+00 0.  1.
          5    1    4    4  501    0 -0.17049038617E+02 -0.35779482812E+02  0.97388088027E+02  0.10522715048E+03  0.41800000000E+01 0.  1.
         -5    1    4    4    0  501  0.49987238246E+02  0.71787266258E+02  0.92994080248E+02  0.12773999744E+03  0.41800000000E+01 0.  1.
</event>
<event>
11    1  0.9238666E-009  0.1573614E+03  0.7561462E-02  0.1089586E+00
         22   -1    0    0    0    0  0.00000000000E+00  0.00000000000E+00  0.89775861757E+03  0.89775861757E+03  0.00000000000E+00 0.  1.
         22   -1    0    0    0    0 -0.00000000000E+00 -0.00000000000E+00 -0.49490563195E+02  0.49490563195E+02  0.00000000000E+00 0. -1.
        -24    2    1    2    0    0 -0.28340679661E+01 -0.88593537935E+02  0.18144287892E+03  0.21683858706E+03  0.78997516554E+02 0.  0.
         25    2    1    2    0    0  0.12815565063E+02 -0.43897986044E+02  0.22441984390E+03  0.26096515832E+03  0.12508907080E+03 0.  0.
         24    2    1    2    0    0 -0.99814970969E+01  0.13249152398E+03  0.44240533156E+03  0.46944543539E+03  0.83683362788E+02 0.  0.
        -11    1    5    5    0    0  0.17788346946E+02  0.53360025237E+02  0.29081091282E+03  0.29620044665E+03  0.00000000000E+00 0.  1.
         12    1    5    5    0    0 -0.27769844042E+02  0.79131498742E+02  0.15159441874E+03  0.17324498874E+03  0.00000000000E+00 0. -1.
         11    1    3    3    0    0 -0.11818470444E+02 -0.64151870821E+02  0.48283523008E+02  0.81156868887E+02  0.00000000000E+00 0. -1.
        -12    1    3    3    0    0  0.89844024784E+01 -0.24441667114E+02  0.13315935591E+03  0.13568171817E+03  0.00000000000E+00 0.  1.
          5    1    4    4  501    0  0.40878634916E+02 -0.16034523079E+02  0.13211068198E+02  0.46045341196E+02  0.41800000000E+01 0. -1.
         -5    1    4    4    0  501 -0.28063069853E+02 -0.27863462965E+02  0.21120877570E+03  0.21491981712E+03  0.41800000000E+01 0. -1.
</event>
<event>
11    1  0.9238666E-009  0.1899895E+03  0.7561462E-02  0.1061837E+00
         22   -1    0    0    0    0  0.00000000000E+00  0.00000000000E+00  0.63303533961E+03  0.63303533961E+03  0.00000000000E+00 0.  1.
         22   -1    0    0    0    0 -0.00000000000E+00 -0.00000000000E+00 -0.74464978193E+03  0.74464978193E+03  0.00000000000E+00 0. -1.
        -24    2    1    2    0    0  0.12122718289E+03  0.77792559065E+02 -0.67867951406E+03  0.70032426803E+03  0.95396464643E+02 0.  0.
         25    2    1    2    0    0 -0.97022180582E+02 -0.85376567968E+02  0.10661336569E+03  0.20908221013E+03  0.12508596630E+03 0.  0.
         24    2    1    2    0    0 -0.24205002309E+02  0.75840089026E+01  0.46045170606E+03  0.46827864338E+03  0.81398494487E+02 0.  0.
        -11    1    5    5    0    0  0.24413166429E+01  0.34723525512E+02  0.34437167298E+03  0.34612646880E+03  0.00000000000E+00 0.  1.
         12    1    5    5    0    0 -0.26646318952E+02 -0.27139516609E+02  0.11608003307E+03  0.12215217458E+03  0.00000000000E+00 0. -1.
         11    1    3    3    0    0  0.49630182886E+02  0.73732951705E+02 -0.49916258026E+03  0.50701379148E+03  0.00000000000E+00 0. -1.
        -12    1    3    3    0    0  0.71597000005E+02  0.40596073599E+01 -0.17951693380E+03  0.19331047655E+03  0.00000000000E+00 0.  1.
          5    1    4    4  501    0  0.13980583416E+02 -0.62606888026E+02  0.54547395453E+02  0.84308777073E+02  0.41800000000E+01 0.  1.
         -5    1    4    4    0  501 -0.11100276400E+03 -0.22769679942E+02  0.52065970237E+02  0.12477343306E+03  0.41800000000E+01 0.  1.
</event>
<event>
11    1  0.9238666E-009  0.1706808E+03  0.7561462E-02  0.1077441E+00
         22   -1    0    0    0    0  0.00000000000E+00  0.00000000000E+00  0.74488372215E+03  0.74488372215E+03  0.00000000000E+00 0. -1.
         22   -1    0    0    0    0 -0.00000000000E+00 -0.00000000000E+00 -0.14025213515E+03  0.14025213515E+03  0.00000000000E+00 0. -1.
         24    2    1    2    0    0  0.45614060600E+02 -0.44996831329E+02 -0.69122943686E+02  0.12349879344E+03  0.79803591913E+02 0.  0.
         25    2    1    2    0    0  0.36364103572E+01  0.14373826107E+03  0.23966206124E+03  0.30620129466E+03  0.12508964018E+03 0.  0.
        -24    2    1    2    0    0 -0.49250470957E+02 -0.98741429741E+02  0.43409246945E+03  0.45543576920E+03  0.82522657490E+02 0.  0.
        -11    1    3    3    0    0 -0.30465850734E+01  0.85591219108E+01  0.11832185088E+02  0.14917803205E+02  0.00000000000E+00 0.  1.
         12    1    3    3    0    0  0.48660645673E+02 -0.53555953240E+02 -0.80955128775E+02  0.10858099023E+03  0.00000000000E+00 0. -1.
         13    1    5    5    0    0  0.14589371611E+02 -0.61925707498E+02  0.22001184954E+03  0.22902588707E+03  0.00000000000E+00 0. -1.
        -14    1    5    5    0    0 -0.63839842568E+02 -0.36815722243E+02  0.21408061992E+03  0.22640988213E+03  0.00000000000E+00 0.  1.
          5    1    4    4  501    0 -0.43831147791E+02  0.13261450929E+03  0.19539004047E+03  0.24021348402E+03  0.41800000000E+01 0.  1.
         -5    1    4    4    0  501  0.47467558148E+02  0.11123751780E+02  0.44272020770E+02  0.65987810642E+02  0.41800000000E+01 0.  1.
</event>
<event>
11    1  0.9238666E-009  0.1598134E+03  0.7561462E-02  0.1087253E+00
         22   -1    0    0    0    0  0.00000000000E+00  0.00000000000E+00  0.23475303557E+03  0.23475303557E+03  0.00000000000E+00 0. -1.
         22   -1    0    0    0    0 -0.00000000000E+00 -0.00000000000E+00 -0.10451563135E+04  0.10451563135E+04  0.00000000000E+00 0.  1.
         24    2    1    2    0    0  0.22729198702E+02  0.27376874373E+02 -0.84968856647E+03  0.85421801445E+03  0.80322141970E+02 0.  0.
         25    2    1    2    0    0  0.63074958924E+02 -0.78540588666E+02 -0.13941042161E+03  0.21267399363E+03  0.12509151611E+03 0.  0.
        -24    2    1    2    0    0 -0.85804157625E+02  0.51163714293E+02  0.17869571010E+03  0.21301734104E+03  0.58857044177E+02 0.  0.
        -13    1    3    3    0    0  0.48390678451E+02  0.26588198857E+02 -0.71332314295E+03  0.71545684450E+03  0.00000000000E+00 0.  1.
         14    1    3    3    0    0 -0.25661479749E+02  0.78867551605E+00 -0.13636542352E+03  0.13876116994E+03  0.00000000000E+00 0. -1.
         11    1    5    5    0    0 -0.68204664236E+02  0.51191726240E+02  0.17551070967E+03  0.19513195091E+03  0.00000000000E+00 0. -1.
        -12    1    5    5    0    0 -0.17599493390E+02 -0.28011947621E-01  0.31850004331E+01  0.17885390127E+02  0.00000000000E+00 0.  1.
          5    1    4    4  501    0 -0.24522141911E+01 -0.89985022811E+02 -0.10251841089E+03  0.13649474223E+03  0.41800000000E+01 0. -1.
         -5    1    4    4    0  501  0.65527173115E+02  0.11444434145E+02 -0.36892010715E+02  0.76179251400E+02  0.41800000000E+01 0. -1.
</event>
<event>
11    1  0.9238666E-009  0.2341620E+03  0.7561462E-02  0.1032692E+00
         22   -1    0    0    0    0  0.00000000000E+00  0.00000000000E+00  0.11824685209E+04  0.11824685209E+04  0.00000000000E+00 0.  1.
         22   -1    0    0    0    0 -0.00000000000E+00 -0.00000000000E+00 -0.41550416467E+03  0.41550416467E+03  0.00000000000E+00 0.  1.
         24    2    1    2    0    0  0.76050889324E+02  0.18168105514E+03 -0.32902474791E+03  0.39449048832E+03  0.92594368519E+02 0.  0.
         25    2    1    2    0    0 -0.54059462002E+02 -0.20115976554E+03  0.23487818296E+03  0.33794022328E+03  0.12509259361E+03 0.  0.
        -24    2    1    2    0    0 -0.21991427321E+02  0.19478710401E+02  0.86111092121E+03  0.86554197401E+03  0.82388391831E+02 0.  0.
        -11    1    3    3    0    0  0.76390794736E+02  0.19211314648E+03 -0.30708992021E+03  0.37019891095E+03  0.00000000000E+00 0.  1.
         12    1    3    3    0    0 -0.33990541188E+00 -0.10432091344E+02 -0.21934827691E+02  0.24291577374E+02  0.00000000000E+00 0. -1.
         11    1    5    5    0    0 -0.23525587787E+02 -0.29595327144E+02  0.42402336007E+03  0.42570546926E+03  0.00000000000E+00 0. -1.
        -12    1    5    5    0    0  0.15341604653E+01  0.49074037545E+02  0.43708756114E+03  0.43983650475E+03  0.00000000000E+00 0.  1.
          5    1    4    4  501    0  0.23521785333E+02 -0.67314838474E+02  0.13791134769E+03  0.15531121687E+03  0.41800000000E+01 0. -1.
         -5    1    4    4    0  501 -0.77581247335E+02 -0.13384492706E+03  0.96966835265E+02  0.18262900640E+03  0.41800000000E+01 0. -1.
</event>
<event>
11    1  0.9238666E-009  0.1579006E+03  0.7561462E-02  0.1089069E+00
         22   -1    0    0    0    0  0.00000000000E+00  0.00000000000E+00  0.18126845460E+04  0.18126845460E+04  0.00000000000E+00 0.  1.
         22   -1    0    0    0    0 -0.00000000000E+00 -0.00000000000E+00 -0.31679999753E+03  0.31679999753E+03  0.00000000000E+00 0. -1.
        -24    2    1    2    0    0  0.94931798086E+02 -0.81518113929E+01 -0.26715761161E+03  0.29492224768E+03  0.80792601263E+02 0.  0.
         25    2    1    2    0    0 -0.11971518978E+03 -0.54678539504E+02  0.20835574546E+03  0.27636000404E+03  0.12506504636E+03 0.  0.
         24    2    1    2    0    0  0.24783391696E+02  0.62830350897E+02  0.15546864146E+04  0.15582022918E+04  0.79891582211E+02 0.  0.
        -13    1    5    5    0    0  0.37032913430E+02  0.76091128972E+02  0.11476563804E+04  0.11507721165E+04  0.00000000000E+00 0.  1.
         14    1    5    5    0    0 -0.12249521734E+02 -0.13260778075E+02  0.40703003421E+03  0.40743017533E+03  0.00000000000E+00 0. -1.
         13    1    3    3    0    0  0.18877685452E+02  0.78805119923E+01 -0.16648169864E+03  0.16773379343E+03  0.00000000000E+00 0. -1.
        -14    1    3    3    0    0  0.76054112633E+02 -0.16032323385E+02 -0.10067591297E+03  0.12718845425E+03  0.00000000000E+00 0.  1.
          5    1    4    4  501    0  0.47623464606E+01  0.20966047623E+02 -0.24340900304E+00  0.21904034896E+02  0.41800000000E+01 0.  1.
         -5    1    4    4    0  501 -0.12447753624E+03 -0.75644587128E+02  0.20859915446E+03  0.25445596915E+03  0.41800000000E+01 0.  1.
</event>
<event>
11    1  0.9238666E-009  0.1263685E+03  0.7561462E-02  0.1123813E+00
         22   -1    0    0    0    0  0.00000000000E+00  0.00000000000E+00  0.55368730845E+03  0.55368730845E+03  0.00000000000E+00 0.  1.
         22   -1    0    0    0    0 -0.00000000000E+00 -0.00000000000E+00 -0.50952365340E+03  0.50952365340E+03  0.00000000000E+00 0.  1.
         24    2    1    2    0    0 -0.11418481945E+02  0.13894508097E+02 -0.47912908438E+03  0.48649018341E+03  0.82368561803E+02 0.  0.
         25    2    1    2    0    0  0.21935932379E+02 -0.52539721649E+01  0.15996507953E+03  0.20431129354E+03  0.12508192774E+03 0.  0.
        -24    2    1    2    0    0 -0.10517450434E+02 -0.86405359320E+01  0.36332765990E+03  0.37240948490E+03  0.80601242954E+02 0.  0.
        -11    1    3    3    0    0  0.12801751180E+02 -0.35050502039E+01 -0.42052629126E+03  0.42073570308E+03  0.00000000000E+00 0.  1.
         12    1    3    3    0    0 -0.24220233126E+02  0.17399558301E+02 -0.58602793124E+02  0.65754480331E+02  0.00000000000E+00 0. -1.
         13    1    5    5    0    0 -0.83998252453E+01 -0.21719920200E+02  0.26327496759E+02  0.35148955649E+02  0.00000000000E+00 0. -1.
        -14    1    5    5    0    0 -0.21176251885E+01  0.13079384268E+02  0.33700016314E+03  0.33726052925E+03  0.00000000000E+00 0.  1.
          5    1    4    4  501    0  0.83974672881E+01 -0.20168442523E+02  0.17651353949E+03  0.17790948697E+03  0.41800000000E+01 0. -1.
         -5    1    4    4    0  501  0.13538465091E+02  0.14914470358E+02 -0.16548459963E+02  0.26401806571E+02  0.41800000000E+01 0. -1.
</event>
<event>
11    1  0.9238666E-009  0.1790528E+03  0.7561462E-02  0.1070412E+00
         22   -1    0    0    0    0  0.00000000000E+00  0.00000000000E+00  0.19002207189E+04  0.19002207189E+04  0.00000000000E+00 0. -1.
         22   -1    0    0    0    0 -0.00000000000E+00 -0.00000000000E+00 -0.14556720021E+03  0.14556720021E+03  0.00000000000E+00 0.  1.
         24    2    1    2    0    0  0.87229807619E+02  0.94651227716E+02 -0.76659445605E+02  0.16995443141E+03  0.80249261110E+02 0.  0.
         25    2    1    2    0    0 -0.92054925305E+02 -0.82824023324E+02  0.34456226249E+03  0.38691735508E+03  0.12509180156E+03 0.  0.
        -24    2    1    2    0    0  0.48251176861E+01 -0.11827204392E+02  0.14867507018E+04  0.14889161326E+04  0.79249202743E+02 0.  0.
        -13    1    3    3    0    0  0.34350638011E+02  0.68522972241E+02 -0.80107126211E+02  0.11087161822E+03  0.00000000000E+00 0.  1.
         14    1    3    3    0    0  0.52879169608E+02  0.26128255474E+02  0.34476806061E+01  0.59082813187E+02  0.00000000000E+00 0. -1.
         13    1    5    5    0    0 -0.10899102519E+02 -0.43425049809E+02  0.77799464058E+03  0.77928184000E+03  0.00000000000E+00 0. -1.
        -14    1    5    5    0    0  0.15724220205E+02  0.31597845417E+02  0.70875606123E+03  0.70963429262E+03  0.00000000000E+00 0.  1.
          5    1    4    4  501    0 -0.70098962132E+02 -0.10274456237E+03  0.33180015303E+03  0.35437144854E+03  0.41800000000E+01 0. -1.
         -5    1    4    4    0  501 -0.21955963173E+02  0.19920539049E+02  0.12762109462E+02  0.32545906544E+02  0.41800000000E+01 0. -1.
</event>
<event>
11    1  0.9238666E-009  0.1508058E+03  0.7561462E-02  0.1096058E+00
         22   -1    0    0    0    0  0.00000000000E+00  0.00000000000E+00  0.20276897238E+03  0.20276897238E+03  0.00000000000E+00 0. -1.
         22   -1    0    0    0    0 -0.00000000000E+00 -0.00000000000E+00 -0.92460544578E+03  0.92460544578E+03  0.00000000000E+00 0. -1.
         24    2    1    2    0    0  0.76810821745E+02  0.27110845566E+02 -0.73103255525E+03  0.74005439282E+03  0.81467829380E+02 0.  0.
         25    2    1    2    0    0 -0.94785997063E+02 -0.55783148237E+02 -0.13784351029E+03  0.21620977823E+03  0.12509872105E+03 0.  0.
        -24    2    1    2    0    0  0.17975175318E+02  0.28672302672E+02  0.14703959213E+03  0.17111024710E+03  0.80702336647E+02 0.  0.
        -13    1    3    3    0    0 -0.12959233583E+02 -0.56645784873E+01 -0.39622251156E+02  0.42070797130E+02  0.00000000000E+00 0.  1.
         14    1    3    3    0    0  0.89770055328E+02  0.32775424053E+02 -0.69141030409E+03  0.69798359569E+03  0.00000000000E+00 0. -1.
         11    1    5    5    0    0 -0.28899605245E+02  0.86251927728E+01  0.88422323818E+02  0.93424239269E+02  0.00000000000E+00 0. -1.
        -12    1    5    5    0    0  0.46874780563E+02  0.20047109899E+02  0.58617268317E+02  0.77686007833E+02  0.00000000000E+00 0.  1.
          5    1    4    4  501    0  0.28588897578E+02  0.39830412227E+01 -0.28834801204E+02  0.41013508050E+02  0.41800000000E+01 0. -1.
         -5    1    4    4    0  501 -0.12337489464E+03 -0.59766189460E+02 -0.10900870908E+03  0.17519627018E+03  0.41800000000E+01 0. -1.
</event>
<event>
11    1  0.9238666E-009  0.1416349E+03  0.7561462E-02  0.1105746E+00
         22   -1    0    0    0    0  0.00000000000E+00  0.00000000000E+00  0.26757647995E+03  0.26757647995E+03  0.00000000000E+00 0.  1.
         22   -1    0    0    0    0 -0.00000000000E+00 -0.00000000000E+00 -0.67454132238E+03  0.67454132238E+03  0.00000000000E+00 0. -1.
         24    2    1    2    0    0  0.13561557113E+02  0.39704515035E+02 -0.55777261035E+03  0.56430001289E+03  0.74591255155E+02 0.  0.
         25    2    1    2    0    0 -0.84041442665E+01 -0.10141681644E+03 -0.35466774224E+02  0.16510937243E+03  0.12508881841E+03 0.  0.
        -24    2    1    2    0    0 -0.51574128467E+01  0.61712301407E+02  0.18627454215E+03  0.21270841700E+03  0.81924712737E+02 0.  0.
        -11    1    3    3    0    0 -0.92863442037E+00 -0.21698854743E+02 -0.11216499469E+03  0.11424836407E+03  0.00000000000E+00 0.  1.
         12    1    3    3    0    0  0.14490191534E+02  0.61403369778E+02 -0.44560761567E+03  0.45005164883E+03  0.00000000000E+00 0. -1.
         13    1    5    5    0    0 -0.21262758906E+02 -0.52710670476E+01  0.11277175883E+02  0.24638663925E+02  0.00000000000E+00 0. -1.
        -14    1    5    5    0    0  0.16105346059E+02  0.66983368455E+02  0.17499736627E+03  0.18806975308E+03  0.00000000000E+00 0.  1.
          5    1    4    4  501    0  0.18086108566E+02 -0.64734579106E+02  0.39038586633E+02  0.77840585181E+02  0.41800000000E+01 0.  1.
         -5    1    4    4    0  501 -0.26490252832E+02 -0.36682237337E+02 -0.74505360857E+02  0.87268787247E+02  0.41800000000E+01 0.  1.
</event>
<event>
11    1  0.9238666E-009  0.1502615E+03  0.7561462E-02  0.1096612E+00
         22   -1    0    0    0    0  0.00000000000E+00  0.00000000000E+00  0.26191942081E+04  0.26191942081E+04  0.00000000000E+00 0. -1.
         22   -1    0    0    0    0 -0.00000000000E+00 -0.00000000000E+00 -0.21063483237E+03  0.21063483237E+03  0.00000000000E+00 0. -1.
        -24    2    1    2    0    0 -0.46532128463E+00 -0.18273918759E+02 -0.18766759405E+03  0.20450008660E+03  0.79164429695E+02 0.  0.
         25    2    1    2    0    0 -0.80723136433E+02  0.34900524090E+02  0.43678531834E+03  0.46278028085E+03  0.12509957110E+03 0.  0.
         24    2    1    2    0    0  0.81188457717E+02 -0.16626605331E+02  0.21594416514E+04  0.21625486730E+04  0.80996959864E+02 0.  0.
        -13    1    5    5    0    0  0.40202133802E+01  0.14504247022E+01  0.47106549916E+01  0.63605123920E+01  0.00000000000E+00 0.  1.
         14    1    5    5    0    0  0.77168244337E+02 -0.18077030033E+02  0.21547309964E+04  0.21561881606E+04  0.00000000000E+00 0. -1.
         11    1    3    3    0    0 -0.36166366246E+02 -0.13855596388E+02 -0.13694286591E+03  0.14231420211E+03  0.00000000000E+00 0. -1.
        -12    1    3    3    0    0  0.35701044962E+02 -0.44183223707E+01 -0.50724728145E+02  0.62185884486E+02  0.00000000000E+00 0.  1.
          5    1    4    4  501    0 -0.98457109297E+02  0.50288741461E+02  0.23671269506E+03  0.26129127864E+03  0.41800000000E+01 0.  1.
         -5    1    4    4    0  501  0.17733972864E+02 -0.15388217371E+02  0.20007262328E+03  0.20148900222E+03  0.41800000000E+01 0.  1.
</event>
<event>
11    1  0.9238666E-009  0.1297700E+03  0.7561462E-02  0.1119552E+00
         22   -1    0    0    0    0  0.00000000000E+00  0.00000000000E+00  0.62751416038E+03  0.62751416038E+03  0.00000000000E+00 0.  1.
         22   -1    0    0    0    0 -0.00000000000E+00 -0.00000000000E+00 -0.27250525835E+03  0.27250525835E+03  0.00000000000E+00 0. -1.
         24    2    1    2    0    0  0.19189987573E+02  0.29801978962E+01 -0.21949393889E+03  0.23464467523E+03  0.80643643268E+02 0.  0.
         25    2    1    2    0    0 -0.31995814704E+02 -0.34152570872E+02  0.65223790412E+02  0.14862914066E+03  0.12508536430E+03 0.  0.
        -24    2    1    2    0    0  0.12805827132E+02  0.31172372976E+02  0.50927905050E+03  0.51674560284E+03  0.80778466983E+02 0.  0.
        -11    1    3    3    0    0  0.26760080476E+02  0.80909214307E+01 -0.18679759036E+02  0.33622883789E+02  0.00000000000E+00 0.  1.
         12    1    3    3    0    0 -0.75700929032E+01 -0.51107235345E+01 -0.20081417985E+03  0.20102179144E+03  0.00000000000E+00 0. -1.
         11    1    5    5    0    0  0.34679479815E+02  0.24769715750E+01  0.40323720041E+03  0.40473329675E+03  0.00000000000E+00 0. -1.
        -12    1    5    5    0    0 -0.21873652683E+02  0.28695401401E+02  0.10604185010E+03  0.11201230609E+03  0.00000000000E+00 0.  1.
          5    1    4    4  501    0 -0.28170072098E+02 -0.75439909653E+02  0.69870833895E+02  0.10669647960E+03  0.41800000000E+01 0. -1.
         -5    1    4    4    0  501 -0.38257426056E+01  0.41287338781E+02 -0.46470434836E+01  0.41932661056E+02  0.41800000000E+01 0. -1.
</event>
<event>
11    1  0.9238666E-009  0.2183717E+03  0.7561462E-02  0.1042242E+00
         22   -1    0    0    0    0  0.00000000000E+00  0.00000000000E+00  0.41521437623E+03  0.41521437623E+03  0.00000000000E+00 0. -1.
         22   -1    0    0    0    0 -0.00000000000E+00 -0.00000000000E+00 -0.34917981417E+04  0.34917981417E+04  0.00000000000E+00 0.  1.
         24    2    1    2    0    0  0.82419281335E+02  0.23056830850E+02 -0.26032986159E+04  0.26059376465E+04  0.80142239047E+02 0.  0.
         25    2    1    2    0    0  0.56815290834E+02  0.92768432517E+02 -0.85513382468E+03  0.87105395401E+03  0.12508866192E+03 0.  0.
        -24    2    1    2    0    0 -0.13923457217E+03 -0.11582526337E+03  0.38184867517E+03  0.43002091736E+03  0.79421791170E+02 0.  0.
        -13    1    3    3    0    0 -0.42243788605E+01  0.23426260513E+01 -0.10948964186E+04  0.10949070741E+04  0.00000000000E+00 0.  1.
         14    1    3    3    0    0  0.86643660196E+02  0.20714204799E+02 -0.15084021973E+04  0.15110305725E+04  0.00000000000E+00 0. -1.
         11    1    5    5    0    0 -0.11672473179E+03 -0.12659831793E+03  0.32137771832E+03  0.36460311977E+03  0.00000000000E+00 0. -1.
        -12    1    5    5    0    0 -0.22509840376E+02  0.10773054561E+02  0.60470956850E+02  0.65417797583E+02  0.00000000000E+00 0.  1.
          5    1    4    4  501    0  0.31148089924E+02  0.12073949014E+03 -0.71526221971E+03  0.72606180407E+03  0.41800000000E+01 0. -1.
         -5    1    4    4    0  501  0.25667200909E+02 -0.27971057625E+02 -0.13987160497E+03  0.14499214993E+03  0.41800000000E+01 0. -1.
</event>
<event>
11    1  0.9785415E-009  0.1618932E+03  0.7561462E-02  0.1085310E+00
         22   -1    0    0    0    0  0.00000000000E+00  0.00000000000E+00  0.25615387843E+03  0.25615387843E+03  0.00000000000E+00 0. -1.
         22   -1    0    0    0    0 -0.00000000000E+00 -0.00000000000E+00 -0.21319714422E+04  0.21319714422E+04  0.00000000000E+00 0.  1.
        -24    2    1    2    0    0  0.13755453288E+01 -0.14763810175E+01 -0.16184655165E+04  0.16204846625E+04  0.80844552241E+02 0.  0.
         25    2    1    2    0    0 -0.46329342544E+02  0.93821616795E+02 -0.48152050474E+03  0.50838789406E+03  0.12508937039E+03 0.  0.
         24    2    1    2    0    0  0.44953797215E+02 -0.92345235777E+02  0.22416845746E+03  0.25925276402E+03  0.80075039041E+02 0.  0.
        -13    1    5    5    0    0  0.29032290322E+02  0.66088078591E+01  0.45070466025E+02  0.54017563166E+02  0.00000000000E+00 0.  1.
         14    1    5    5    0    0  0.15921506893E+02 -0.98954043636E+02  0.17909799144E+03  0.20523520086E+03  0.00000000000E+00 0. -1.
         11    1    3    3    0    0 -0.34007240470E+00 -0.18347633300E+02 -0.86492105541E+02  0.88417394317E+02  0.00000000000E+00 0. -1.
        -12    1    3    3    0    0  0.17156177335E+01  0.16871252282E+02 -0.15319734110E+04  0.15320672682E+04  0.00000000000E+00 0.  1.
          5    1    4    4  501    0  0.25038890916E+00  0.10604130504E+03 -0.39782868573E+03  0.41174015673E+03  0.41800000000E+01 0.  1.
         -5    1    4    4    0  501 -0.46579731453E+02 -0.12219688246E+02 -0.83691819010E+02  0.96647737336E+02  0.41800000000E+01 0.  1.
</event>
<event>
11    1  0.9238666E-009  0.1283868E+03  0.7561462E-02  0.1121267E+00
         22   -1    0    0    0    0  0.00000000000E+00  0.00000000000E+00  0.83007470142E+03  0.83007470142E+03  0.00000000000E+00 0. -1.
         22   -1    0    0    0    0 -0.00000000000E+00 -0.00000000000E+00 -0.67249811860E+03  0.67249811860E+03  0.00000000000E+00 0. -1.
         24    2    1    2    0    0 -0.24076453746E+02  0.14484955400E+02 -0.61751389054E+03  0.62343007180E+03  0.80945412805E+02 0.  0.
         25    2    1    2    0    0  0.39196345112E+02 -0.40407243172E+02  0.43490571533E+02  0.14390307506E+03  0.12509023315E+03 0.  0.
        -24    2    1    2    0    0 -0.15119891366E+02  0.25922287772E+02  0.73159990182E+03  0.73523967316E+03  0.66621201758E+02 0.  0.
        -13    1    3    3    0    0 -0.23200939366E+02  0.36934333145E+02 -0.17526039910E+03  0.18060630123E+03  0.00000000000E+00 0.  1.
         14    1    3    3    0    0 -0.87551437979E+00 -0.22449377745E+02 -0.44225349144E+03  0.44282377056E+03  0.00000000000E+00 0. -1.
         13    1    5    5    0    0 -0.12829276141E+02  0.60060254298E+01  0.67578793400E+03  0.67593638341E+03  0.00000000000E+00 0. -1.
        -14    1    5    5    0    0 -0.22906152254E+01  0.19916262342E+02  0.55811967819E+02  0.59303289754E+02  0.00000000000E+00 0.  1.
          5    1    4    4  501    0 -0.44685635610E+00  0.83514975526E+01  0.73532778019E+02  0.74124820641E+02  0.41800000000E+01 0. -1.
         -5    1    4    4    0  501  0.39643201468E+02 -0.48758740724E+02 -0.30042206485E+02  0.69778254422E+02  0.41800000000E+01 0. -1.
</event>
<event>
11    1  0.9238666E-009  0.1531531E+03  0.7561462E-02  0.1093700E+00
         22   -1    0    0    0    0  0.00000000000E+00  0.00000000000E+00  0.10444315425E+04  0.10444315425E+04  0.00000000000E+00 0. -1.
         22   -1    0    0    0    0 -0.00000000000E+00 -0.00000000000E+00 -0.34797397103E+03  0.34797397103E+03  0.00000000000E+00 0.  1.
        -24    2    1    2    0    0 -0.20749822544E+02 -0.19878266124E+02 -0.27925233229E+03  0.29187939174E+03  0.79912537430E+02 0.  0.
         25    2    1    2    0    0  0.10015630549E+02  0.10670206262E+03  0.55084647381E+02  0.17369736557E+03  0.12510321102E+03 0.  0.
         24    2    1    2    0    0  0.10734191995E+02 -0.86823796499E+02  0.92062525642E+03  0.92682875625E+03  0.61701589390E+02 0.  0.
        -11    1    5    5    0    0  0.22098876455E+02 -0.35720525839E+01  0.23840755498E+03  0.23945622183E+03  0.00000000000E+00 0.  1.
         12    1    5    5    0    0 -0.11364684460E+02 -0.83251743915E+02  0.68221770144E+03  0.68737253442E+03  0.00000000000E+00 0. -1.
         11    1    3    3    0    0 -0.26123114565E+02  0.20387347626E+02 -0.56892097569E+02  0.65838984072E+02  0.00000000000E+00 0. -1.
        -12    1    3    3    0    0  0.53732920205E+01 -0.40265613749E+02 -0.22236023472E+03  0.22604040767E+03  0.00000000000E+00 0.  1.
          5    1    4    4  501    0 -0.47020421679E+02  0.96514592730E+01  0.34311270769E+02  0.59150709402E+02  0.41800000000E+01 0.  1.
         -5    1    4    4    0  501  0.57036052228E+02  0.97050603349E+02  0.20773376611E+02  0.11454665617E+03  0.41800000000E+01 0.  1.
</event>
<event>
11    1  0.9238666E-009  0.1396647E+03  0.7561462E-02  0.1107933E+00
         22   -1    0    0    0    0  0.00000000000E+00  0.00000000000E+00  0.12938890786E+03  0.12938890786E+03  0.00000000000E+00 0.  1.
         22   -1    0    0    0    0 -0.00000000000E+00 -0.00000000000E+00 -0.28006413199E+04  0.28006413199E+04  0.00000000000E+00 0.  1.
        -24    2    1    2    0    0 -0.22032782038E+02  0.53459990562E+02 -0.23864983682E+04  0.23887153995E+04  0.85108076053E+02 0.  0.
         25    2    1    2    0    0  0.17530989504E+02  0.11478448744E+02 -0.38029489955E+03  0.40088709537E+03  0.12508861753E+03 0.  0.
         24    2    1    2    0    0  0.45017925339E+01 -0.64938439306E+02  0.95540855691E+02  0.14042773285E+03  0.79715908145E+02 0.  0.
        -11    1    5    5    0    0  0.38703604552E+02 -0.15620667783E+02  0.49740976160E+02  0.64931802506E+02  0.00000000000E+00 0.  1.
         12    1    5    5    0    0 -0.34201812018E+02 -0.49317771522E+02  0.45799879531E+02  0.75495930343E+02  0.00000000000E+00 0. -1.
         13    1    3    3    0    0  0.23470078850E+02  0.50522108098E+02 -0.11007334426E+04  0.11021422048E+04  0.00000000000E+00 0. -1.
        -14    1    3    3    0    0 -0.45502860887E+02  0.29378824642E+01 -0.12857649256E+04  0.12865731948E+04  0.00000000000E+00 0.  1.
          5    1    4    4  501    0  0.30545448113E+02  0.88761613257E+01 -0.38489644467E+03  0.38623122111E+03  0.41800000000E+01 0.  1.
         -5    1    4    4    0  501 -0.13014458609E+02  0.26022874180E+01  0.46015451276E+01  0.14655874258E+02  0.41800000000E+01 0.  1.
</event>
<event>
11    1  0.9238666E-009  0.1304646E+03  0.7561462E-02  0.1118699E+00
         22   -1    0    0    0    0  0.00000000000E+00  0.00000000000E+00  0.27491636533E+03  0.27491636533E+03  0.00000000000E+00 0.  1.
         22   -1    0    0    0    0 -0.00000000000E+00 -0.00000000000E+00 -0.89671602312E+03  0.89671602312E+03  0.00000000000E+00 0.  1.
         24    2    1    2    0    0  0.11054117717E+02 -0.49773239193E+01 -0.84138788883E+03  0.84509678874E+03  0.78153922528E+02 0.  0.
         25    2    1    2    0    0  0.12396655634E+02  0.34359141274E+02  0.58407843655E+02  0.14280966506E+03  0.12509554977E+03 0.  0.
        -24    2    1    2    0    0 -0.23450773351E+02 -0.29381817355E+02  0.16118038738E+03  0.18372593465E+03  0.79767611385E+02 0.  0.
        -11    1    3    3    0    0  0.15183031581E+02  0.62471126369E+01 -0.82298701595E+03  0.82315076340E+03  0.00000000000E+00 0.  1.
         12    1    3    3    0    0 -0.41289138645E+01 -0.11224436556E+02 -0.18400872879E+02  0.21946025344E+02  0.00000000000E+00 0. -1.
         11    1    5    5    0    0  0.24793644486E+02  0.91145299960E+01  0.51036823462E+02  0.57467876358E+02  0.00000000000E+00 0. -1.
        -12    1    5    5    0    0 -0.48244417837E+02 -0.38496347351E+02  0.11014356392E+03  0.12625805829E+03  0.00000000000E+00 0.  1.
          5    1    4    4  501    0  0.26152909199E+02  0.78746537005E+02  0.43793579114E+02  0.93916674353E+02  0.41800000000E+01 0.  1.
         -5    1    4    4    0  501 -0.13756253565E+02 -0.44387395730E+02  0.14614264541E+02  0.48892990703E+02  0.41800000000E+01 0.  1.
</event>
<event>
11    1  0.9238666E-009  0.1792625E+03  0.7561462E-02  0.1070241E+00
         22   -1    0    0    0    0  0.00000000000E+00  0.00000000000E+00  0.19546633580E+04  0.19546633580E+04  0.00000000000E+00 0.  1.
         22   -1    0    0    0    0 -0.00000000000E+00 -0.00000000000E+00 -0.41604902483E+03  0.41604902483E+03  0.00000000000E+00 0.  1.
         24    2    1    2    0    0 -0.19497670540E+02  0.12813361330E+03 -0.38971646943E+03  0.41791918415E+03  0.77324872595E+02 0.  0.
         25    2    1    2    0    0  0.44462686200E+02 -0.74530796410E+02  0.55000447937E+03  0.57068778839E+03  0.12509138424E+03 0.  0.
        -24    2    1    2    0    0 -0.24965015660E+02 -0.53602816889E+02  0.13783263233E+04  0.13821054103E+04  0.83279036192E+02 0.  0.
        -11    1    3    3    0    0  0.10739611774E+02  0.11246627486E+03 -0.33430422787E+03  0.35287861796E+03  0.00000000000E+00 0.  1.
         12    1    3    3    0    0 -0.30237282314E+02  0.15667338442E+02 -0.55412241555E+02  0.65040566186E+02  0.00000000000E+00 0. -1.
         13    1    5    5    0    0  0.76427648229E+01  0.54714371515E+01  0.19941056456E+02  0.22045276393E+02  0.00000000000E+00 0. -1.
        -14    1    5    5    0    0 -0.32607780483E+02 -0.59074254041E+02  0.13583852668E+04  0.13600601339E+04  0.00000000000E+00 0.  1.
          5    1    4    4  501    0 -0.43380200244E+02 -0.30990060801E+02  0.16966449783E+03  0.17789249525E+03  0.41800000000E+01 0.  1.
         -5    1    4    4    0  501  0.87842886444E+02 -0.43540735609E+02  0.38033998154E+03  0.39279529315E+03  0.41800000000E+01 0.  1.
</event>
<event>
11    1  0.9238666E-009  0.1366829E+03  0.7561462E-02  0.1111320E+00
         22   -1    0    0    0    0  0.00000000000E+00  0.00000000000E+00  0.11504302177E+04  0.11504302177E+04  0.00000000000E+00 0. -1.
         22   -1    0    0    0    0 -0.00000000000E+00 -0.00000000000E+00 -0.10717297240E+03  0.10717297240E+03  0.00000000000E+00 0. -1.
        -24    2    1    2    0    0 -0.16372847037E+02  0.33781843174E+02 -0.51091507734E+02  0.10243389899E+03  0.80455443884E+02 0.  0.
         25    2    1    2    0    0  0.54938698872E+02 -0.68976278212E+02  0.18188291809E+03  0.23770796806E+03  0.12509074546E+03 0.  0.
         24    2    1    2    0    0 -0.38565851835E+02  0.35194435037E+02  0.91246583492E+03  0.91746132301E+03  0.80096230552E+02 0.  0.
        -11    1    5    5    0    0 -0.90586619640E+01  0.31808171480E+01  0.97059794971E+01  0.13652215656E+02  0.00000000000E+00 0.  1.
         12    1    5    5    0    0 -0.29507189871E+02  0.32013617890E+02  0.90275985542E+03  0.90380910736E+03  0.00000000000E+00 0. -1.
         13    1    3    3    0    0 -0.26023815827E+02  0.28965742332E+02 -0.70323187459E+02  0.80384102367E+02  0.00000000000E+00 0. -1.
        -14    1    3    3    0    0  0.96509687896E+01  0.48161008422E+01  0.19231679724E+02  0.22049796619E+02  0.00000000000E+00 0.  1.
          5    1    4    4  501    0  0.79200146117E+02  0.51679491954E+00  0.95678760542E+02  0.12427722173E+03  0.41800000000E+01 0. -1.
         -5    1    4    4    0  501 -0.24261447245E+02 -0.69493073131E+02  0.86204157544E+02  0.11343074633E+03  0.41800000000E+01 0. -1.
</event>
<event>
11    1  0.9238666E-009  0.1814616E+03  0.7561462E-02  0.1068467E+00
         22   -1    0    0    0    0  0.00000000000E+00  0.00000000000E+00  0.12248342673E+03  0.12248342673E+03  0.00000000000E+00 0.  1.
         22   -1    0    0    0    0 -0.00000000000E+00 -0.00000000000E+00 -0.80218663678E+03  0.80218663678E+03  0.00000000000E+00 0. -1.
        -24    2    1    2    0    0  0.12405709029E+03 -0.45852066107E+02 -0.60466666349E+03  0.62412245411E+03  0.80090512350E+02 0.  0.
         25    2    1    2    0    0 -0.96014395519E+02  0.94212598773E+02  0.20327661100E+01  0.18370021942E+03  0.12508741168E+03 0.  0.
         24    2    1    2    0    0 -0.28042694768E+02 -0.48360532666E+02 -0.77069312671E+02  0.11684738999E+03  0.67738465743E+02 0.  0.
        -11    1    5    5    0    0 -0.49379934855E+02 -0.22427078669E+02 -0.46737362151E+02  0.71594223543E+02  0.00000000000E+00 0.  1.
         12    1    5    5    0    0  0.21337240087E+02 -0.25933453997E+02 -0.30331950521E+02  0.45253166443E+02  0.00000000000E+00 0. -1.
         13    1    3    3    0    0  0.88171138047E+02 -0.22853498321E+02 -0.53309464901E+03  0.54082005951E+03  0.00000000000E+00 0. -1.
        -14    1    3    3    0    0  0.35885952241E+02 -0.22998567786E+02 -0.71572014487E+02  0.83302394600E+02  0.00000000000E+00 0.  1.
          5    1    4    4  501    0 -0.97524569263E+02  0.55194308803E+02 -0.46390154309E+02  0.12135473683E+03  0.41800000000E+01 0.  1.
         -5    1    4    4    0  501  0.15101737442E+01  0.39018289970E+02  0.48422920419E+02  0.62345482586E+02  0.41800000000E+01 0.  1.
</event>
<event>
11    1  0.1255172E-008  0.1512833E+03  0.7561462E-02  0.1095575E+00
         22   -1    0    0    0    0  0.00000000000E+00  0.00000000000E+00  0.82643254856E+03  0.82643254856E+03  0.00000000000E+00 0. -1.
         22   -1    0    0    0    0 -0.00000000000E+00 -0.00000000000E+00 -0.12365539770E+04  0.12365539770E+04  0.00000000000E+00 0. -1.
        -24    2    1    2    0    0  0.14739305048E+00  0.52922967136E+02 -0.91153877747E+03  0.91722523844E+03  0.87168417490E+02 0.  0.
         25    2    1    2    0    0  0.84134699004E+02 -0.40469445370E+02 -0.29881274049E+03  0.33712107029E+03  0.12508052834E+03 0.  0.
         24    2    1    2    0    0 -0.84282092054E+02 -0.12453521766E+02  0.80023008956E+03  0.80864021681E+03  0.79197492106E+02 0.  0.
        -13    1    5    5    0    0 -0.23962587883E+02 -0.38598701797E+02  0.21622200745E+03  0.22094348124E+03  0.00000000000E+00 0.  1.
         14    1    5    5    0    0 -0.60319504171E+02  0.26145180031E+02  0.58400808211E+03  0.58769673557E+03  0.00000000000E+00 0. -1.
         11    1    3    3    0    0  0.67824176820E+00  0.62078420388E+02 -0.90147300321E+03  0.90360819264E+03  0.00000000000E+00 0. -1.
        -12    1    3    3    0    0 -0.53084871772E+00 -0.91554532523E+01 -0.10065774261E+02  0.13617045791E+02  0.00000000000E+00 0.  1.
          5    1    4    4  501    0  0.97821745562E+02 -0.53225054302E+02 -0.14889039532E+03  0.18597801625E+03  0.41800000000E+01 0. -1.
         -5    1    4    4    0  501 -0.13687046558E+02  0.12755608931E+02 -0.14992234517E+03  0.15114305404E+03  0.41800000000E+01 0. -1.
</event>
<event>
11    1  0.9238666E-009  0.1712628E+03  0.7561462E-02  0.1076938E+00
         22   -1    0    0    0    0  0.00000000000E+00  0.00000000000E+00  0.15187383507E+04  0.15187383507E+04  0.00000000000E+00 0.  1.
         22   -1    0    0    0    0 -0.00000000000E+00 -0.00000000000E+00 -0.16843018763E+03  0.16843018763E+03  0.00000000000E+00 0. -1.
        -24    2    1    2    0    0 -0.87334636503E+02 -0.92144371349E+02 -0.10799499537E+03  0.18483520383E+03  0.79894991356E+02 0.  0.
         25    2    1    2    0    0  0.54396150621E+02  0.21589650833E+02  0.22527191977E+03  0.26423215164E+03  0.12508452303E+03 0.  0.
         24    2    1    2    0    0  0.32938485882E+02  0.70554720516E+02  0.12330312387E+04  0.12381011829E+04  0.80408898744E+02 0.  0.
        -13    1    5    5    0    0 -0.23395712478E+02  0.43122973578E+02  0.57956126131E+03  0.58163408241E+03  0.00000000000E+00 0.  1.
         14    1    5    5    0    0  0.56334198360E+02  0.27431746938E+02  0.65346997742E+03  0.65646710050E+03  0.00000000000E+00 0. -1.
         13    1    3    3    0    0 -0.10991892489E+02 -0.44345058277E+02 -0.77085060156E+02  0.89606988529E+02  0.00000000000E+00 0. -1.
        -14    1    3    3    0    0 -0.76342744014E+02 -0.47799313071E+02 -0.30909935218E+02  0.95228215299E+02  0.00000000000E+00 0.  1.
          5    1    4    4  501    0  0.79216737133E+02 -0.14336924597E+02  0.84501506355E+02  0.11678534080E+03  0.41800000000E+01 0. -1.
         -5    1    4    4    0  501 -0.24820586512E+02  0.35926575430E+02  0.14077041341E+03  0.14744681085E+03  0.41800000000E+01 0. -1.
</event>
<event>
11    1  0.9238666E-009  0.1385615E+03  0.7561462E-02  0.1109175E+00
         22   -1    0    0    0    0  0.00000000000E+00  0.00000000000E+00  0.39139921017E+04  0.39139921017E+04  0.00000000000E+00 0. -1.
         22   -1    0    0    0    0 -0.00000000000E+00 -0.00000000000E+00 -0.23433478440E+03  0.23433478440E+03  0.00000000000E+00 0. -1.
        -24    2    1    2    0    0 -0.51599774184E+02 -0.29204070759E+02 -0.21483658756E+03  0.23708571133E+03  0.80866932163E+02 0.  0.
         25    2    1    2    0    0  0.72395071405E+02  0.31499593781E+02  0.68840405996E+03  0.70411740810E+03  0.12509158185E+03 0.  0.
         24    2    1    2    0    0 -0.20795297221E+02 -0.22955230220E+01  0.32060898449E+04  0.32071237667E+04  0.78695917086E+02 0.  0.
        -13    1    5    5    0    0  0.21581400285E+02  0.19451528244E+02  0.73348109609E+03  0.73405629015E+03  0.00000000000E+00 0.  1.
         14    1    5    5    0    0 -0.42376697507E+02 -0.21747051266E+02  0.24726087488E+04  0.24730674766E+04  0.00000000000E+00 0. -1.
         13    1    3    3    0    0 -0.65047093241E+02 -0.42352510078E+02 -0.19434279201E+03  0.20927011315E+03  0.00000000000E+00 0. -1.
        -14    1    3    3    0    0  0.13447319057E+02  0.13148439320E+02 -0.20493795551E+02  0.27815598186E+02  0.00000000000E+00 0.  1.
          5    1    4    4  501    0  0.92758548481E+02 -0.14772907228E+02  0.51214959507E+03  0.52070823619E+03  0.41800000000E+01 0.  1.
         -5    1    4    4    0  501 -0.20363477076E+02  0.46272501009E+02  0.17625446489E+03  0.18340917192E+03  0.41800000000E+01 0.  1.
</event>
<event>
11    1  0.1108759E-008  0.1533263E+03  0.7561462E-02  0.1093528E+00
         22   -1    0    0    0    0  0.00000000000E+00  0.00000000000E+00  0.38440063211E+03  0.38440063211E+03  0.00000000000E+00 0. -1.
         22   -1    0    0    0    0 -0.00000000000E+00 -0.00000000000E+00 -0.10905608264E+04  0.10905608264E+04  0.00000000000E+00 0.  1.
        -24    2    1    2    0    0 -0.85864954155E+01 -0.38779409358E+02 -0.76870780906E+03  0.77367110800E+03  0.77959715013E+02 0.  0.
         25    2    1    2    0    0 -0.73561424560E+01  0.12481665597E+03 -0.28403401778E+03  0.33460128567E+03  0.12509750867E+03 0.  0.
         24    2    1    2    0    0  0.15942637872E+02 -0.86037246614E+02  0.34658163253E+03  0.36668906485E+03  0.81764703637E+02 0.  0.
        -11    1    5    5    0    0 -0.32009719069E+02 -0.48214370152E+02  0.14738536928E+03  0.15834043918E+03  0.00000000000E+00 0.  1.
         12    1    5    5    0    0  0.47952356940E+02 -0.37822876463E+02  0.19919626326E+03  0.20834862566E+03  0.00000000000E+00 0. -1.
         11    1    3    3    0    0 -0.29893859424E+02  0.94960127654E+01 -0.19099691622E+03  0.19355526109E+03  0.00000000000E+00 0. -1.
        -12    1    3    3    0    0  0.21307364008E+02 -0.48275422123E+02 -0.57771089283E+03  0.58011584691E+03  0.00000000000E+00 0.  1.
          5    1    4    4  501    0 -0.48638784049E+02  0.43902714205E+01 -0.68230625740E+02  0.84011287847E+02  0.41800000000E+01 0.  1.
         -5    1    4    4    0  501  0.41282641593E+02  0.12042638455E+03 -0.21580339204E+03  0.25058999783E+03  0.41800000000E+01 0.  1.
</event>
<event>
11    1  0.9238666E-009  0.1326101E+03  0.7561462E-02  0.1116103E+00
         22   -1    0    0    0    0  0.00000000000E+00  0.00000000000E+00  0.31892200382E+03  0.31892200382E+03  0.00000000000E+00 0.  1.
         22   -1    0    0    0    0 -0.00000000000E+00 -0.00000000000E+00 -0.14879216862E+04  0.14879216862E+04  0.00000000000E+00 0.  1.
         24    2    1    2    0    0  0.37069845132E+02  0.22602131617E+02 -0.12922013659E+04  0.12955170347E+04  0.81822902646E+02 0.  0.
         25    2    1    2    0    0 -0.53048157180E+02 -0.14801680384E+02 -0.16371175268E+03  0.21326441714E+03  0.12508787684E+03 0.  0.
        -24    2    1    2    0    0  0.15978312048E+02 -0.78004512328E+01  0.28691343614E+03  0.29806223824E+03  0.78775786458E+02 0.  0.
        -11    1    3    3    0    0  0.62727332847E+02  0.18013133573E+02 -0.10137021745E+04  0.10158008121E+04  0.00000000000E+00 0.  1.
         12    1    3    3    0    0 -0.25657487715E+02  0.45889980434E+01 -0.27849919136E+03  0.27971622256E+03  0.00000000000E+00 0. -1.
         11    1    5    5    0    0  0.27118054513E+01 -0.65632704845E+01 -0.30959360997E+01  0.77469496314E+01  0.00000000000E+00 0. -1.
        -12    1    5    5    0    0  0.13266506597E+02 -0.12371807483E+01  0.29000937224E+03  0.29031528861E+03  0.00000000000E+00 0.  1.
          5    1    4    4  501    0  0.40695948986E+02 -0.63714150891E+01 -0.62679080696E+02  0.75119203610E+02  0.41800000000E+01 0. -1.
         -5    1    4    4    0  501 -0.93744106165E+02 -0.84302652946E+01 -0.10103267199E+03  0.13814521353E+03  0.41800000000E+01 0. -1.
</event>
<event>
11    1  0.9238666E-009  0.1502692E+03  0.7561462E-02  0.1096604E+00
         22   -1    0    0    0    0  0.00000000000E+00  0.00000000000E+00  0.22473715752E+03  0.22473715752E+03  0.00000000000E+00 0.  1.
         22   -1    0    0    0    0 -0.00000000000E+00 -0.00000000000E+00 -0.26672844208E+04  0.26672844208E+04  0.00000000000E+00 0. -1.
        -24    2    1    2    0    0 -0.82987999623E+01  0.46785752601E+02 -0.21772724111E+04  0.21793000444E+04  0.81091027601E+02 0.  0.
         25    2    1    2    0    0  0.20064877926E+02 -0.12768854141E+03 -0.45634875249E+03  0.49051892547E+03  0.12509064480E+03 0.  0.
         24    2    1    2    0    0 -0.11766077964E+02  0.80902788810E+02  0.19107390034E+03  0.22220260839E+03  0.78619730078E+02 0.  0.
        -11    1    5    5    0    0  0.21339362405E+02  0.34269084195E+02  0.13939219094E+03  0.14512036871E+03  0.00000000000E+00 0.  1.
         12    1    5    5    0    0 -0.33105440368E+02  0.46633704615E+02  0.51681709401E+02  0.77082239684E+02  0.00000000000E+00 0. -1.
         11    1    3    3    0    0  0.72624113717E+00  0.54136733248E+02 -0.21273405129E+04  0.21280293633E+04  0.00000000000E+00 0. -1.
        -12    1    3    3    0    0 -0.90250410995E+01 -0.73509806469E+01 -0.49931898234E+02  0.51270681140E+02  0.00000000000E+00 0.  1.
          5    1    4    4  501    0  0.54082609732E+02 -0.10613409005E+03 -0.41832907679E+03  0.43497823237E+03  0.41800000000E+01 0.  1.
         -5    1    4    4    0  501 -0.34017731806E+02 -0.21554451356E+02 -0.38019675701E+02  0.55540693108E+02  0.41800000000E+01 0.  1.
</event>
<event>
11    1  0.9238666E-009  0.1511069E+03  0.7561462E-02  0.1095753E+00
         22   -1    0    0    0    0  0.00000000000E+00  0.00000000000E+00  0.84988434897E+03  0.84988434897E+03  0.00000000000E+00 0. -1.
         22   -1    0    0    0    0 -0.00000000000E+00 -0.00000000000E+00 -0.90075840351E+03  0.90075840351E+03  0.00000000000E+00 0.  1.
        -24    2    1    2    0    0  0.74299746764E+02  0.39876506171E+02 -0.83387504600E+03  0.84291297257E+03  0.89688900511E+02 0.  0.
         25    2    1    2    0    0 -0.10041333062E+03 -0.13675608065E+02  0.47861926974E+02  0.16795572146E+03  0.12509396907E+03 0.  0.
         24    2    1    2    0    0  0.26113583852E+02 -0.26200898106E+02  0.73513906448E+03  0.73977405844E+03  0.73944621801E+02 0.  0.
        -13    1    5    5    0    0 -0.59899628538E+01  0.16935769791E+02  0.63677389568E+02  0.66162753084E+02  0.00000000000E+00 0.  1.
         14    1    5    5    0    0  0.32103546706E+02 -0.43136667897E+02  0.67146167492E+03  0.67361130536E+03  0.00000000000E+00 0. -1.
         13    1    3    3    0    0 -0.16225475766E+02  0.24614639539E+02 -0.14671152978E+03  0.14964430999E+03  0.00000000000E+00 0. -1.
        -14    1    3    3    0    0  0.90525222530E+02  0.15261866631E+02 -0.68716351622E+03  0.69326866258E+03  0.00000000000E+00 0.  1.
          5    1    4    4  501    0 -0.48775477674E+02 -0.38605443674E+02 -0.31584090358E+02  0.69888873702E+02  0.41800000000E+01 0. -1.
         -5    1    4    4    0  501 -0.51637852942E+02  0.24929835610E+02  0.79446017332E+02  0.98066847762E+02  0.41800000000E+01 0. -1.
</event>
<event>
11    1  0.9238666E-009  0.1366191E+03  0.7561462E-02  0.1111394E+00
         22   -1    0    0    0    0  0.00000000000E+00  0.00000000000E+00  0.12262725964E+04  0.12262725964E+04  0.00000000000E+00 0.  1.
         22   -1    0    0    0    0 -0.00000000000E+00 -0.00000000000E+00 -0.47388896446E+02  0.47388896446E+02  0.00000000000E+00 0.  1.
         24    2    1    2    0    0  0.31195838053E+02 -0.25701013011E+02  0.11533052346E+03  0.16122843245E+03  0.10516537171E+03 0.  0.
         25    2    1    2    0    0 -0.45615090487E+02  0.70128009856E+02  0.23414831740E+03  0.27833687705E+03  0.12508920153E+03 0.  0.
        -24    2    1    2    0    0  0.14419252433E+02 -0.44426996845E+02  0.82940485906E+03  0.83409618331E+03  0.74982330544E+02 0.  0.
        -11    1    3    3    0    0  0.18230331285E+02 -0.32477752309E+02 -0.71099677805E+01  0.37917028044E+02  0.00000000000E+00 0.  1.
         12    1    3    3    0    0  0.12965506769E+02  0.67767392986E+01  0.12244049124E+03  0.12331140440E+03  0.00000000000E+00 0. -1.
         11    1    5    5    0    0 -0.21250136505E+02 -0.17365238246E+02  0.11266120895E+03  0.11595545612E+03  0.00000000000E+00 0. -1.
        -12    1    5    5    0    0  0.35669388938E+02 -0.27061758599E+02  0.71674365011E+03  0.71814072719E+03  0.00000000000E+00 0.  1.
          5    1    4    4  501    0  0.33258838022E+02  0.13525330110E+02  0.13401909072E+03  0.13880804710E+03  0.41800000000E+01 0. -1.
         -5    1    4    4    0  501 -0.78873928509E+02  0.56602679745E+02  0.10012922668E+03  0.13952882995E+03  0.41800000000E+01 0. -1.
</event>
<event>
11    1  0.9238666E-009  0.1396788E+03  0.7561462E-02  0.1107918E+00
         22   -1    0    0    0    0  0.00000000000E+00  0.00000000000E+00  0.20319480142E+03  0.20319480142E+03  0.00000000000E+00 0.  1.
         22   -1    0    0    0    0 -0.00000000000E+00 -0.00000000000E+00 -0.78683730618E+03  0.78683730618E+03  0.00000000000E+00 0.  1.
         24    2    1    2    0    0  0.50553963473E+02  0.71696853678E+02 -0.29512453765E+03  0.31828583873E+03  0.80692257134E+02 0.  0.
         25    2    1    2    0    0 -0.14701829179E+02 -0.39836468465E+02 -0.45865317891E+03  0.47729774591E+03  0.12508921507E+03 0.  0.
        -24    2    1    2    0    0 -0.35852134294E+02 -0.31860385213E+02  0.17013521181E+03  0.19444852296E+03  0.81017146984E+02 0.  0.
        -11    1    3    3    0    0  0.22630629788E+02  0.54220514898E+02 -0.27140914122E+03  0.27769575362E+03  0.00000000000E+00 0.  1.
         12    1    3    3    0    0  0.27923333686E+02  0.17476338780E+02 -0.23715396429E+02  0.40590085108E+02  0.00000000000E+00 0. -1.
         13    1    5    5    0    0 -0.14409479293E+02 -0.45842961529E+02  0.42125610074E+02  0.63904438338E+02  0.00000000000E+00 0. -1.
        -14    1    5    5    0    0 -0.21442655001E+02  0.13982576316E+02  0.12800960173E+03  0.13054408462E+03  0.00000000000E+00 0.  1.
          5    1    4    4  501    0 -0.26457002215E+01 -0.84694380697E+02 -0.31750540982E+03  0.32864463409E+03  0.41800000000E+01 0.  1.
         -5    1    4    4    0  501 -0.12056128958E+02  0.44857912232E+02 -0.14114776910E+03  0.14865311183E+03  0.41800000000E+01 0.  1.
</event>
<event>
11    1  0.9238666E-009  0.1491202E+03  0.7561462E-02  0.1097781E+00
         22   -1    0    0    0    0  0.00000000000E+00  0.00000000000E+00  0.36125491361E+03  0.36125491361E+03  0.00000000000E+00 0. -1.
         22   -1    0    0    0    0 -0.00000000000E+00 -0.00000000000E+00 -0.41859714957E+03  0.41859714957E+03  0.00000000000E+00 0.  1.
        -24    2    1    2    0    0 -0.84562124113E+02 -0.79741283608E+01 -0.35888139511E+03  0.37731689631E+03  0.79736095510E+02 0.  0.
         25    2    1    2    0    0  0.33514521408E+02 -0.42748352066E+02  0.87462660711E+02  0.16201263377E+03  0.12509089388E+03 0.  0.
         24    2    1    2    0    0  0.51047602705E+02  0.50722480427E+02  0.21407649843E+03  0.24052253311E+03  0.82726742895E+02 0.  0.
        -11    1    5    5    0    0  0.43468841559E+02  0.47230942681E+01  0.36587598035E+02  0.57013157568E+02  0.00000000000E+00 0.  1.
         12    1    5    5    0    0  0.75787611458E+01  0.45999386159E+02  0.17748890040E+03  0.18350937554E+03  0.00000000000E+00 0. -1.
         13    1    3    3    0    0 -0.19732292702E+02  0.83994329177E+01 -0.13100805255E+02  0.25130558031E+02  0.00000000000E+00 0. -1.
        -14    1    3    3    0    0 -0.64829831411E+02 -0.16373561278E+02 -0.34578058985E+03  0.35218633827E+03  0.00000000000E+00 0.  1.
          5    1    4    4  501    0  0.12409506654E+02 -0.84509347022E+02  0.74143155018E+02  0.11318350333E+03  0.41800000000E+01 0.  1.
         -5    1    4    4    0  501  0.21105014754E+02  0.41760994956E+02  0.13319505693E+02  0.48829130439E+02  0.41800000000E+01 0.  1.
</event>
<event>
11    1  0.9238666E-009  0.1525395E+03  0.7561462E-02  0.1094312E+00
         22   -1    0    0    0    0  0.00000000000E+00  0.00000000000E+00  0.61129313834E+03  0.61129313834E+03  0.00000000000E+00 0. -1.
         22   -1    0    0    0    0 -0.00000000000E+00 -0.00000000000E+00 -0.17874656733E+03  0.17874656733E+03  0.00000000000E+00 0.  1.
         24    2    1    2    0    0 -0.24675587859E+02  0.26141843012E+02 -0.57920734166E+02  0.10712681733E+03  0.82638144664E+02 0.  0.
         25    2    1    2    0    0 -0.10742450681E+01 -0.10827554898E+03 -0.12920462609E+02  0.16592420424E+03  0.12505660595E+03 0.  0.
        -24    2    1    2    0    0  0.25749832928E+02  0.82133705966E+02  0.50338776778E+03  0.51698868409E+03  0.80430436897E+02 0.  0.
        -11    1    3    3    0    0  0.23123732474E+02  0.30833701294E+02 -0.11231953982E+02  0.40144500611E+02  0.00000000000E+00 0.  1.
         12    1    3    3    0    0 -0.47799320334E+02 -0.46918582822E+01 -0.46688780184E+02  0.66982316723E+02  0.00000000000E+00 0. -1.
         13    1    5    5    0    0 -0.22907017562E+02  0.13219535991E+02  0.21173486704E+03  0.21338027441E+03  0.00000000000E+00 0. -1.
        -14    1    5    5    0    0  0.48656850489E+02  0.68914169975E+02  0.29165290073E+03  0.30360840968E+03  0.00000000000E+00 0.  1.
          5    1    4    4  501    0  0.17709264870E+02 -0.88587013304E+02  0.45577153646E+02  0.10127204117E+03  0.41800000000E+01 0. -1.
         -5    1    4    4    0  501 -0.18783509938E+02 -0.19688535673E+02 -0.58497616255E+02  0.64652163073E+02  0.41800000000E+01 0. -1.
</event>
<event>
11    1  0.9238666E-009  0.1342004E+03  0.7561462E-02  0.1114213E+00
         22   -1    0    0    0    0  0.00000000000E+00  0.00000000000E+00  0.38612201738E+02  0.38612201738E+02  0.00000000000E+00 0.  1.
         22   -1    0    0    0    0 -0.00000000000E+00 -0.00000000000E+00 -0.11654134392E+04  0.11654134392E+04  0.00000000000E+00 0. -1.
        -24    2    1    2    0    0 -0.21098821592E+02 -0.10105649492E+01 -0.65909177303E+03  0.66537093932E+03  0.88714937297E+02 0.  0.
         25    2    1    2    0    0  0.65943065707E+02  0.10032844030E+01 -0.40143057782E+03  0.42560942736E+03  0.12508949337E+03 0.  0.
         24    2    1    2    0    0 -0.44844244114E+02  0.72805462539E-02 -0.66278886656E+02  0.11304527431E+03  0.79845707107E+02 0.  0.
        -11    1    5    5    0    0 -0.42843524807E+02  0.14521153378E+02 -0.72914534972E-01  0.45237559945E+02  0.00000000000E+00 0.  1.
         12    1    5    5    0    0 -0.20007193074E+01 -0.14513872832E+02 -0.66205972121E+02  0.67807714360E+02  0.00000000000E+00 0. -1.
         13    1    3    3    0    0 -0.43533452636E+02 -0.83305650924E+01 -0.60151368348E+03  0.60314448619E+03  0.00000000000E+00 0. -1.
        -14    1    3    3    0    0  0.22434631044E+02  0.73200001432E+01 -0.57578089550E+02  0.62226453124E+02  0.00000000000E+00 0.  1.
          5    1    4    4  501    0  0.48150738382E+02  0.88674003715E+01 -0.40268600049E+03  0.40567303557E+03  0.41800000000E+01 0. -1.
         -5    1    4    4    0  501  0.17792327324E+02 -0.78641159685E+01  0.12554226679E+01  0.19936391791E+02  0.41800000000E+01 0. -1.
</event>
<event>
11    1  0.9238666E-009  0.1493683E+03  0.7561462E-02  0.1097526E+00
         22   -1    0    0    0    0  0.00000000000E+00  0.00000000000E+00  0.26406216884E+04  0.26406216884E+04  0.00000000000E+00 0. -1.
         22   -1    0    0    0    0 -0.00000000000E+00 -0.00000000000E+00 -0.61108242938E+03  0.61108242938E+03  0.00000000000E+00 0.  1.
        -24    2    1    2    0    0  0.23447864961E+01  0.11083114696E+02 -0.58702774736E+03  0.59344060344E+03  0.86266101046E+02 0.  0.
         25    2    1    2    0    0 -0.62505378521E+02 -0.65336756116E+02  0.28682671931E+03  0.32571936340E+03  0.12509085793E+03 0.  0.
         24    2    1    2    0    0  0.60160592024E+02  0.54253641419E+02  0.23297402871E+04  0.23325441510E+04  0.80682442082E+02 0.  0.
        -11    1    5    5    0    0  0.34733103770E+02  0.39851626128E+02  0.54349682018E+03  0.54606165783E+03  0.00000000000E+00 0.  1.
         12    1    5    5    0    0  0.25427488255E+02  0.14402015292E+02  0.17862434669E+04  0.17864824932E+04  0.00000000000E+00 0. -1.
         11    1    3    3    0    0 -0.33536915764E+02 -0.17988835640E+02 -0.19304257951E+03  0.19675812672E+03  0.00000000000E+00 0. -1.
        -12    1    3    3    0    0  0.35881702260E+02  0.29071950336E+02 -0.39398516785E+03  0.39668247672E+03  0.00000000000E+00 0.  1.
          5    1    4    4  501    0 -0.77272631749E+01 -0.58536956980E+02  0.25517977915E+03  0.26195510687E+03  0.41800000000E+01 0.  1.
         -5    1    4    4    0  501 -0.54778115346E+02 -0.67997991358E+01  0.31646940164E+02  0.63764256530E+02  0.41800000000E+01 0.  1.
</event>
<event>
11    1  0.9238666E-009  0.1506176E+03  0.7561462E-02  0.1096249E+00
         22   -1    0    0    0    0  0.00000000000E+00  0.00000000000E+00  0.25112542091E+03  0.25112542091E+03  0.00000000000E+00 0.  1.
         22   -1    0    0    0    0 -0.00000000000E+00 -0.00000000000E+00 -0.40102139176E+03  0.40102139176E+03  0.00000000000E+00 0. -1.
         24    2    1    2    0    0  0.68376490294E+01 -0.38018666064E+02 -0.14525668950E+03  0.17035854672E+03  0.80189501687E+02 0.  0.
         25    2    1    2    0    0 -0.83573010097E+02  0.68434047429E+02 -0.19736855695E+03  0.25742829338E+03  0.12508921655E+03 0.  0.
        -24    2    1    2    0    0  0.76735361067E+02 -0.30415381366E+02  0.19272927561E+03  0.22435997257E+03  0.79871224832E+02 0.  0.
        -11    1    3    3    0    0  0.29649273914E+02 -0.11918638557E+02 -0.14510716088E+02  0.35095502134E+02  0.00000000000E+00 0.  1.
         12    1    3    3    0    0 -0.22811624884E+02 -0.26100027506E+02 -0.13074597341E+03  0.13526304458E+03  0.00000000000E+00 0. -1.
         13    1    5    5    0    0 -0.46895499743E+01 -0.18005954980E+02  0.48633858015E+01  0.19231713786E+02  0.00000000000E+00 0. -1.
        -14    1    5    5    0    0  0.81424911042E+02 -0.12409426385E+02  0.18786588980E+03  0.20512825879E+03  0.00000000000E+00 0.  1.
          5    1    4    4  501    0 -0.11188950473E+03  0.28128043528E+02 -0.14611142795E+03  0.18621619123E+03  0.41800000000E+01 0. -1.
         -5    1    4    4    0  501  0.28316494632E+02  0.40306003902E+02 -0.51257129005E+02  0.71212102150E+02  0.41800000000E+01 0. -1.
</event>
<event>
11    1  0.9238666E-009  0.1419719E+03  0.7561462E-02  0.1105376E+00
         22   -1    0    0    0    0  0.00000000000E+00  0.00000000000E+00  0.11667439877E+04  0.11667439877E+04  0.00000000000E+00 0. -1.
         22   -1    0    0    0    0 -0.00000000000E+00 -0.00000000000E+00 -0.13373742753E+04  0.13373742753E+04  0.00000000000E+00 0. -1.
        -24    2    1    2    0    0  0.34695254865E+02 -0.42302723728E+02 -0.61863870029E+03  0.62663639258E+03  0.83462841217E+02 0.  0.
         25    2    1    2    0    0 -0.61868223323E+02  0.70562618128E+02 -0.70433581855E+03  0.72148665021E+03  0.12508909224E+03 0.  0.
         24    2    1    2    0    0  0.27172968457E+02 -0.28259894400E+02  0.11523442312E+04  0.11559952202E+04  0.83010421408E+02 0.  0.
        -13    1    5    5    0    0  0.30604085339E+02  0.13092043601E+02  0.20028936478E+03  0.20303655161E+03  0.00000000000E+00 0.  1.
         14    1    5    5    0    0 -0.34311168817E+01 -0.41351938001E+02  0.95205486641E+03  0.95295866857E+03  0.00000000000E+00 0. -1.
         13    1    3    3    0    0  0.57536397607E+02 -0.19111155463E+02 -0.49823799517E+03  0.50191311314E+03  0.00000000000E+00 0. -1.
        -14    1    3    3    0    0 -0.22841142742E+02 -0.23191568265E+02 -0.12040070512E+03  0.12472327943E+03  0.00000000000E+00 0.  1.
          5    1    4    4  501    0 -0.36898607283E+01  0.49991936710E+02 -0.82806540004E+02  0.96887585766E+02  0.41800000000E+01 0.  1.
         -5    1    4    4    0  501 -0.58178362594E+02  0.20570681418E+02 -0.62152927855E+03  0.62459906444E+03  0.41800000000E+01 0.  1.
</event>
<event>
11    1  0.9238666E-009  0.1527808E+03  0.7561462E-02  0.1094071E+00
         22   -1    0    0    0    0  0.00000000000E+00  0.00000000000E+00  0.13092159267E+03  0.13092159267E+03  0.00000000000E+00 0. -1.
         22   -1    0    0    0    0 -0.00000000000E+00 -0.00000000000E+00 -0.80521707586E+03  0.80521707586E+03  0.00000000000E+00 0. -1.
        -24    2    1    2    0    0  0.26391548934E+02 -0.34282618766E+02 -0.39549202310E+03  0.40520745827E+03  0.76859170562E+02 0.  0.
         25    2    1    2    0    0 -0.75296531351E+02  0.10289712905E+03 -0.35103150083E+03  0.39386213987E+03  0.12508750475E+03 0.  0.
         24    2    1    2    0    0  0.48904982417E+02 -0.68614510287E+02  0.72228040738E+02  0.13706907039E+03  0.80444961688E+02 0.  0.
        -13    1    5    5    0    0  0.18793307678E+02 -0.50816473207E+02 -0.28370592077E+01  0.54254504584E+02  0.00000000000E+00 0.  1.
         14    1    5    5    0    0  0.30111674739E+02 -0.17798037080E+02  0.75065099945E+02  0.82814565804E+02  0.00000000000E+00 0. -1.
         11    1    3    3    0    0  0.48228320248E+02 -0.34341856167E+02 -0.34714541308E+03  0.35215802104E+03  0.00000000000E+00 0. -1.
        -12    1    3    3    0    0 -0.21836771313E+02  0.59237400753E-01 -0.48346610015E+02  0.53049437230E+02  0.00000000000E+00 0.  1.
          5    1    4    4  501    0 -0.43920656073E+02  0.12309566013E+03 -0.31806264016E+03  0.34389370602E+03  0.41800000000E+01 0. -1.
         -5    1    4    4    0  501 -0.31375875278E+02 -0.20198531080E+02 -0.32968860663E+02  0.49968433843E+02  0.41800000000E+01 0. -1.
</event>
<event>
11    1  0.9238666E-009  0.1770180E+03  0.7561462E-02  0.1072081E+00
         22   -1    0    0    0    0  0.00000000000E+00  0.00000000000E+00  0.92206610014E+03  0.92206610014E+03  0.00000000000E+00 0.  1.
         22   -1    0    0    0    0 -0.00000000000E+00 -0.00000000000E+00 -0.18796117130E+04  0.18796117130E+04  0.00000000000E+00 0.  1.
        -24    2    1    2    0    0 -0.41696935543E+01 -0.66597441614E+01 -0.17481622259E+04  0.17500494630E+04  0.80871603125E+02 0.  0.
         25    2    1    2    0    0 -0.96038956533E+02  0.81747845729E+02 -0.60525404211E+02  0.18766099008E+03  0.12508849343E+03 0.  0.
         24    2    1    2    0    0  0.10020865009E+03 -0.75088101567E+02  0.85114201728E+03  0.86396736009E+03  0.79478734011E+02 0.  0.
        -11    1    5    5    0    0  0.81534631377E+02 -0.20378401629E+02  0.62169865051E+03  0.62735347884E+03  0.00000000000E+00 0.  1.
         12    1    5    5    0    0  0.18674018711E+02 -0.54709699938E+02  0.22944336677E+03  0.23661388124E+03  0.00000000000E+00 0. -1.
         11    1    3    3    0    0 -0.40024433993E+02  0.81071397024E+01 -0.10705896151E+04  0.10713681930E+04  0.00000000000E+00 0. -1.
        -12    1    3    3    0    0  0.35854740438E+02 -0.14766883864E+02 -0.67757261080E+03  0.67868126995E+03  0.00000000000E+00 0.  1.
          5    1    4    4  501    0  0.27450637185E+02 -0.25109584289E+01 -0.12776555392E+02  0.30668471787E+02  0.41800000000E+01 0.  1.
         -5    1    4    4    0  501 -0.12348959372E+03  0.84258804158E+02 -0.47748848819E+02  0.15699251829E+03  0.41800000000E+01 0.  1.
</event>
<event>
11    1  0.9238666E-009  0.1585637E+03  0.7561462E-02  0.1088436E+00
         22   -1    0    0    0    0  0.00000000000E+00  0.00000000000E+00  0.17263959278E+03  0.17263959278E+03  0.00000000000E+00 0. -1.
         22   -1    0    0    0    0 -0.00000000000E+00 -0.00000000000E+00 -0.68854220475E+03  0.68854220475E+03  0.00000000000E+00 0.  1.
         24    2    1    2    0    0  0.68513764651E+02  0.76273696561E+02 -0.32342646149E+03  0.34881397323E+03  0.80961096787E+02 0.  0.
         25    2    1    2    0    0 -0.11399986885E+03  0.27319265238E+01 -0.30337165996E+03  0.34739753314E+03  0.12508896212E+03 0.  0.
        -24    2    1    2    0    0  0.45486104201E+02 -0.79005623085E+02  0.11089550949E+03  0.16497029116E+03  0.81280432980E+02 0.  0.
        -13    1    3    3    0    0  0.83340033234E+02  0.44832961567E+02 -0.25646210686E+03  0.27336489870E+03  0.00000000000E+00 0.  1.
         14    1    3    3    0    0 -0.14826268583E+02  0.31440734993E+02 -0.66964354628E+02  0.75449074533E+02  0.00000000000E+00 0. -1.
         13    1    5    5    0    0  0.45280780955E+02 -0.92372726257E+02  0.11134491129E+03  0.15159405975E+03  0.00000000000E+00 0. -1.
        -14    1    5    5    0    0  0.20532324615E+00  0.13367103172E+02 -0.44940179803E+00  0.13376231414E+02  0.00000000000E+00 0.  1.
          5    1    4    4  501    0 -0.38789676954E+02  0.24064349296E+02 -0.24626300421E+03  0.25049285736E+03  0.41800000000E+01 0.  1.
         -5    1    4    4    0  501 -0.75210191898E+02 -0.21332422773E+02 -0.57108655752E+02  0.96904675782E+02  0.41800000000E+01 0.  1.
</event>
<event>
11    1  0.9238666E-009  0.1314810E+03  0.7561462E-02  0.1117463E+00
         22   -1    0    0    0    0  0.00000000000E+00  0.00000000000E+00  0.92709367186E+03  0.92709367186E+03  0.00000000000E+00 0.  1.
         22   -1    0    0    0    0 -0.00000000000E+00 -0.00000000000E+00 -0.61988072124E+02  0.61988072124E+02  0.00000000000E+00 0. -1.
        -24    2    1    2    0    0 -0.27514358263E+02 -0.15919630574E+02 -0.78195410128E+00  0.86205677604E+02  0.80126979543E+02 0.  0.
         25    2    1    2    0    0 -0.26659469551E+01 -0.18638747483E+02  0.24875985537E+03  0.27907579002E+03  0.12508925114E+03 0.  0.
         24    2    1    2    0    0  0.30180305218E+02  0.34558378057E+02  0.61712769846E+03  0.62380027635E+03  0.78581526160E+02 0.  0.
        -13    1    5    5    0    0  0.18792659341E+02 -0.47641614007E+01  0.48698112524E+03  0.48736688195E+03  0.00000000000E+00 0.  1.
         14    1    5    5    0    0  0.11387645877E+02  0.39322539457E+02  0.13014657322E+03  0.13643339441E+03  0.00000000000E+00 0. -1.
         11    1    3    3    0    0  0.79976927039E+01 -0.19137947710E+02 -0.32452041809E+02  0.38514401835E+02  0.00000000000E+00 0. -1.
        -12    1    3    3    0    0 -0.35512050967E+02  0.32183171360E+01  0.31670087708E+02  0.47691275769E+02  0.00000000000E+00 0.  1.
          5    1    4    4  501    0  0.18150260479E+02  0.37784648291E+02  0.19098383706E+03  0.19557456383E+03  0.41800000000E+01 0.  1.
         -5    1    4    4    0  501 -0.20816207434E+02 -0.56423395774E+02  0.57776018315E+02  0.83501226188E+02  0.41800000000E+01 0.  1.
</event>
<event>
11    1  0.9238666E-009  0.1550891E+03  0.7561462E-02  0.1091789E+00
         22   -1    0    0    0    0  0.00000000000E+00  0.00000000000E+00  0.11098508922E+04  0.11098508922E+04  0.00000000000E+00 0. -1.
         22   -1    0    0    0    0 -0.00000000000E+00 -0.00000000000E+00 -0.10278078818E+04  0.10278078818E+04  0.00000000000E+00 0. -1.
         24    2    1    2    0    0  0.91467279902E+02 -0.29858225646E+01 -0.99089470026E+03  0.99878000397E+03  0.85521990777E+02 0.  0.
         25    2    1    2    0    0 -0.99411295369E+02  0.61004608853E+02  0.21647137095E+03  0.27588448235E+03  0.12509286636E+03 0.  0.
        -24    2    1    2    0    0  0.79440154675E+01 -0.58018786288E+02  0.85646633967E+03  0.86299428766E+03  0.88290784372E+02 0.  0.
        -11    1    3    3    0    0 -0.46570234045E+01 -0.25293853406E+01 -0.27495681726E+01  0.59704088912E+01  0.00000000000E+00 0.  1.
         12    1    3    3    0    0  0.96124303306E+02 -0.45643722394E+00 -0.98814513209E+03  0.99280959508E+03  0.00000000000E+00 0. -1.
         13    1    5    5    0    0  0.66189270452E+01 -0.56005012635E+02  0.85818357830E+03  0.86003454913E+03  0.00000000000E+00 0. -1.
        -14    1    5    5    0    0  0.13250884223E+01 -0.20137736531E+01 -0.17172386305E+01  0.29597385301E+01  0.00000000000E+00 0.  1.
          5    1    4    4  501    0  0.56720487924E+01  0.64591842971E+02  0.69688669217E+02  0.95279910438E+02  0.41800000000E+01 0. -1.
         -5    1    4    4    0  501 -0.10508334416E+03 -0.35872341181E+01  0.14678270173E+03  0.18060457191E+03  0.41800000000E+01 0. -1.
</event>
<event>
11    1  0.9238666E-009  0.1398867E+03  0.7561462E-02  0.1107685E+00
         22   -1    0    0    0    0  0.00000000000E+00  0.00000000000E+00  0.48755187819E+03  0.48755187819E+03  0.00000000000E+00 0. -1.
         22   -1    0    0    0    0 -0.00000000000E+00 -0.00000000000E+00 -0.15683220703E+04  0.15683220703E+04  0.00000000000E+00 0. -1.
         24    2    1    2    0    0 -0.16191758053E+02 -0.19072118126E+02 -0.15225827556E+04  0.15249886700E+04  0.81891862156E+02 0.  0.
         25    2    1    2    0    0 -0.25490630167E+02 -0.32900851243E+02  0.78771326269E+02  0.15357300112E+03  0.12508999397E+03 0.  0.
        -24    2    1    2    0    0  0.41682388219E+02  0.51972969369E+02  0.36304123723E+03  0.37731227743E+03  0.78275179575E+02 0.  0.
        -13    1    3    3    0    0  0.25408269739E+02 -0.25630322645E+02 -0.40258705824E+03  0.40420147584E+03  0.00000000000E+00 0.  1.
         14    1    3    3    0    0 -0.41600027791E+02  0.65582045185E+01 -0.11199956974E+04  0.11207871941E+04  0.00000000000E+00 0. -1.
         11    1    5    5    0    0  0.17190015386E+02  0.28991490582E+02  0.32426916505E+03  0.32601609555E+03  0.00000000000E+00 0. -1.
        -12    1    5    5    0    0  0.24492372834E+02  0.22981478787E+02  0.38772072172E+02  0.51296181873E+02  0.00000000000E+00 0.  1.
          5    1    4    4  501    0  0.44815573650E+02 -0.37346368260E+02  0.20244536210E+02  0.61891037397E+02  0.41800000000E+01 0.  1.
         -5    1    4    4    0  501 -0.70306203817E+02  0.44455170168E+01  0.58526790059E+02  0.91681963718E+02  0.41800000000E+01 0.  1.
</event>
<event>
11    1  0.9238666E-009  0.1278324E+03  0.7561462E-02  0.1121961E+00
         22   -1    0    0    0    0  0.00000000000E+00  0.00000000000E+00  0.28573932392E+03  0.28573932392E+03  0.00000000000E+00 0. -1.
         22   -1    0    0    0    0 -0.00000000000E+00 -0.00000000000E+00 -0.10920058779E+03  0.10920058779E+03  0.00000000000E+00 0. -1.
        -24    2    1    2    0    0  0.26310815789E+02  0.15995580799E+02 -0.33359436225E+02  0.91590816436E+02  0.79548149178E+02 0.  0.
         25    2    1    2    0    0  0.70010748460E+00 -0.16260565160E+02  0.81621552167E+02  0.15024711860E+03  0.12508885937E+03 0.  0.
         24    2    1    2    0    0 -0.27010923274E+02  0.26498436076E+00  0.12827662018E+03  0.15310197667E+03  0.79092754300E+02 0.  0.
        -11    1    5    5    0    0  0.21857988277E+02 -0.11871125992E+02  0.14771133522E+02  0.28928907158E+02  0.00000000000E+00 0.  1.
         12    1    5    5    0    0 -0.48868911551E+02  0.12136110353E+02  0.11350548666E+03  0.12417306951E+03  0.00000000000E+00 0. -1.
         11    1    3    3    0    0  0.30056485823E+02  0.17880449513E+02 -0.57384912818E+02  0.67202165396E+02  0.00000000000E+00 0. -1.
        -12    1    3    3    0    0 -0.37456700334E+01 -0.18848687138E+01  0.24025476593E+02  0.24388651040E+02  0.00000000000E+00 0.  1.
          5    1    4    4  501    0 -0.21538622215E+02  0.18524243213E+02 -0.23580785723E+02  0.37156233512E+02  0.41800000000E+01 0.  1.
         -5    1    4    4    0  501  0.22238729699E+02 -0.34784808372E+02  0.10520233789E+03  0.11309088509E+03  0.41800000000E+01 0.  1.
</event>
<event>
11    1  0.9238666E-009  0.1874456E+03  0.7561462E-02  0.1063774E+00
         22   -1    0    0    0    0  0.00000000000E+00  0.00000000000E+00  0.62267074513E+03  0.62267074513E+03  0.00000000000E+00 0. -1.
         22   -1    0    0    0    0 -0.00000000000E+00 -0.00000000000E+00 -0.27078581273E+03  0.27078581273E+03  0.00000000000E+00 0. -1.
         24    2    1    2    0    0  0.21102341058E+02 -0.75828464473E+02 -0.16773166700E+03  0.20196623448E+03  0.80381483769E+02 0.  0.
         25    2    1    2    0    0  0.25083845493E+01 -0.75081706012E+02  0.30133025470E+01  0.14595272491E+03  0.12509821480E+03 0.  0.
        -24    2    1    2    0    0 -0.23610725607E+02  0.15091017049E+03  0.51660329686E+03  0.54553759847E+03  0.86028827113E+02 0.  0.
        -13    1    3    3    0    0  0.22864642599E+02 -0.60207188190E+02 -0.45805090381E+02  0.79030397290E+02  0.00000000000E+00 0.  1.
         14    1    3    3    0    0 -0.17623015415E+01 -0.15621276283E+02 -0.12192657662E+03  0.12293583719E+03  0.00000000000E+00 0. -1.
         11    1    5    5    0    0 -0.51407071271E+02  0.13089938283E+03  0.42974377808E+03  0.45216927162E+03  0.00000000000E+00 0. -1.
        -12    1    5    5    0    0  0.27796345663E+02  0.20010787655E+02  0.86859518785E+02  0.93368326848E+02  0.00000000000E+00 0.  1.
          5    1    4    4  501    0 -0.14788503818E+01 -0.27146984184E+02  0.63121626826E+02  0.68854614384E+02  0.41800000000E+01 0. -1.
         -5    1    4    4    0  501  0.39872349311E+01 -0.47934721828E+02 -0.60108324279E+02  0.77098110526E+02  0.41800000000E+01 0. -1.
</event>
<event>
11    1  0.9238666E-009  0.1738860E+03  0.7561462E-02  0.1074699E+00
         22   -1    0    0    0    0  0.00000000000E+00  0.00000000000E+00  0.82175408969E+02  0.82175408969E+02  0.00000000000E+00 0. -1.
         22   -1    0    0    0    0 -0.00000000000E+00 -0.00000000000E+00 -0.26505785234E+04  0.26505785234E+04  0.00000000000E+00 0.  1.
         24    2    1    2    0    0 -0.50026991944E+02 -0.10841885223E+03 -0.21011804503E+04  0.21060548475E+04  0.79059399673E+02 0.  0.
         25    2    1    2    0    0  0.77719499006E+02  0.10678470988E+03 -0.49889322336E+03  0.53102268109E+03  0.12508934700E+03 0.  0.
        -24    2    1    2    0    0 -0.27692507062E+02  0.16341423497E+01  0.31670559195E+02  0.95676403768E+02  0.85915100824E+02 0.  0.
        -13    1    3    3    0    0 -0.21011891481E+02 -0.11087215446E+03 -0.17717328941E+04  0.17753229516E+04  0.00000000000E+00 0.  1.
         14    1    3    3    0    0 -0.29015100463E+02  0.24533022302E+01 -0.32944755617E+03  0.33073189597E+03  0.00000000000E+00 0. -1.
         11    1    5    5    0    0 -0.38710975686E+02  0.68451041705E+01  0.56025617550E+02  0.68441689865E+02  0.00000000000E+00 0. -1.
        -12    1    5    5    0    0  0.11018468624E+02 -0.52109618208E+01 -0.24355058355E+02  0.27234713903E+02  0.00000000000E+00 0.  1.
          5    1    4    4  501    0  0.12712817061E+01 -0.26809709284E+02 -0.58821834393E+02  0.64790873358E+02  0.41800000000E+01 0. -1.
         -5    1    4    4    0  501  0.76448217300E+02  0.13359441916E+03 -0.44007138896E+03  0.46623180773E+03  0.41800000000E+01 0. -1.
</event>
<event>
11    1  0.9238666E-009  0.1999722E+03  0.7561462E-02  0.1054543E+00
         22   -1    0    0    0    0  0.00000000000E+00  0.00000000000E+00  0.26562730992E+04  0.26562730992E+04  0.00000000000E+00 0. -1.
         22   -1    0    0    0    0 -0.00000000000E+00 -0.00000000000E+00 -0.44326211548E+03  0.44326211548E+03  0.00000000000E+00 0.  1.
         24    2    1    2    0    0 -0.10339921719E+03 -0.12084804632E+03 -0.41236790256E+03  0.44967853641E+03  0.82872496209E+02 0.  0.
         25    2    1    2    0    0  0.19868242972E+02  0.75919176078E+02  0.51505633355E+03  0.53580665145E+03  0.12508905881E+03 0.  0.
        -24    2    1    2    0    0  0.83530974216E+02  0.44928870238E+02  0.21103225527E+04  0.21140500268E+04  0.82159675764E+02 0.  0.
        -13    1    3    3    0    0 -0.78873947928E+02 -0.12847042906E+03 -0.31873390739E+03  0.35258623700E+03  0.00000000000E+00 0.  1.
         14    1    3    3    0    0 -0.24525269260E+02  0.76223827484E+01 -0.93633995176E+02  0.97092299405E+02  0.00000000000E+00 0. -1.
         13    1    5    5    0    0 -0.65619870661E+01  0.61923215417E+00  0.74944228993E+03  0.74947127301E+03  0.00000000000E+00 0. -1.
        -14    1    5    5    0    0  0.90092961283E+02  0.44309638084E+02  0.13608802628E+04  0.13645787538E+04  0.00000000000E+00 0.  1.
          5    1    4    4  501    0  0.37894498990E+02 -0.23177841050E+02  0.20401218088E+03  0.20883401953E+03  0.41800000000E+01 0.  1.
         -5    1    4    4    0  501 -0.18026256018E+02  0.99097017128E+02  0.31104415267E+03  0.32697263191E+03  0.41800000000E+01 0.  1.
</event>
<event>
11    1  0.9238666E-009  0.1495411E+03  0.7561462E-02  0.1097349E+00
         22   -1    0    0    0    0  0.00000000000E+00  0.00000000000E+00  0.16568417585E+03  0.16568417585E+03  0.00000000000E+00 0.  1.
         22   -1    0    0    0    0 -0.00000000000E+00 -0.00000000000E+00 -0.67079005744E+03  0.67079005744E+03  0.00000000000E+00 0. -1.
         24    2    1    2    0    0 -0.52175979516E+02  0.54905362766E+02 -0.54268211185E+03  0.55385616058E+03  0.80720755666E+02 0.  0.
         25    2    1    2    0    0 -0.27975170387E+02 -0.89319664848E+02 -0.57821698992E+01  0.15634120042E+03  0.12509406371E+03 0.  0.
        -24    2    1    2    0    0  0.80151149904E+02  0.34414302083E+02  0.43358400154E+02  0.12627687229E+03  0.80357616886E+02 0.  0.
        -13    1    3    3    0    0 -0.51237329756E+02 -0.42923375812E+00 -0.18694124382E+03  0.19383621138E+03  0.00000000000E+00 0.  1.
         14    1    3    3    0    0 -0.93864976005E+00  0.55334596524E+02 -0.35574086803E+03  0.36001994920E+03  0.00000000000E+00 0. -1.
         13    1    5    5    0    0  0.61553349523E+02  0.19081810615E+02 -0.12315408268E+02  0.65609447602E+02  0.00000000000E+00 0. -1.
        -14    1    5    5    0    0  0.18597800381E+02  0.15332491468E+02  0.55673808421E+02  0.60667424684E+02  0.00000000000E+00 0.  1.
          5    1    4    4  501    0 -0.17863284531E+02 -0.11210239044E+03  0.25202552140E+02  0.11635585035E+03  0.41800000000E+01 0.  1.
         -5    1    4    4    0  501 -0.10111885856E+02  0.22782725589E+02 -0.30984722039E+02  0.39985350075E+02  0.41800000000E+01 0.  1.
</event>
<event>
11    1  0.9238666E-009  0.1453560E+03  0.7561462E-02  0.1101721E+00
         22   -1    0    0    0    0  0.00000000000E+00  0.00000000000E+00  0.64677951132E+03  0.64677951132E+03  0.00000000000E+00 0. -1.
         22   -1    0    0    0    0 -0.00000000000E+00 -0.00000000000E+00 -0.11204302916E+03  0.11204302916E+03  0.00000000000E+00 0.  1.
         24    2    1    2    0    0  0.13125652955E+02 -0.75300420411E+02 -0.32647532087E+01  0.10986037564E+03  0.78842928929E+02 0.  0.
         25    2    1    2    0    0 -0.22664155875E+02 -0.67021130332E+01  0.33699853933E+02  0.13168852799E+03  0.12509039119E+03 0.  0.
        -24    2    1    2    0    0  0.95385029203E+01  0.82002533444E+02  0.50430138144E+03  0.51727363686E+03  0.80229256106E+02 0.  0.
        -11    1    3    3    0    0  0.20474402180E+02 -0.70866708301E+02 -0.31603801164E+02  0.80250182168E+02  0.00000000000E+00 0.  1.
         12    1    3    3    0    0 -0.73487492253E+01 -0.44337121103E+01  0.28339047956E+02  0.29610193469E+02  0.00000000000E+00 0. -1.
         13    1    5    5    0    0 -0.15329115187E+02  0.16677494072E+02  0.30920770096E+03  0.31003632515E+03  0.00000000000E+00 0. -1.
        -14    1    5    5    0    0  0.24867618108E+02  0.65325039372E+02  0.19509368048E+03  0.20723731171E+03  0.00000000000E+00 0.  1.
          5    1    4    4  501    0 -0.51195824526E+02  0.39801533234E+02 -0.42140632798E+01  0.65118393915E+02  0.41800000000E+01 0.  1.
         -5    1    4    4    0  501  0.28531668651E+02 -0.46503646268E+02  0.37913917213E+02  0.66570134074E+02  0.41800000000E+01 0.  1.
</event>
<event>
11    1  0.9238666E-009  0.2651889E+03  0.7561462E-02  0.1016105E+00
         22   -1    0    0    0    0  0.00000000000E+00  0.00000000000E+00  0.14968209793E+04  0.14968209793E+04  0.00000000000E+00 0.  1.
         22   -1    0    0    0    0 -0.00000000000E+00 -0.00000000000E+00 -0.19428886272E+03  0.19428886272E+03  0.00000000000E+00 0.  1.
         24    2    1    2    0    0  0.61350090882E+01 -0.21961019909E+03  0.56535890910E+02  0.24542361686E+03  0.93649169087E+02 0.  0.
         25    2    1    2    0    0 -0.38669611643E+02  0.25112443398E+03  0.10704388114E+03  0.30276274545E+03  0.12509223533E+03 0.  0.
        -24    2    1    2    0    0  0.32534602554E+02 -0.31514234884E+02  0.11389523446E+04  0.11429234797E+04  0.83725682916E+02 0.  0.
        -11    1    3    3    0    0 -0.17111545402E+02 -0.20516568071E+03  0.31390651213E+02  0.20825737564E+03  0.00000000000E+00 0.  1.
         12    1    3    3    0    0  0.23246554490E+02 -0.14444518388E+02  0.25145239697E+02  0.37166241221E+02  0.00000000000E+00 0. -1.
         11    1    5    5    0    0  0.41594191173E+02  0.76760047296E+00  0.25793110634E+03  0.26126446672E+03  0.00000000000E+00 0. -1.
        -12    1    5    5    0    0 -0.90595886186E+01 -0.32281835357E+02  0.88102123822E+03  0.88165901302E+03  0.00000000000E+00 0.  1.
          5    1    4    4  501    0 -0.83899349855E+02  0.15349251072E+03  0.75386599370E+02  0.19052470579E+03  0.41800000000E+01 0.  1.
         -5    1    4    4    0  501  0.45229738212E+02  0.97631923258E+02  0.31657281767E+02  0.11223803966E+03  0.41800000000E+01 0.  1.
</event>
<event>
11    1  0.9238666E-009  0.1612716E+03  0.7561462E-02  0.1085887E+00
         22   -1    0    0    0    0  0.00000000000E+00  0.00000000000E+00  0.10780788694E+04  0.10780788694E+04  0.00000000000E+00 0.  1.
         22   -1    0    0    0    0 -0.00000000000E+00 -0.00000000000E+00 -0.44739644146E+03  0.44739644146E+03  0.00000000000E+00 0.  1.
        -24    2    1    2    0    0 -0.29022936893E+02  0.11160781458E+03 -0.33151542508E+03  0.35970836874E+03  0.78670187106E+02 0.  0.
         25    2    1    2    0    0  0.17499034064E+02 -0.53446952993E+02 -0.51923636007E+02  0.14667750008E+03  0.12512166909E+03 0.  0.
         24    2    1    2    0    0  0.11523902830E+02 -0.58160861583E+02  0.10141214890E+04  0.10190894420E+04  0.81150540358E+02 0.  0.
        -13    1    5    5    0    0 -0.59225348184E+01 -0.37306259911E+01  0.68539457185E+03  0.68543031236E+03  0.00000000000E+00 0.  1.
         14    1    5    5    0    0  0.17446437648E+02 -0.54430235592E+02  0.32872691715E+03  0.33365912964E+03  0.00000000000E+00 0. -1.
         11    1    3    3    0    0 -0.98915741997E+01  0.26416987173E+02 -0.19916069094E+03  0.20114840608E+03  0.00000000000E+00 0. -1.
        -12    1    3    3    0    0 -0.19131362694E+02  0.85190827403E+02 -0.13235473413E+03  0.15855996266E+03  0.00000000000E+00 0.  1.
          5    1    4    4  501    0 -0.21713209134E+02  0.33153387901E+02 -0.37633770202E+01  0.40028064990E+02  0.41800000000E+01 0. -1.
         -5    1    4    4    0  501  0.39212243198E+02 -0.86600340894E+02 -0.48160258987E+02  0.10664943509E+03  0.41800000000E+01 0. -1.
</event>
<event>
11    1  0.9238666E-009  0.1304585E+03  0.7561462E-02  0.1118707E+00
         22   -1    0    0    0    0  0.00000000000E+00  0.00000000000E+00  0.43733377246E+03  0.43733377246E+03  0.00000000000E+00 0.  1.
         22   -1    0    0    0    0 -0.00000000000E+00 -0.00000000000E+00 -0.37904327871E+03  0.37904327871E+03  0.00000000000E+00 0.  1.
        -24    2    1    2    0    0  0.60923066292E+01 -0.34072102804E+02 -0.31783611350E+03  0.32960225720E+03  0.80123832399E+02 0.  0.
         25    2    1    2    0    0  0.31419126546E+02  0.33683247060E+02  0.39981515500E+02  0.13917482074E+03  0.12509750798E+03 0.  0.
         24    2    1    2    0    0 -0.37511433175E+02  0.38885574414E+00  0.33614509175E+03  0.34759997323E+03  0.80155847271E+02 0.  0.
        -11    1    5    5    0    0 -0.52977666143E+02 -0.23366963533E+02  0.18606134374E+03  0.19486269968E+03  0.00000000000E+00 0.  1.
         12    1    5    5    0    0  0.15466232968E+02  0.23755819277E+02  0.15008374801E+03  0.15273727354E+03  0.00000000000E+00 0. -1.
         13    1    3    3    0    0  0.23657852296E+02 -0.47310643545E+02 -0.12804265808E+03  0.13853849016E+03  0.00000000000E+00 0. -1.
        -14    1    3    3    0    0 -0.17565545667E+02  0.13238540741E+02 -0.18979345542E+03  0.19106376704E+03  0.00000000000E+00 0.  1.
          5    1    4    4  501    0  0.22402301925E+02  0.81418242619E+02  0.24966945197E+02  0.88156758760E+02  0.41800000000E+01 0. -1.
         -5    1    4    4    0  501  0.90168246217E+01 -0.47734995559E+02  0.15014570303E+02  0.51018061984E+02  0.41800000000E+01 0. -1.
</event>
<event>
11    1  0.9238666E-009  0.1713443E+03  0.7561462E-02  0.1076868E+00
         22   -1    0    0    0    0  0.00000000000E+00  0.00000000000E+00  0.76013931388E+03  0.76013931388E+03  0.00000000000E+00 0. -1.
         22   -1    0    0    0    0 -0.00000000000E+00 -0.00000000000E+00 -0.48755515107E+03  0.48755515107E+03  0.00000000000E+00 0. -1.
         24    2    1    2    0    0 -0.21623813157E+02 -0.36378705860E+01 -0.41023376880E+03  0.41849980271E+03  0.79809250098E+02 0.  0.
         25    2    1    2    0    0 -0.97759995183E+02  0.48974825269E+01  0.31035557795E+02  0.16183905420E+03  0.12509065362E+03 0.  0.
        -24    2    1    2    0    0  0.11938380834E+03 -0.12596119409E+01  0.65178237381E+03  0.66735560804E+03  0.79304252454E+02 0.  0.
        -11    1    3    3    0    0 -0.24764175792E+02 -0.93473440437E+01 -0.38570919600E+02  0.46779836277E+02  0.00000000000E+00 0.  1.
         12    1    3    3    0    0  0.31403626350E+01  0.57094734577E+01 -0.37166284920E+03  0.37171996643E+03  0.00000000000E+00 0. -1.
         13    1    5    5    0    0  0.90443762511E+02  0.18753215107E+02  0.58114802096E+03  0.58844267310E+03  0.00000000000E+00 0. -1.
        -14    1    5    5    0    0  0.28940045829E+02 -0.20012827048E+02  0.70634352850E+02  0.78912934945E+02  0.00000000000E+00 0.  1.
          5    1    4    4  501    0  0.82473126540E+01 -0.23399491793E+02 -0.27614739950E+02  0.37357738752E+02  0.41800000000E+01 0. -1.
         -5    1    4    4    0  501 -0.10600730784E+03  0.28296974320E+02  0.58650297745E+02  0.12448131545E+03  0.41800000000E+01 0. -1.
</event>
<event>
11    1  0.9238666E-009  0.2685241E+03  0.7561462E-02  0.1014469E+00
         22   -1    0    0    0    0  0.00000000000E+00  0.00000000000E+00  0.10956063485E+04  0.10956063485E+04  0.00000000000E+00 0.  1.
         22   -1    0    0    0    0 -0.00000000000E+00 -0.00000000000E+00 -0.14111341991E+03  0.14111341991E+03  0.00000000000E+00 0. -1.
         24    2    1    2    0    0 -0.18265958521E+03  0.14438134301E+03  0.93261736743E+02  0.26509309121E+03  0.85825982023E+02 0.  0.
         25    2    1    2    0    0  0.20493679418E+03 -0.13926837039E+03  0.31303081867E+03  0.41836653982E+03  0.12508996605E+03 0.  0.
        -24    2    1    2    0    0 -0.22277208976E+02 -0.51129726149E+01  0.54820037318E+03  0.55326013737E+03  0.71068375018E+02 0.  0.
        -13    1    3    3    0    0 -0.87311726037E+02  0.17922358402E+02  0.24532935699E+02  0.92446813727E+02  0.00000000000E+00 0.  1.
         14    1    3    3    0    0 -0.95347859169E+02  0.12645898461E+03  0.68728801044E+02  0.17264627748E+03  0.00000000000E+00 0. -1.
         11    1    5    5    0    0 -0.11476956995E+02 -0.37832635685E+02  0.32926061269E+03  0.33162566236E+03  0.00000000000E+00 0. -1.
        -12    1    5    5    0    0 -0.10800251981E+02  0.32719663070E+02  0.21893976049E+03  0.22163447502E+03  0.00000000000E+00 0.  1.
          5    1    4    4  501    0  0.73052983648E+02 -0.12316014204E+03  0.18311423194E+03  0.23249398561E+03  0.41800000000E+01 0. -1.
         -5    1    4    4    0  501  0.13188381053E+03 -0.16108228356E+02  0.12991658673E+03  0.18587255421E+03  0.41800000000E+01 0. -1.
</event>
<event>
11    1  0.9238666E-009  0.1333711E+03  0.7561462E-02  0.1115195E+00
         22   -1    0    0    0    0  0.00000000000E+00  0.00000000000E+00  0.62377255651E+03  0.62377255651E+03  0.00000000000E+00 0.  1.
         22   -1    0    0    0    0 -0.00000000000E+00 -0.00000000000E+00 -0.90558428932E+03  0.90558428932E+03  0.00000000000E+00 0.  1.
        -24    2    1    2    0    0  0.26342684864E+01 -0.83438167069E+01 -0.85737977311E+03  0.86110042889E+03  0.79481536508E+02 0.  0.
         25    2    1    2    0    0 -0.41760974543E+02 -0.16690570651E+02  0.61960226179E+02  0.14666124009E+03  0.12509154876E+03 0.  0.
         24    2    1    2    0    0  0.39126706057E+02  0.25034387358E+02  0.51360781413E+03  0.52159517685E+03  0.78172387088E+02 0.  0.
        -13    1    5    5    0    0  0.52593648771E+02  0.28383245012E+02  0.49383792622E+03  0.49744104964E+03  0.00000000000E+00 0.  1.
         14    1    5    5    0    0 -0.13466942714E+02 -0.33488576533E+01  0.19769887906E+02  0.24154127214E+02  0.00000000000E+00 0. -1.
         13    1    3    3    0    0 -0.28226449599E+02  0.22645263273E+02 -0.37475785375E+03  0.37650098187E+03  0.00000000000E+00 0. -1.
        -14    1    3    3    0    0  0.30860718085E+02 -0.30989079980E+02 -0.48262191936E+03  0.48459944702E+03  0.00000000000E+00 0.  1.
          5    1    4    4  501    0 -0.19203735379E+02  0.42657426086E+02 -0.12614122148E+02  0.48631552827E+02  0.41800000000E+01 0.  1.
         -5    1    4    4    0  501 -0.22557239164E+02 -0.59347996738E+02  0.74574348327E+02  0.98029687258E+02  0.41800000000E+01 0.  1.
</event>
<event>
11    1  0.9238666E-009  0.2154906E+03  0.7561462E-02  0.1044080E+00
         22   -1    0    0    0    0  0.00000000000E+00  0.00000000000E+00  0.34626318103E+04  0.34626318103E+04  0.00000000000E+00 0.  1.
         22   -1    0    0    0    0 -0.00000000000E+00 -0.00000000000E+00 -0.83034703934E+03  0.83034703934E+03  0.00000000000E+00 0. -1.
         24    2    1    2    0    0  0.27632941752E+02  0.15044712166E+02 -0.71564511341E+03  0.72091835641E+03  0.81150634214E+02 0.  0.
         25    2    1    2    0    0  0.21175808942E+02 -0.18338637775E+03  0.44629166478E+01  0.22305784153E+03  0.12512355739E+03 0.  0.
        -24    2    1    2    0    0 -0.48808750694E+02  0.16834166559E+03  0.33434669677E+04  0.33490026517E+04  0.79537326650E+02 0.  0.
        -11    1    3    3    0    0  0.53911057556E+02  0.51657143173E+01 -0.57181880587E+03  0.57437777941E+03  0.00000000000E+00 0.  1.
         12    1    3    3    0    0 -0.26278115804E+02  0.98789978490E+01 -0.14382630753E+03  0.14654057700E+03  0.00000000000E+00 0. -1.
         11    1    5    5    0    0 -0.37676903775E+02  0.18396675187E+02  0.79254237573E+03  0.79365068139E+03  0.00000000000E+00 0. -1.
        -12    1    5    5    0    0 -0.11131846919E+02  0.14994499040E+03  0.25509245920E+04  0.25553519703E+04  0.00000000000E+00 0.  1.
          5    1    4    4  501    0 -0.28063013693E+02 -0.16412155344E+03 -0.13395196775E+02  0.16709374835E+03  0.41800000000E+01 0. -1.
         -5    1    4    4    0  501  0.49238822634E+02 -0.19264824310E+02  0.17858113423E+02  0.55964093177E+02  0.41800000000E+01 0. -1.
</event>
<event>
11    1  0.9238666E-009  0.3690221E+03  0.7561462E-02  0.9745858E-01
         22   -1    0    0    0    0  0.00000000000E+00  0.00000000000E+00  0.52209475724E+03  0.52209475724E+03  0.00000000000E+00 0.  1.
         22   -1    0    0    0    0 -0.00000000000E+00 -0.00000000000E+00 -0.54392516596E+03  0.54392516596E+03  0.00000000000E+00 0.  1.
        -24    2    1    2    0    0  0.13844615765E+03  0.13598576956E+03 -0.24175858415E+03  0.32015552444E+03  0.79955479681E+02 0.  0.
         25    2    1    2    0    0  0.78651654485E+02  0.59076273011E+02 -0.18263421922E+03  0.24223806667E+03  0.12509170288E+03 0.  0.
         24    2    1    2    0    0 -0.21709781213E+03 -0.19506204257E+03  0.40256239464E+03  0.50362633209E+03  0.80014625566E+02 0.  0.
        -11    1    5    5    0    0 -0.12463629741E+03 -0.16204001465E+03  0.27440954471E+03  0.34218674902E+03  0.00000000000E+00 0.  1.
         12    1    5    5    0    0 -0.92461514728E+02 -0.33022027923E+02  0.12815284993E+03  0.16143958306E+03  0.00000000000E+00 0. -1.
         13    1    3    3    0    0 -0.55222076753E+01  0.31542029203E+02 -0.37297177582E+02  0.49157642737E+02  0.00000000000E+00 0. -1.
        -14    1    3    3    0    0  0.14396836532E+03  0.10444374036E+03 -0.20446140657E+03  0.27099788171E+03  0.00000000000E+00 0.  1.
          5    1    4    4  501    0 -0.12065316628E+00  0.76267573977E+02 -0.10807346313E+03  0.13234086002E+03  0.41800000000E+01 0. -1.
         -5    1    4    4    0  501  0.78772307651E+02 -0.17191300967E+02 -0.74560756089E+02  0.10989720665E+03  0.41800000000E+01 0. -1.
</event>
<event>
11    1  0.9238666E-009  0.1944122E+03  0.7561462E-02  0.1058547E+00
         22   -1    0    0    0    0  0.00000000000E+00  0.00000000000E+00  0.54850731657E+03  0.54850731657E+03  0.00000000000E+00 0.  1.
         22   -1    0    0    0    0 -0.00000000000E+00 -0.00000000000E+00 -0.38001511701E+03  0.38001511701E+03  0.00000000000E+00 0. -1.
         24    2    1    2    0    0 -0.36085745372E+02  0.18173526488E+02 -0.27157908200E+03  0.28596343078E+03  0.79921385634E+02 0.  0.
         25    2    1    2    0    0 -0.11847793230E+03 -0.23575832359E+02  0.50598382474E+01  0.17397553077E+03  0.12509613515E+03 0.  0.
        -24    2    1    2    0    0  0.15456367768E+03  0.54023058715E+01  0.43501144332E+03  0.46858347202E+03  0.80102428603E+02 0.  0.
        -13    1    3    3    0    0 -0.42852950595E+02  0.33459598942E+01 -0.60273402977E+02  0.74030087996E+02  0.00000000000E+00 0.  1.
         14    1    3    3    0    0  0.67672052237E+01  0.14827566593E+02 -0.21130567902E+03  0.21193334279E+03  0.00000000000E+00 0. -1.
         11    1    5    5    0    0  0.16262648297E+02  0.47610020532E+01  0.62381948094E+01  0.18057019263E+02  0.00000000000E+00 0. -1.
        -12    1    5    5    0    0  0.13830102938E+03  0.64130381824E+00  0.42877324851E+03  0.45052645276E+03  0.00000000000E+00 0.  1.
          5    1    4    4  501    0 -0.73896742955E+02 -0.10217911810E+02 -0.58636394901E+02  0.94978068774E+02  0.41800000000E+01 0.  1.
         -5    1    4    4    0  501 -0.44581189350E+02 -0.13357920549E+02  0.63696233148E+02  0.78997462000E+02  0.41800000000E+01 0.  1.
</event>
<event>
11    1  0.9238666E-009  0.1303266E+03  0.7561462E-02  0.1118868E+00
         22   -1    0    0    0    0  0.00000000000E+00  0.00000000000E+00  0.50755833628E+03  0.50755833628E+03  0.00000000000E+00 0.  1.
         22   -1    0    0    0    0 -0.00000000000E+00 -0.00000000000E+00 -0.24362486072E+03  0.24362486072E+03  0.00000000000E+00 0.  1.
         24    2    1    2    0    0  0.23778066693E+02 -0.20276716293E+02 -0.20610793909E+03  0.22360562334E+03  0.80885416200E+02 0.  0.
         25    2    1    2    0    0 -0.35880002724E+01  0.48996731671E+02  0.18273176234E+03  0.22683929443E+03  0.12510641499E+03 0.  0.
        -24    2    1    2    0    0 -0.20190066420E+02 -0.28720015379E+02  0.28730965231E+03  0.30073827922E+03  0.81634540568E+02 0.  0.
        -13    1    3    3    0    0 -0.19471943253E+00 -0.31861173761E+02 -0.18964288776E+03  0.19230079871E+03  0.00000000000E+00 0.  1.
         14    1    3    3    0    0  0.23972786125E+02  0.11584457468E+02 -0.16465051333E+02  0.31304824625E+02  0.00000000000E+00 0. -1.
         11    1    5    5    0    0  0.16323123470E+01  0.27662847275E+02  0.10856073679E+03  0.11204164911E+03  0.00000000000E+00 0. -1.
        -12    1    5    5    0    0 -0.21822378768E+02 -0.56382862654E+02  0.17874891552E+03  0.18869663011E+03  0.00000000000E+00 0.  1.
          5    1    4    4  501    0 -0.17261811694E+02 -0.22267931204E+02 -0.17681580317E+01  0.28538214483E+02  0.41800000000E+01 0. -1.
         -5    1    4    4    0  501  0.13673811422E+02  0.71264662875E+02  0.18449992037E+03  0.19830107995E+03  0.41800000000E+01 0. -1.
</event>
<event>
11    1  0.9238666E-009  0.1486057E+03  0.7561462E-02  0.1098312E+00
         22   -1    0    0    0    0  0.00000000000E+00  0.00000000000E+00  0.17577632996E+04  0.17577632996E+04  0.00000000000E+00 0.  1.
         22   -1    0    0    0    0 -0.00000000000E+00 -0.00000000000E+00 -0.75278244336E+03  0.75278244336E+03  0.00000000000E+00 0. -1.
         24    2    1    2    0    0  0.16507024111E+02  0.12003150247E+02 -0.73570482694E+03  0.74044669358E+03  0.81136651357E+02 0.  0.
         25    2    1    2    0    0  0.50727409601E+02 -0.57799367324E+02  0.43013116429E+03  0.45450251105E+03  0.12508268111E+03 0.  0.
        -24    2    1    2    0    0 -0.67234433713E+02  0.45796217076E+02  0.13105545189E+04  0.13155965384E+04  0.81383917909E+02 0.  0.
        -13    1    3    3    0    0 -0.70873018539E+01 -0.54551728025E+01 -0.75606633405E+01  0.11711207795E+02  0.00000000000E+00 0.  1.
         14    1    3    3    0    0  0.23594325965E+02  0.17458323050E+02 -0.72814416360E+03  0.72873548579E+03  0.00000000000E+00 0. -1.
         11    1    5    5    0    0  0.98687267220E+01 -0.11353001711E+02  0.87620661888E+02  0.88902546671E+02  0.00000000000E+00 0. -1.
        -12    1    5    5    0    0 -0.77103160435E+02  0.57149218787E+02  0.12229338570E+04  0.12266939917E+04  0.00000000000E+00 0.  1.
          5    1    4    4  501    0  0.59011110159E+02 -0.27457285871E+02  0.81282454493E+02  0.10421383535E+03  0.41800000000E+01 0. -1.
         -5    1    4    4    0  501 -0.82837005580E+01 -0.30342081453E+02  0.34884870979E+03  0.35028867570E+03  0.41800000000E+01 0. -1.
</event>
<event>
11    1  0.9238666E-009  0.1381931E+03  0.7561462E-02  0.1109593E+00
         22   -1    0    0    0    0  0.00000000000E+00  0.00000000000E+00  0.48528688603E+03  0.48528688603E+03  0.00000000000E+00 0. -1.
         22   -1    0    0    0    0 -0.00000000000E+00 -0.00000000000E+00 -0.25125225934E+04  0.25125225934E+04  0.00000000000E+00 0.  1.
        -24    2    1    2    0    0 -0.29476304019E+02  0.51149767535E+02 -0.24669163446E+04  0.24688898616E+04  0.79093275371E+02 0.  0.
         25    2    1    2    0    0  0.21573601840E+02 -0.18588598965E+02  0.64661051428E+02  0.14366532800E+03  0.12509084135E+03 0.  0.
         24    2    1    2    0    0  0.79027021792E+01 -0.32561168569E+02  0.37501958582E+03  0.38525428981E+03  0.81599605796E+02 0.  0.
        -13    1    5    5    0    0  0.21027995428E+02  0.21508510637E+01  0.22822245994E+02  0.31107196341E+02  0.00000000000E+00 0.  1.
         14    1    5    5    0    0 -0.13125293249E+02 -0.34712019633E+02  0.35219733983E+03  0.35414709347E+03  0.00000000000E+00 0. -1.
         13    1    3    3    0    0 -0.23030115997E+02 -0.13458327412E+02 -0.12133232193E+04  0.12136163922E+04  0.00000000000E+00 0. -1.
        -14    1    3    3    0    0 -0.64461880220E+01  0.64608094947E+02 -0.12535931253E+04  0.12552734694E+04  0.00000000000E+00 0.  1.
          5    1    4    4  501    0 -0.38731028328E+01  0.31224514955E+02  0.79534959115E+02  0.85634417037E+02  0.41800000000E+01 0. -1.
         -5    1    4    4    0  501  0.25446704673E+02 -0.49813113920E+02 -0.14873907688E+02  0.58030910961E+02  0.41800000000E+01 0. -1.
</event>
<event>
11    1  0.9238666E-009  0.4808635E+03  0.7561462E-02  0.9437329E-01
         22   -1    0    0    0    0  0.00000000000E+00  0.00000000000E+00  0.10479665752E+04  0.10479665752E+04  0.00000000000E+00 0.  1.
         22   -1    0    0    0    0 -0.00000000000E+00 -0.00000000000E+00 -0.70553788506E+03  0.70553788506E+03  0.00000000000E+00 0. -1.
         24    2    1    2    0    0 -0.35692815064E+03 -0.27591129671E+03 -0.39271362618E+03  0.60363472554E+03  0.81401113770E+02 0.  0.
         25    2    1    2    0    0  0.39307489532E+03  0.31878122188E+03  0.13013080264E+03  0.53731766402E+03  0.12508759136E+03 0.  0.
        -24    2    1    2    0    0 -0.36146744688E+02 -0.42869925166E+02  0.60501151372E+03  0.61255207074E+03  0.77696138918E+02 0.  0.
        -13    1    3    3    0    0 -0.21812517663E+03 -0.13281449640E+03 -0.25807632729E+03  0.36307254625E+03  0.00000000000E+00 0.  1.
         14    1    3    3    0    0 -0.13880297400E+03 -0.14309680031E+03 -0.13463729889E+03  0.24056217929E+03  0.00000000000E+00 0. -1.
         13    1    5    5    0    0  0.14171234618E+02  0.35686313188E+01  0.28889217728E+02  0.32375081792E+02  0.00000000000E+00 0. -1.
        -14    1    5    5    0    0 -0.50317979306E+02 -0.46438556485E+02  0.57612229599E+03  0.58017698895E+03  0.00000000000E+00 0.  1.
          5    1    4    4  501    0  0.39812168575E+03  0.31530571370E+03  0.11539263099E+03  0.52081810783E+03  0.41800000000E+01 0.  1.
         -5    1    4    4    0  501 -0.50467904263E+01  0.34755081795E+01  0.14738171654E+02  0.16499556189E+02  0.41800000000E+01 0.  1.
</event>
<event>
11    1  0.9238666E-009  0.1822258E+03  0.7561462E-02  0.1067857E+00
         22   -1    0    0    0    0  0.00000000000E+00  0.00000000000E+00  0.24230222397E+04  0.24230222397E+04  0.00000000000E+00 0.  1.
         22   -1    0    0    0    0 -0.00000000000E+00 -0.00000000000E+00 -0.52208316534E+03  0.52208316534E+03  0.00000000000E+00 0.  1.
         24    2    1    2    0    0  0.12382215010E+03  0.42956511411E+02 -0.43898247799E+03  0.46533345963E+03  0.81562405183E+02 0.  0.
         25    2    1    2    0    0 -0.11243277744E+03 -0.12914450416E+03  0.96142199107E+02  0.23283100450E+03  0.12509005479E+03 0.  0.
        -24    2    1    2    0    0 -0.11389372661E+02  0.86187992752E+02  0.22437793533E+04  0.22469409409E+04  0.81484464495E+02 0.  0.
        -13    1    3    3    0    0  0.13131090785E+03  0.51599186732E+02 -0.42110887238E+03  0.44411452688E+03  0.00000000000E+00 0.  1.
         14    1    3    3    0    0 -0.74887577502E+01 -0.86426753207E+01 -0.17873605615E+02  0.21218932750E+02  0.00000000000E+00 0. -1.
         13    1    5    5    0    0  0.21140317468E+02  0.29451596314E+02  0.31945047241E+03  0.32150103246E+03  0.00000000000E+00 0. -1.
        -14    1    5    5    0    0 -0.32529690129E+02  0.56736396439E+02  0.19243288808E+04  0.19254399085E+04  0.00000000000E+00 0.  1.
          5    1    4    4  501    0  0.21406050815E+02 -0.50061754983E+02  0.39203137739E+02  0.67221698372E+02  0.41800000000E+01 0.  1.
         -5    1    4    4    0  501 -0.13383882825E+03 -0.79082749180E+02  0.56939061368E+02  0.16560930613E+03  0.41800000000E+01 0.  1.
</event>
<event>
11    1  0.9238666E-009  0.1484511E+03  0.7561462E-02  0.1098472E+00
         22   -1    0    0    0    0  0.00000000000E+00  0.00000000000E+00  0.16365283844E+04  0.16365283844E+04  0.00000000000E+00 0. -1.
         22   -1    0    0    0    0 -0.00000000000E+00 -0.00000000000E+00 -0.26493850695E+03  0.26493850695E+03  0.00000000000E+00 0. -1.
        -24    2    1    2    0    0 -0.47117875026E+01  0.29305174376E+02 -0.95252480047E+02  0.12814727035E+03  0.80421973092E+02 0.  0.
         25    2    1    2    0    0  0.80120060536E+02 -0.55262298474E+02 -0.10965699608E+03  0.19273148167E+03  0.12509045330E+03 0.  0.
         24    2    1    2    0    0 -0.75408273033E+02  0.25957124099E+02  0.15764993536E+04  0.15805881393E+04  0.80922644915E+02 0.  0.
        -11    1    5    5    0    0 -0.80397722143E+02  0.40919252632E+02  0.10548730763E+04  0.10587234701E+04  0.00000000000E+00 0.  1.
         12    1    5    5    0    0  0.49894491092E+01 -0.14962128533E+02  0.52162627728E+03  0.52186466928E+03  0.00000000000E+00 0. -1.
         11    1    3    3    0    0 -0.28979210849E+02  0.24507997828E+02 -0.96175270194E+02  0.10339303272E+03  0.00000000000E+00 0. -1.
        -12    1    3    3    0    0  0.24267423347E+02  0.47971765481E+01  0.92279014702E+00  0.24754237624E+02  0.00000000000E+00 0.  1.
          5    1    4    4  501    0  0.85019289943E+02 -0.56362541634E+02 -0.21496499132E+02  0.10432922715E+03  0.41800000000E+01 0. -1.
         -5    1    4    4    0  501 -0.48992294075E+01  0.11002431597E+01 -0.88160496945E+02  0.88402254527E+02  0.41800000000E+01 0. -1.
</event>
<event>
11    1  0.9238666E-009  0.1508513E+03  0.7561462E-02  0.1096012E+00
         22   -1    0    0    0    0  0.00000000000E+00  0.00000000000E+00  0.22703931193E+04  0.22703931193E+04  0.00000000000E+00 0. -1.
         22   -1    0    0    0    0 -0.00000000000E+00 -0.00000000000E+00 -0.97641721620E+03  0.97641721620E+03  0.00000000000E+00 0.  1.
        -24    2    1    2    0    0  0.56772082512E+02 -0.62523658960E+02 -0.96410750111E+03  0.97118252149E+03  0.80993450733E+02 0.  0.
         25    2    1    2    0    0 -0.47859807552E+02  0.35640195579E+02  0.62493547423E+03  0.64011973052E+03  0.12509251668E+03 0.  0.
         24    2    1    2    0    0 -0.89122749606E+01  0.26883463381E+02  0.16331479300E+04  0.16355080835E+04  0.83140728451E+02 0.  0.
        -13    1    5    5    0    0  0.42842435272E+00 -0.10259928163E+02  0.26744950547E+02  0.28648596006E+02  0.00000000000E+00 0.  1.
         14    1    5    5    0    0 -0.93406993134E+01  0.37143391544E+02  0.16064029795E+04  0.16068594875E+04  0.00000000000E+00 0. -1.
         11    1    3    3    0    0 -0.17356018884E+02 -0.22206313642E+02 -0.14303478512E+03  0.14578512102E+03  0.00000000000E+00 0. -1.
        -12    1    3    3    0    0  0.74128101397E+02 -0.40317345318E+02 -0.82107271599E+03  0.82539740047E+03  0.00000000000E+00 0.  1.
          5    1    4    4  501    0 -0.20770151775E+02  0.16564393587E+02  0.59396771348E+03  0.59457623177E+03  0.41800000000E+01 0.  1.
         -5    1    4    4    0  501 -0.27089655776E+02  0.19075801992E+02  0.30967760749E+02  0.45543498741E+02  0.41800000000E+01 0.  1.
</event>
<event>
11    1  0.9238666E-009  0.2344471E+03  0.7561462E-02  0.1032527E+00
         22   -1    0    0    0    0  0.00000000000E+00  0.00000000000E+00  0.83824209322E+03  0.83824209322E+03  0.00000000000E+00 0. -1.
         22   -1    0    0    0    0 -0.00000000000E+00 -0.00000000000E+00 -0.28862627589E+04  0.28862627589E+04  0.00000000000E+00 0. -1.
        -24    2    1    2    0    0  0.47240698450E+02  0.48816060436E+01 -0.28197061989E+04  0.28211533819E+04  0.76862488039E+02 0.  0.
         25    2    1    2    0    0 -0.15147624260E+03 -0.16091141152E+03  0.32662864223E+03  0.41372872703E+03  0.12509058802E+03 0.  0.
         24    2    1    2    0    0  0.10423554415E+03  0.15602980548E+03  0.44505689097E+03  0.48962274327E+03  0.80277304788E+02 0.  0.
        -11    1    5    5    0    0 -0.38532639845E+01  0.46707555136E+02  0.69577083998E+02  0.83889295907E+02  0.00000000000E+00 0.  1.
         12    1    5    5    0    0  0.10808880814E+03  0.10932225034E+03  0.37547980697E+03  0.40573344736E+03  0.00000000000E+00 0. -1.
         11    1    3    3    0    0  0.49875809640E+02  0.30792326251E+02 -0.14264790738E+04  0.14276828470E+04  0.00000000000E+00 0. -1.
        -12    1    3    3    0    0 -0.26351111901E+01 -0.25910720207E+02 -0.13932271251E+04  0.13934705348E+04  0.00000000000E+00 0.  1.
          5    1    4    4  501    0 -0.13998610951E+03 -0.12861479768E+03  0.17567897195E+03  0.25887922014E+03  0.41800000000E+01 0.  1.
         -5    1    4    4    0  501 -0.11490133095E+02 -0.32296613842E+02  0.15094967028E+03  0.15484950689E+03  0.41800000000E+01 0.  1.
</event>
<event>
11    1  0.9238666E-009  0.3416353E+03  0.7561462E-02  0.9839634E-01
         22   -1    0    0    0    0  0.00000000000E+00  0.00000000000E+00  0.76387226209E+03  0.76387226209E+03  0.00000000000E+00 0. -1.
         22   -1    0    0    0    0 -0.00000000000E+00 -0.00000000000E+00 -0.78502184245E+03  0.78502184245E+03  0.00000000000E+00 0.  1.
        -24    2    1    2    0    0  0.94828700602E+02  0.24387708980E+03 -0.36044896972E+03  0.45257860220E+03  0.80221032198E+02 0.  0.
         25    2    1    2    0    0 -0.24345594130E+03  0.59936970827E+02 -0.27453802087E+03  0.39227797073E+03  0.12509054956E+03 0.  0.
         24    2    1    2    0    0  0.14862724069E+03 -0.30381406063E+03  0.61383741023E+03  0.70403753162E+03  0.66928615779E+02 0.  0.
        -13    1    5    5    0    0  0.79462046370E+02 -0.90490670863E+02  0.22241916198E+03  0.25292896620E+03  0.00000000000E+00 0.  1.
         14    1    5    5    0    0  0.69165194324E+02 -0.21332338977E+03  0.39141824825E+03  0.45110856541E+03  0.00000000000E+00 0. -1.
         13    1    3    3    0    0  0.10514067559E+03  0.21330286251E+03 -0.33798215922E+03  0.41326094997E+03  0.00000000000E+00 0. -1.
        -14    1    3    3    0    0 -0.10311974991E+02  0.30574227289E+02 -0.22466810500E+02  0.39317652226E+02  0.00000000000E+00 0.  1.
          5    1    4    4  501    0 -0.17993140659E+03  0.67291553636E+02 -0.26523365775E+03  0.32752073197E+03  0.41800000000E+01 0.  1.
         -5    1    4    4    0  501 -0.63524534709E+02 -0.73545828090E+01 -0.93043631210E+01  0.64757238757E+02  0.41800000000E+01 0.  1.
</event>
<event>
11    1  0.9238666E-009  0.1358661E+03  0.7561462E-02  0.1112264E+00
         22   -1    0    0    0    0  0.00000000000E+00  0.00000000000E+00  0.57444139054E+03  0.57444139054E+03  0.00000000000E+00 0. -1.
         22   -1    0    0    0    0 -0.00000000000E+00 -0.00000000000E+00 -0.39981095972E+03  0.39981095972E+03  0.00000000000E+00 0.  1.
        -24    2    1    2    0    0 -0.30209956519E+02 -0.46830783214E+02 -0.25174561161E+03  0.27001131726E+03  0.80152946013E+02 0.  0.
         25    2    1    2    0    0  0.44222800081E+02  0.21278579138E+02 -0.10221648056E+03  0.16883116373E+03  0.12508924402E+03 0.  0.
         24    2    1    2    0    0 -0.14012843562E+02  0.25552204076E+02  0.52859252300E+03  0.53540986927E+03  0.80027481655E+02 0.  0.
        -11    1    5    5    0    0 -0.29128784209E+02  0.25420669334E+02  0.11093380280E+03  0.11747767917E+03  0.00000000000E+00 0.  1.
         12    1    5    5    0    0  0.15115940647E+02  0.13153474220E+00  0.41765872020E+03  0.41793219010E+03  0.00000000000E+00 0. -1.
         13    1    3    3    0    0 -0.26404642872E+02 -0.26417633638E+02 -0.31704376403E+02  0.48992489377E+02  0.00000000000E+00 0. -1.
        -14    1    3    3    0    0 -0.38053136468E+01 -0.20413149576E+02 -0.22004123521E+03  0.22101882789E+03  0.00000000000E+00 0.  1.
          5    1    4    4  501    0 -0.34955750448E+02  0.22797427150E+02 -0.33304514125E+01  0.42073643539E+02  0.41800000000E+01 0. -1.
         -5    1    4    4    0  501  0.79178550530E+02 -0.15188480124E+01 -0.98886029149E+02  0.12675752019E+03  0.41800000000E+01 0. -1.
</event>
<event>
11    1  0.9238666E-009  0.1746591E+03  0.7561462E-02  0.1074047E+00
         22   -1    0    0    0    0  0.00000000000E+00  0.00000000000E+00  0.49442741909E+03  0.49442741909E+03  0.00000000000E+00 0. -1.
         22   -1    0    0    0    0 -0.00000000000E+00 -0.00000000000E+00 -0.36502562736E+03  0.36502562736E+03  0.00000000000E+00 0. -1.
         24    2    1    2    0    0 -0.10407245022E+03  0.87821372897E+02 -0.28003909680E+03  0.32293448523E+03  0.85563529510E+02 0.  0.
         25    2    1    2    0    0  0.16744330822E+02 -0.68573467716E+02  0.41472994570E+02  0.14949868113E+03  0.12508858178E+03 0.  0.
        -24    2    1    2    0    0  0.87328119396E+02 -0.19247905181E+02  0.36796789396E+03  0.38701988008E+03  0.79920800202E+02 0.  0.
        -11    1    3    3    0    0 -0.13826917111E+02  0.17786174073E+02 -0.23298663571E+01  0.22648618108E+02  0.00000000000E+00 0.  1.
         12    1    3    3    0    0 -0.90245533106E+02  0.70035198824E+02 -0.27770923044E+03  0.30028586712E+03  0.00000000000E+00 0. -1.
         13    1    5    5    0    0  0.63712100753E+02 -0.49820169783E+02  0.26377658790E+03  0.27589738930E+03  0.00000000000E+00 0. -1.
        -14    1    5    5    0    0  0.23616018643E+02  0.30572264602E+02  0.10419130606E+03  0.11112249078E+03  0.00000000000E+00 0.  1.
          5    1    4    4  501    0  0.19157127965E+02 -0.38200543915E+02  0.85568581976E+02  0.95737828096E+02  0.41800000000E+01 0.  1.
         -5    1    4    4    0  501 -0.24127971428E+01 -0.30372923801E+02 -0.44095587405E+02  0.53760853034E+02  0.41800000000E+01 0.  1.
</event>
<event>
11    1  0.9238666E-009  0.1416104E+03  0.7561462E-02  0.1105773E+00
         22   -1    0    0    0    0  0.00000000000E+00  0.00000000000E+00  0.16283826224E+03  0.16283826224E+03  0.00000000000E+00 0. -1.
         22   -1    0    0    0    0 -0.00000000000E+00 -0.00000000000E+00 -0.42563973070E+03  0.42563973070E+03  0.00000000000E+00 0.  1.
        -24    2    1    2    0    0 -0.38782533795E+02  0.22711535251E+02 -0.29332553513E+03  0.30420691824E+03  0.66948344157E+02 0.  0.
         25    2    1    2    0    0  0.95982047678E+02 -0.30457896331E+02 -0.36646549159E+02  0.16471246109E+03  0.12508792247E+03 0.  0.
         24    2    1    2    0    0 -0.57199513883E+02  0.77463610800E+01  0.67170615830E+02  0.11955861361E+03  0.80315502602E+02 0.  0.
        -13    1    5    5    0    0 -0.81569675978E+00  0.10653439326E+02 -0.15876779877E+02  0.19137222106E+02  0.00000000000E+00 0.  1.
         14    1    5    5    0    0 -0.56383817123E+02 -0.29070782460E+01  0.83047395707E+02  0.10042139150E+03  0.00000000000E+00 0. -1.
         13    1    3    3    0    0  0.15736281826E+02  0.16996237520E+02 -0.55381987527E+02  0.60030552204E+02  0.00000000000E+00 0. -1.
        -14    1    3    3    0    0 -0.54518815621E+02  0.57152977305E+01 -0.23794354760E+03  0.24417636603E+03  0.00000000000E+00 0.  1.
          5    1    4    4  501    0  0.12201089330E+03 -0.13773503986E+02 -0.92710224779E+01  0.12320629754E+03  0.41800000000E+01 0. -1.
         -5    1    4    4    0  501 -0.26028845617E+02 -0.16684392345E+02 -0.27375526682E+02  0.41506163556E+02  0.41800000000E+01 0. -1.
</event>
<event>
11    1  0.9238666E-009  0.1285362E+03  0.7561462E-02  0.1121081E+00
         22   -1    0    0    0    0  0.00000000000E+00  0.00000000000E+00  0.36907962472E+03  0.36907962472E+03  0.00000000000E+00 0. -1.
         22   -1    0    0    0    0 -0.00000000000E+00 -0.00000000000E+00 -0.37559613751E+03  0.37559613751E+03  0.00000000000E+00 0. -1.
        -24    2    1    2    0    0 -0.13087005553E+02 -0.29649275399E+02 -0.32060100930E+03  0.33219133754E+03  0.80720061503E+02 0.  0.
         25    2    1    2    0    0 -0.18253811101E+02  0.22976688898E+02  0.56145742239E+02  0.14022478108E+03  0.12509802158E+03 0.  0.
         24    2    1    2    0    0  0.31340816655E+02  0.66725865015E+01  0.25793875427E+03  0.27225964361E+03  0.81031736894E+02 0.  0.
        -13    1    5    5    0    0 -0.25938093576E+02  0.13203628799E+02  0.98935545892E+02  0.10312789512E+03  0.00000000000E+00 0.  1.
         14    1    5    5    0    0  0.57278910231E+02 -0.65310422977E+01  0.15900320838E+03  0.16913174848E+03  0.00000000000E+00 0. -1.
         13    1    3    3    0    0  0.97584064956E+01 -0.18787501086E+01 -0.26962513695E+03  0.26980821091E+03  0.00000000000E+00 0. -1.
        -14    1    3    3    0    0 -0.22845412049E+02 -0.27770525291E+02 -0.50975872344E+02  0.62383126627E+02  0.00000000000E+00 0.  1.
          5    1    4    4  501    0 -0.33274519372E+02  0.37284081106E+02  0.88408882325E+02  0.10164103117E+03  0.41800000000E+01 0.  1.
         -5    1    4    4    0  501  0.15020708271E+02 -0.14307392208E+02 -0.32263140086E+02  0.38583749908E+02  0.41800000000E+01 0.  1.
</event>
<event>
11    1  0.2446937E-008  0.1772392E+03  0.7561462E-02  0.1071898E+00
         22   -1    0    0    0    0  0.00000000000E+00  0.00000000000E+00  0.57185855477E+03  0.57185855477E+03  0.00000000000E+00 0. -1.
         22   -1    0    0    0    0 -0.00000000000E+00 -0.00000000000E+00 -0.67425676816E+03  0.67425676816E+03  0.00000000000E+00 0.  1.
         24    2    1    2    0    0  0.54548075602E+02 -0.34290862279E+02 -0.35723145534E+03  0.37165123091E+03  0.79743143702E+02 0.  0.
         25    2    1    2    0    0 -0.17288483709E+03  0.69264535012E+02 -0.25692167373E+03  0.34109137412E+03  0.12509131209E+03 0.  0.
        -24    2    1    2    0    0  0.11833676149E+03 -0.34973672733E+02  0.51175491568E+03  0.53337271790E+03  0.85828990314E+02 0.  0.
        -13    1    3    3    0    0  0.42407958717E+02 -0.37656631510E+02 -0.35417590683E+03  0.35868792820E+03  0.00000000000E+00 0.  1.
         14    1    3    3    0    0  0.12140116885E+02  0.33657692310E+01 -0.30555485103E+01  0.12963302712E+02  0.00000000000E+00 0. -1.
         11    1    5    5    0    0  0.82501508796E+02 -0.32565130800E+02  0.47000057894E+03  0.47829648849E+03  0.00000000000E+00 0. -1.
        -12    1    5    5    0    0  0.35835252693E+02 -0.24085419332E+01  0.41754336732E+02  0.55076229407E+02  0.00000000000E+00 0.  1.
          5    1    4    4  501    0 -0.17911248181E+03  0.51746816418E+02 -0.17078329277E+03  0.25287036132E+03  0.41800000000E+01 0.  1.
         -5    1    4    4    0  501  0.62276447152E+01  0.17517718593E+02 -0.86138380963E+02  0.88221012794E+02  0.41800000000E+01 0.  1.
</event>
<event>
11    1  0.9238666E-009  0.1354327E+03  0.7561462E-02  0.1112768E+00
         22   -1    0    0    0    0  0.00000000000E+00  0.00000000000E+00  0.53448426797E+02  0.53448426797E+02  0.00000000000E+00 0. -1.
         22   -1    0    0    0    0 -0.00000000000E+00 -0.00000000000E+00 -0.20119211185E+04  0.20119211185E+04  0.00000000000E+00 0.  1.
         24    2    1    2    0    0  0.47689719083E+02  0.24260173235E+02 -0.13607741868E+04  0.13640632748E+04  0.78098429885E+02 0.  0.
         25    2    1    2    0    0 -0.45465755447E+02 -0.90521028182E+01 -0.60771190173E+03  0.62218151618E+03  0.12508800138E+03 0.  0.
        -24    2    1    2    0    0 -0.22239636362E+01 -0.15208070417E+02  0.10013396855E+02  0.79124754338E+02  0.76969001634E+02 0.  0.
        -11    1    3    3    0    0  0.63113477085E+01 -0.35090888284E+01 -0.98182660920E+03  0.98185316486E+03  0.00000000000E+00 0.  1.
         12    1    3    3    0    0  0.41378371375E+02  0.27769262063E+02 -0.37894757765E+03  0.38221010994E+03  0.00000000000E+00 0. -1.
         13    1    5    5    0    0 -0.34026685817E+02  0.11035013166E+00  0.23482019006E+02  0.41342868085E+02  0.00000000000E+00 0. -1.
        -14    1    5    5    0    0  0.31802722181E+02 -0.15318420548E+02 -0.13468622151E+02  0.37781886254E+02  0.00000000000E+00 0.  1.
          5    1    4    4  501    0 -0.59987084387E+02 -0.49591488560E+02 -0.25015653282E+03  0.26201818514E+03  0.41800000000E+01 0. -1.
         -5    1    4    4    0  501  0.14521328940E+02  0.40539385741E+02 -0.35755536891E+03  0.36016333104E+03  0.41800000000E+01 0. -1.
</event>
<event>
11    1  0.9238666E-009  0.1299535E+03  0.7561462E-02  0.1119326E+00
         22   -1    0    0    0    0  0.00000000000E+00  0.00000000000E+00  0.13132008529E+03  0.13132008529E+03  0.00000000000E+00 0. -1.
         22   -1    0    0    0    0 -0.00000000000E+00 -0.00000000000E+00 -0.26524978372E+04  0.26524978372E+04  0.00000000000E+00 0.  1.
         24    2    1    2    0    0 -0.59372352723E+01  0.10233900089E+02 -0.23876202536E+04  0.23889094270E+04  0.77574425446E+02 0.  0.
         25    2    1    2    0    0  0.36407182281E+02  0.75189255489E+01 -0.22964679919E+03  0.26412782866E+03  0.12507533862E+03 0.  0.
        -24    2    1    2    0    0 -0.30469947009E+02 -0.17752825637E+02  0.96089300842E+02  0.13078066687E+03  0.81405458062E+02 0.  0.
        -13    1    3    3    0    0 -0.26136596858E+02  0.36072404514E+02 -0.11704062495E+04  0.11712536569E+04  0.00000000000E+00 0.  1.
         14    1    3    3    0    0  0.20199361586E+02 -0.25838504425E+02 -0.12172140041E+04  0.12176557700E+04  0.00000000000E+00 0. -1.
         11    1    5    5    0    0 -0.46862697003E+02  0.96328133656E+01  0.83964560355E+02  0.96638247394E+02  0.00000000000E+00 0. -1.
        -12    1    5    5    0    0  0.16392749994E+02 -0.27385639003E+02  0.12124740487E+02  0.34142419478E+02  0.00000000000E+00 0.  1.
          5    1    4    4  501    0 -0.10678236736E+02  0.57274915086E+02 -0.76031943746E+02  0.95878931511E+02  0.41800000000E+01 0.  1.
         -5    1    4    4    0  501  0.47085419018E+02 -0.49755989537E+02 -0.15361485545E+03  0.16824889715E+03  0.41800000000E+01 0.  1.
</event>
<event>
11    1  0.9238666E-009  0.1561243E+03  0.7561462E-02  0.1090780E+00
         22   -1    0    0    0    0  0.00000000000E+00  0.00000000000E+00  0.19890996664E+03  0.19890996664E+03  0.00000000000E+00 0. -1.
         22   -1    0    0    0    0 -0.00000000000E+00 -0.00000000000E+00 -0.80224976439E+03  0.80224976439E+03  0.00000000000E+00 0.  1.
        -24    2    1    2    0    0 -0.21343987031E+02  0.58227306042E+02 -0.40996446305E+03  0.42324194715E+03  0.84952339065E+02 0.  0.
         25    2    1    2    0    0 -0.70015425881E+02 -0.30358250788E+02 -0.34883601430E+03  0.37836208084E+03  0.12509003196E+03 0.  0.
         24    2    1    2    0    0  0.91359412912E+02 -0.27869055255E+02  0.15546067960E+03  0.19955570304E+03  0.80816020349E+02 0.  0.
        -11    1    5    5    0    0  0.18231456189E+02 -0.38320993279E+02  0.23978059047E+02  0.48742505438E+02  0.00000000000E+00 0.  1.
         12    1    5    5    0    0  0.73127956723E+02  0.10451938025E+02  0.13148262055E+03  0.15081319760E+03  0.00000000000E+00 0. -1.
         13    1    3    3    0    0  0.13404398731E+02  0.66761644354E+02 -0.29880152726E+03  0.30646231049E+03  0.00000000000E+00 0. -1.
        -14    1    3    3    0    0 -0.34748385762E+02 -0.85343383120E+01 -0.11116293579E+03  0.11677963666E+03  0.00000000000E+00 0.  1.
          5    1    4    4  501    0 -0.99546795499E+02 -0.47351987121E+02 -0.28959187497E+03  0.30989143523E+03  0.41800000000E+01 0.  1.
         -5    1    4    4    0  501  0.29531369619E+02  0.16993736333E+02 -0.59244139327E+02  0.68470645614E+02  0.41800000000E+01 0.  1.
</event>
<event>
11    1  0.9238666E-009  0.1885896E+03  0.7561462E-02  0.1062899E+00
         22   -1    0    0    0    0  0.00000000000E+00  0.00000000000E+00  0.12399290631E+04  0.12399290631E+04  0.00000000000E+00 0.  1.
         22   -1    0    0    0    0 -0.00000000000E+00 -0.00000000000E+00 -0.26303893133E+03  0.26303893133E+03  0.00000000000E+00 0.  1.
         24    2    1    2    0    0 -0.13516716879E+03  0.51176150421E+02 -0.21147831884E+03  0.26860776897E+03  0.80857234198E+02 0.  0.
         25    2    1    2    0    0  0.83276972907E+02 -0.66411741993E+02  0.31153733766E+03  0.35220410201E+03  0.12508654215E+03 0.  0.
        -24    2    1    2    0    0  0.51890195881E+02  0.15235591572E+02  0.87683111298E+03  0.88215612348E+03  0.80261508977E+02 0.  0.
        -11    1    3    3    0    0 -0.14027250482E+03  0.61657106668E+02 -0.20225561784E+03  0.25374260454E+03  0.00000000000E+00 0.  1.
         12    1    3    3    0    0  0.51053360291E+01 -0.10480956247E+02 -0.92227009925E+01  0.14865164426E+02  0.00000000000E+00 0. -1.
         13    1    5    5    0    0  0.35518096438E+02 -0.21854557693E+02  0.21041407845E+03  0.21450697256E+03  0.00000000000E+00 0. -1.
        -14    1    5    5    0    0  0.16372099444E+02  0.37090149266E+02  0.66641703453E+03  0.66764915092E+03  0.00000000000E+00 0.  1.
          5    1    4    4  501    0  0.22577509977E+02 -0.87503898670E+02  0.23713014684E+03  0.25380081793E+03  0.41800000000E+01 0. -1.
         -5    1    4    4    0  501  0.60699462930E+02  0.21092156677E+02  0.74407190822E+02  0.98403284088E+02  0.41800000000E+01 0. -1.
</event>
<event>
11    1  0.9238666E-009  0.2222701E+03  0.7561462E-02  0.1039805E+00
         22   -1    0    0    0    0  0.00000000000E+00  0.00000000000E+00  0.22322804506E+03  0.22322804506E+03  0.00000000000E+00 0. -1.
         22   -1    0    0    0    0 -0.00000000000E+00 -0.00000000000E+00 -0.15174537302E+04  0.15174537302E+04  0.00000000000E+00 0. -1.
        -24    2    1    2    0    0 -0.40973300624E+02  0.18200832549E+03 -0.13974710975E+04  0.14121432860E+04  0.80108363525E+02 0.  0.
         25    2    1    2    0    0 -0.19934353051E+02 -0.14745534921E+03  0.30233924735E+02  0.19672678725E+03  0.12508749008E+03 0.  0.
         24    2    1    2    0    0  0.60907653675E+02 -0.34552976283E+02  0.73011487658E+02  0.13181170198E+03  0.84498502962E+02 0.  0.
        -13    1    5    5    0    0  0.31760498983E+02  0.14612544401E+02 -0.47738589754E+01  0.35285201984E+02  0.00000000000E+00 0.  1.
         14    1    5    5    0    0  0.29147154692E+02 -0.49165520684E+02  0.77785346633E+02  0.96526499997E+02  0.00000000000E+00 0. -1.
         13    1    3    3    0    0 -0.38238709579E+02  0.26728048307E+02 -0.38814856286E+03  0.39094231586E+03  0.00000000000E+00 0. -1.
        -14    1    3    3    0    0 -0.27345910451E+01  0.15528027718E+03 -0.10093225346E+04  0.10212009701E+04  0.00000000000E+00 0.  1.
          5    1    4    4  501    0  0.35810803251E+02 -0.12573843559E+03  0.38100369506E+02  0.13624125062E+03  0.41800000000E+01 0.  1.
         -5    1    4    4    0  501 -0.55745156301E+02 -0.21716913617E+02 -0.78664447713E+01  0.60485536630E+02  0.41800000000E+01 0.  1.
</event>
<event>
11    1  0.9238666E-009  0.1341432E+03  0.7561462E-02  0.1114281E+00
         22   -1    0    0    0    0  0.00000000000E+00  0.00000000000E+00  0.10122903333E+04  0.10122903333E+04  0.00000000000E+00 0. -1.
         22   -1    0    0    0    0 -0.00000000000E+00 -0.00000000000E+00 -0.12366026685E+03  0.12366026685E+03  0.00000000000E+00 0. -1.
        -24    2    1    2    0    0  0.13033102533E+02 -0.16823028422E+02 -0.60288330889E+02  0.10706386035E+03  0.85878468223E+02 0.  0.
         25    2    1    2    0    0 -0.60181596758E+02  0.20150013986E+02  0.96949694837E+02  0.17052055939E+03  0.12510064027E+03 0.  0.
         24    2    1    2    0    0  0.47148494225E+02 -0.33269855637E+01  0.85196870245E+03  0.85836618037E+03  0.93315487984E+02 0.  0.
        -11    1    5    5    0    0  0.46335292016E+01 -0.35149741326E+02  0.13999223899E+03  0.14441191393E+03  0.00000000000E+00 0.  1.
         12    1    5    5    0    0  0.42514965023E+02  0.31822755762E+02  0.71197646346E+03  0.71395426643E+03  0.00000000000E+00 0. -1.
         13    1    3    3    0    0 -0.80743759557E+01 -0.41954015362E+02 -0.60716857113E+02  0.74241980642E+02  0.00000000000E+00 0. -1.
        -14    1    3    3    0    0  0.21107478489E+02  0.25130986939E+02  0.42852622340E+00  0.32821879706E+02  0.00000000000E+00 0.  1.
          5    1    4    4  501    0 -0.50543742007E+01  0.37948321085E+02  0.10504264535E+03  0.11187962957E+03  0.41800000000E+01 0. -1.
         -5    1    4    4    0  501 -0.55127222557E+02 -0.17798307099E+02 -0.80929505096E+01  0.58640929822E+02  0.41800000000E+01 0. -1.
</event>
<event>
11    1  0.9238666E-009  0.1350715E+03  0.7561462E-02  0.1113190E+00
         22   -1    0    0    0    0  0.00000000000E+00  0.00000000000E+00  0.17371299312E+04  0.17371299312E+04  0.00000000000E+00 0. -1.
         22   -1    0    0    0    0 -0.00000000000E+00 -0.00000000000E+00 -0.42975765210E+03  0.42975765210E+03  0.00000000000E+00 0. -1.
         24    2    1    2    0    0 -0.22782863119E+02  0.99983176675E+00 -0.41576906255E+03  0.42462837558E+03  0.83218300023E+02 0.  0.
         25    2    1    2    0    0  0.15464815653E+02  0.50257184795E+02  0.68624255606E+03  0.69952973995E+03  0.12509223073E+03 0.  0.
        -24    2    1    2    0    0  0.73180474663E+01 -0.51257016562E+02  0.10368987856E+04  0.10427294678E+04  0.97184442323E+02 0.  0.
        -13    1    3    3    0    0  0.28221121420E+02 -0.14842045705E+02 -0.12553109293E+03  0.12951746332E+03  0.00000000000E+00 0.  1.
         14    1    3    3    0    0 -0.51003984539E+02  0.15841877472E+02 -0.29023796962E+03  0.29511091226E+03  0.00000000000E+00 0. -1.
         11    1    5    5    0    0  0.30352791656E+02 -0.29741702210E+02  0.93728432095E+03  0.93824717378E+03  0.00000000000E+00 0. -1.
        -12    1    5    5    0    0 -0.23034744189E+02 -0.21515314352E+02  0.99614464681E+02  0.10448229403E+03  0.00000000000E+00 0.  1.
          5    1    4    4  501    0  0.19337045099E+02  0.85311716331E+02  0.32658972774E+03  0.33812768730E+03  0.41800000000E+01 0. -1.
         -5    1    4    4    0  501 -0.38722294462E+01 -0.35054531535E+02  0.35965282832E+03  0.36140205265E+03  0.41800000000E+01 0. -1.
</event>
<event>
11    1  0.9238666E-009  0.1779495E+03  0.7561462E-02  0.1071314E+00
         22   -1    0    0    0    0  0.00000000000E+00  0.00000000000E+00  0.93802990930E+03  0.93802990930E+03  0.00000000000E+00 0. -1.
         22   -1    0    0    0    0 -0.00000000000E+00 -0.00000000000E+00 -0.16791045796E+04  0.16791045796E+04  0.00000000000E+00 0.  1.
         24    2    1    2    0    0  0.23770651368E+02  0.46175752366E+01 -0.16225391508E+04  0.16246437252E+04  0.79041584224E+02 0.  0.
         25    2    1    2    0    0 -0.26589864950E+02  0.12243141197E+03  0.11541057617E+03  0.21133672763E+03  0.12508852784E+03 0.  0.
        -24    2    1    2    0    0  0.28192135813E+01 -0.12704898721E+03  0.76605390437E+03  0.78115403604E+03  0.84933212059E+02 0.  0.
        -11    1    3    3    0    0  0.41338581752E+02  0.15784997645E+02 -0.14727910760E+04  0.14734556654E+04  0.00000000000E+00 0.  1.
         12    1    3    3    0    0 -0.17567930384E+02 -0.11167422409E+02 -0.14974807485E+03  0.15118805978E+03  0.00000000000E+00 0. -1.
         11    1    5    5    0    0  0.32197124043E+02 -0.39962167520E+02  0.41921005866E+03  0.42233955878E+03  0.00000000000E+00 0. -1.
        -12    1    5    5    0    0 -0.29377910461E+02 -0.87086819685E+02  0.34684384571E+03  0.35881447726E+03  0.00000000000E+00 0.  1.
          5    1    4    4  501    0  0.31780219324E+02 -0.78088664505E+01  0.32073344679E+02  0.46012308944E+02  0.41800000000E+01 0.  1.
         -5    1    4    4    0  501 -0.58370084273E+02  0.13024027842E+03  0.83337231496E+02  0.16532441869E+03  0.41800000000E+01 0.  1.
</event>
<event>
11    1  0.9238666E-009  0.1391645E+03  0.7561462E-02  0.1108495E+00
         22   -1    0    0    0    0  0.00000000000E+00  0.00000000000E+00  0.14671000993E+04  0.14671000993E+04  0.00000000000E+00 0. -1.
         22   -1    0    0    0    0 -0.00000000000E+00 -0.00000000000E+00 -0.15471795679E+03  0.15471795679E+03  0.00000000000E+00 0.  1.
        -24    2    1    2    0    0 -0.60635957171E+02  0.15418823155E+02 -0.12026517425E+03  0.15889425928E+03  0.82880722030E+02 0.  0.
         25    2    1    2    0    0  0.41104758680E+02  0.25799629329E+02  0.31558510328E+03  0.34292386148E+03  0.12509034855E+03 0.  0.
         24    2    1    2    0    0  0.19531198491E+02 -0.41218452484E+02  0.11170622135E+04  0.11199999354E+04  0.67018190387E+02 0.  0.
        -11    1    5    5    0    0 -0.17917693955E+02  0.86329753223E+00  0.51387211860E+03  0.51418512553E+03  0.00000000000E+00 0.  1.
         12    1    5    5    0    0  0.37448892446E+02 -0.42081750016E+02  0.60319009489E+03  0.60581480982E+03  0.00000000000E+00 0. -1.
         13    1    3    3    0    0 -0.14218961605E+02 -0.14736958986E+01  0.11389936823E+02  0.18277891278E+02  0.00000000000E+00 0. -1.
        -14    1    3    3    0    0 -0.46416995566E+02  0.16892519054E+02 -0.13165511107E+03  0.14061636800E+03  0.00000000000E+00 0.  1.
          5    1    4    4  501    0 -0.58764023097E+01 -0.40296131576E+02  0.18240509179E+03  0.18694223769E+03  0.41800000000E+01 0. -1.
         -5    1    4    4    0  501  0.46981160990E+02  0.66095760905E+02  0.13318001149E+03  0.15598162379E+03  0.41800000000E+01 0. -1.
</event>
<event>
11    1  0.9238666E-009  0.1574408E+03  0.7561462E-02  0.1089509E+00
         22   -1    0    0    0    0  0.00000000000E+00  0.00000000000E+00  0.14672019988E+04  0.14672019988E+04  0.00000000000E+00 0.  1.
         22   -1    0    0    0    0 -0.00000000000E+00 -0.00000000000E+00 -0.98322101679E+02  0.98322101679E+02  0.00000000000E+00 0.  1.
        -24    2    1    2    0    0  0.82253462128E+00 -0.22323119008E+01 -0.50557235387E+02  0.91614632487E+02  0.76364566757E+02 0.  0.
         25    2    1    2    0    0  0.84494771352E+02  0.45296335214E+02  0.23575295938E+03  0.28358107488E+03  0.12509054243E+03 0.  0.
         24    2    1    2    0    0 -0.85317305973E+02 -0.43064023313E+02  0.11836841732E+04  0.11903283931E+04  0.81485636361E+02 0.  0.
        -11    1    5    5    0    0 -0.96143872378E+02 -0.37451157424E+02  0.82364091356E+03  0.83007866367E+03  0.00000000000E+00 0.  1.
         12    1    5    5    0    0  0.10826566405E+02 -0.56128658898E+01  0.36004325960E+03  0.36024972948E+03  0.00000000000E+00 0. -1.
         13    1    3    3    0    0 -0.34482812099E+02  0.75064315870E+01 -0.93981710699E+01  0.36520356856E+02  0.00000000000E+00 0. -1.
        -14    1    3    3    0    0  0.35305346720E+02 -0.97387434878E+01 -0.41159064318E+02  0.55094275631E+02  0.00000000000E+00 0.  1.
          5    1    4    4  501    0  0.86253036839E+02  0.80417888494E+02  0.20566427197E+03  0.23711155248E+03  0.41800000000E+01 0.  1.
         -5    1    4    4    0  501 -0.17582654866E+01 -0.35121553280E+02  0.30088687412E+02  0.46469522404E+02  0.41800000000E+01 0.  1.
</event>
<event>
11    1  0.9238666E-009  0.1519403E+03  0.7561462E-02  0.1094913E+00
         22   -1    0    0    0    0  0.00000000000E+00  0.00000000000E+00  0.11689559863E+04  0.11689559863E+04  0.00000000000E+00 0.  1.
         22   -1    0    0    0    0 -0.00000000000E+00 -0.00000000000E+00 -0.10033516484E+03  0.10033516484E+03  0.00000000000E+00 0.  1.
         24    2    1    2    0    0  0.71179947377E+02 -0.43091521434E+02 -0.12135400894E+02  0.11730355883E+03  0.81788708463E+02 0.  0.
         25    2    1    2    0    0 -0.53984618528E+02  0.94298995774E+02  0.17509868656E+03  0.24106715961E+03  0.12508871158E+03 0.  0.
        -24    2    1    2    0    0 -0.17195328849E+02 -0.51207474339E+02  0.90565753581E+03  0.91092043272E+03  0.81502011145E+02 0.  0.
        -13    1    3    3    0    0  0.56993352093E+02 -0.49688515933E+02 -0.39855430391E+02  0.85473072544E+02  0.00000000000E+00 0.  1.
         14    1    3    3    0    0  0.14186595284E+02  0.65969944987E+01  0.27720029497E+02  0.31830486290E+02  0.00000000000E+00 0. -1.
         11    1    5    5    0    0 -0.41546317727E+02 -0.43792344804E+02  0.39085277477E+03  0.39548673495E+03  0.00000000000E+00 0. -1.
        -12    1    5    5    0    0  0.24350988878E+02 -0.74151295352E+01  0.51480476104E+03  0.51543369776E+03  0.00000000000E+00 0.  1.
          5    1    4    4  501    0  0.37230881932E+02  0.53658791845E+02  0.76459683275E+02  0.10064273485E+03  0.41800000000E+01 0.  1.
         -5    1    4    4    0  501 -0.91215500460E+02  0.40640203928E+02  0.98639003289E+02  0.14042442476E+03  0.41800000000E+01 0.  1.
</event>
<event>
11    1  0.9238666E-009  0.1395862E+03  0.7561462E-02  0.1108021E+00
         22   -1    0    0    0    0  0.00000000000E+00  0.00000000000E+00  0.14093250055E+04  0.14093250055E+04  0.00000000000E+00 0. -1.
         22   -1    0    0    0    0 -0.00000000000E+00 -0.00000000000E+00 -0.91902975604E+02  0.91902975604E+02  0.00000000000E+00 0. -1.
        -24    2    1    2    0    0  0.12215538689E+01  0.33705038255E+02 -0.41308408176E+02  0.97556021770E+02  0.81690091198E+02 0.  0.
         25    2    1    2    0    0  0.47769514261E+02 -0.68333465649E+02  0.25977039735E+03  0.30013272023E+03  0.12509037290E+03 0.  0.
         24    2    1    2    0    0 -0.48991068130E+02  0.34628427394E+02  0.10989600408E+04  0.11035392391E+04  0.80538366013E+02 0.  0.
        -13    1    5    5    0    0  0.13954243483E+02  0.16660146628E+02  0.95285767580E+02  0.97732588732E+02  0.00000000000E+00 0.  1.
         14    1    5    5    0    0 -0.62945311614E+02  0.17968280766E+02  0.10036742732E+04  0.10058066504E+04  0.00000000000E+00 0. -1.
         13    1    3    3    0    0  0.27690597611E+02  0.15524192348E+02 -0.54313838747E+02  0.62910752845E+02  0.00000000000E+00 0. -1.
        -14    1    3    3    0    0 -0.26469043743E+02  0.18180845906E+02  0.13005430571E+02  0.34645268924E+02  0.00000000000E+00 0.  1.
          5    1    4    4  501    0  0.82527282659E+02 -0.69693912813E+02  0.14990189653E+03  0.18481354076E+03  0.41800000000E+01 0.  1.
         -5    1    4    4    0  501 -0.34757768397E+02  0.13604471640E+01  0.10986850082E+03  0.11531917947E+03  0.41800000000E+01 0.  1.
</event>
<event>
11    1  0.9238666E-009  0.1576374E+03  0.7561462E-02  0.1089321E+00
         22   -1    0    0    0    0  0.00000000000E+00  0.00000000000E+00  0.48926098663E+03  0.48926098663E+03  0.00000000000E+00 0. -1.
         22   -1    0    0    0    0 -0.00000000000E+00 -0.00000000000E+00 -0.13719700565E+04  0.13719700565E+04  0.00000000000E+00 0.  1.
         24    2    1    2    0    0 -0.68246751022E+01 -0.95957140961E+02 -0.11116097539E+04  0.11189563574E+04  0.84455525541E+02 0.  0.
         25    2    1    2    0    0  0.84956952052E+02  0.84453621102E+02 -0.21964512816E+03  0.27971337200E+03  0.12508193446E+03 0.  0.
        -24    2    1    2    0    0 -0.78132276950E+02  0.11503519859E+02  0.44854581214E+03  0.46256131376E+03  0.80824747008E+02 0.  0.
        -13    1    3    3    0    0 -0.58901294471E+01 -0.95329803202E+02 -0.61729841172E+03  0.62464373375E+03  0.00000000000E+00 0.  1.
         14    1    3    3    0    0 -0.93454565504E+00 -0.62733775945E+00 -0.49431134215E+03  0.49431262365E+03  0.00000000000E+00 0. -1.
         11    1    5    5    0    0 -0.74731050731E+02 -0.17212325167E+02  0.38746911127E+03  0.39498519753E+03  0.00000000000E+00 0. -1.
        -12    1    5    5    0    0 -0.34012262195E+01  0.28715845026E+02  0.61076700867E+02  0.67576116226E+02  0.00000000000E+00 0.  1.
          5    1    4    4  501    0  0.95059639754E+02  0.35106431257E+02 -0.74001687517E+02  0.12554887009E+03  0.41800000000E+01 0.  1.
         -5    1    4    4    0  501 -0.10102687701E+02  0.49347189846E+02 -0.14564344065E+03  0.15416450191E+03  0.41800000000E+01 0.  1.
</event>
<event>
11    1  0.9238666E-009  0.2091365E+03  0.7561462E-02  0.1048244E+00
         22   -1    0    0    0    0  0.00000000000E+00  0.00000000000E+00  0.11777857658E+04  0.11777857658E+04  0.00000000000E+00 0.  1.
         22   -1    0    0    0    0 -0.00000000000E+00 -0.00000000000E+00 -0.10666315220E+04  0.10666315220E+04  0.00000000000E+00 0.  1.
        -24    2    1    2    0    0 -0.11700431010E+03  0.11998916260E+03 -0.10226486395E+04  0.10394588315E+04  0.81098795628E+02 0.  0.
         25    2    1    2    0    0  0.92127951272E+02 -0.14456145389E+03  0.30406239220E+03  0.37079324926E+03  0.12509245379E+03 0.  0.
         24    2    1    2    0    0  0.24876358830E+02  0.24572291286E+02  0.82974049114E+03  0.83416520714E+03  0.78356106503E+02 0.  0.
        -11    1    5    5    0    0  0.84535299619E+01  0.65890625002E+00  0.73576911122E+03  0.73581796754E+03  0.00000000000E+00 0.  1.
         12    1    5    5    0    0  0.16422828869E+02  0.23913385036E+02  0.93971379922E+02  0.98347239597E+02  0.00000000000E+00 0. -1.
         11    1    3    3    0    0 -0.49581114798E+02  0.10082449974E+03 -0.52420132870E+03  0.53610717185E+03  0.00000000000E+00 0. -1.
        -12    1    3    3    0    0 -0.67423195305E+02  0.19164662857E+02 -0.49844731084E+03  0.50335165962E+03  0.00000000000E+00 0.  1.
          5    1    4    4  501    0  0.10872305719E+03 -0.12414862420E+03  0.18138906255E+03  0.24526118418E+03  0.41800000000E+01 0.  1.
         -5    1    4    4    0  501 -0.16595105914E+02 -0.20412829688E+02  0.12267332965E+03  0.12553206508E+03  0.41800000000E+01 0.  1.
</event>
<event>
11    1  0.9238666E-009  0.3116721E+03  0.7561462E-02  0.9953689E-01
         22   -1    0    0    0    0  0.00000000000E+00  0.00000000000E+00  0.21561189357E+04  0.21561189357E+04  0.00000000000E+00 0. -1.
         22   -1    0    0    0    0 -0.00000000000E+00 -0.00000000000E+00 -0.67982224289E+03  0.67982224289E+03  0.00000000000E+00 0. -1.
        -24    2    1    2    0    0  0.26715618804E+03  0.11958348012E+03 -0.56850728720E+03  0.64433799831E+03  0.79361722155E+02 0.  0.
         25    2    1    2    0    0 -0.21859888654E+03 -0.93558239168E+02  0.17804694252E+03  0.32231550600E+03  0.12509178370E+03 0.  0.
         24    2    1    2    0    0 -0.48557301495E+02 -0.26025240954E+02  0.18667570375E+04  0.18692876743E+04  0.80121454728E+02 0.  0.
        -13    1    5    5    0    0 -0.49490331316E+02 -0.27751868457E+02  0.63522542073E+03  0.63775449371E+03  0.00000000000E+00 0.  1.
         14    1    5    5    0    0  0.93302982048E+00  0.17266275031E+01  0.12315316167E+04  0.12315331805E+04  0.00000000000E+00 0. -1.
         11    1    3    3    0    0  0.10003251650E+03  0.67355716852E+01 -0.21828140014E+03  0.24020541611E+03  0.00000000000E+00 0. -1.
        -12    1    3    3    0    0  0.16712367154E+03  0.11284790844E+03 -0.35022588706E+03  0.40413258220E+03  0.00000000000E+00 0.  1.
          5    1    4    4  501    0 -0.11660824316E+03 -0.92010082942E+02  0.46295330269E+02  0.15564082929E+03  0.41800000000E+01 0.  1.
         -5    1    4    4    0  501 -0.10199064338E+03 -0.15481562267E+01  0.13175161225E+03  0.16667467671E+03  0.41800000000E+01 0.  1.
</event>
<event>
11    1  0.9238666E-009  0.1287409E+03  0.7561462E-02  0.1120826E+00
         22   -1    0    0    0    0  0.00000000000E+00  0.00000000000E+00  0.53560365175E+03  0.53560365175E+03  0.00000000000E+00 0. -1.
         22   -1    0    0    0    0 -0.00000000000E+00 -0.00000000000E+00 -0.21659810606E+03  0.21659810606E+03  0.00000000000E+00 0.  1.
        -24    2    1    2    0    0 -0.20901953937E+02 -0.22784332334E+02 -0.16742927929E+03  0.18894237503E+03  0.81918496312E+02 0.  0.
         25    2    1    2    0    0 -0.80150808256E+01  0.39296694213E+02  0.94483088227E+02  0.16180981910E+03  0.12508753695E+03 0.  0.
         24    2    1    2    0    0  0.28917034763E+02 -0.16512361879E+02  0.39195173676E+03  0.40144956368E+03  0.80166921119E+02 0.  0.
        -11    1    5    5    0    0  0.22818857509E+02 -0.34079104601E+02  0.89758126181E+02  0.98684379939E+02  0.00000000000E+00 0.  1.
         12    1    5    5    0    0  0.60981772544E+01  0.17566742723E+02  0.30219361058E+03  0.30276518375E+03  0.00000000000E+00 0. -1.
         13    1    3    3    0    0 -0.72495237869E+01  0.20086117092E+02 -0.72300622524E+01  0.22545099138E+02  0.00000000000E+00 0. -1.
        -14    1    3    3    0    0 -0.13652430151E+02 -0.42870449426E+02 -0.16019921704E+03  0.16639727589E+03  0.00000000000E+00 0.  1.
          5    1    4    4  501    0 -0.62602372347E+02  0.39810584665E+02  0.39233267093E+02  0.84027741381E+02  0.41800000000E+01 0. -1.
         -5    1    4    4    0  501  0.54587291521E+02 -0.51389045203E+00  0.55249821133E+02  0.77782077719E+02  0.41800000000E+01 0. -1.
</event>
<event>
11    1  0.9238666E-009  0.1445496E+03  0.7561462E-02  0.1102582E+00
         22   -1    0    0    0    0  0.00000000000E+00  0.00000000000E+00  0.15191415301E+04  0.15191415301E+04  0.00000000000E+00 0.  1.
         22   -1    0    0    0    0 -0.00000000000E+00 -0.00000000000E+00 -0.33058942887E+03  0.33058942887E+03  0.00000000000E+00 0.  1.
         24    2    1    2    0    0  0.19594018812E+02  0.10689477701E+02 -0.29945146715E+03  0.31163555015E+03  0.83350731462E+02 0.  0.
         25    2    1    2    0    0 -0.53785261788E+02 -0.72547885663E+02  0.23915160159E+03  0.28460077073E+03  0.12509220622E+03 0.  0.
        -24    2    1    2    0    0  0.34191242976E+02  0.61858407962E+02  0.12488519668E+04  0.12534946381E+04  0.81376096283E+02 0.  0.
        -11    1    3    3    0    0  0.16383471725E+02  0.27491022763E+02 -0.29063490419E+03  0.29239155599E+03  0.00000000000E+00 0.  1.
         12    1    3    3    0    0  0.32105470871E+01 -0.16801545062E+02 -0.88165629566E+01  0.19243994166E+02  0.00000000000E+00 0. -1.
         11    1    5    5    0    0  0.22345675330E+02 -0.77370924947E+01  0.11283863403E+03  0.11528984836E+03  0.00000000000E+00 0. -1.
        -12    1    5    5    0    0  0.11845567647E+02  0.69595500457E+02  0.11360133327E+04  0.11382047897E+04  0.00000000000E+00 0.  1.
          5    1    4    4  501    0 -0.39260440639E+02 -0.10737143844E+03  0.15862337460E+03  0.19557314581E+03  0.41800000000E+01 0.  1.
         -5    1    4    4    0  501 -0.14524821149E+02  0.34823552773E+02  0.80528226989E+02  0.89027624921E+02  0.41800000000E+01 0.  1.
</event>
<event>
11    1  0.9238666E-009  0.1511260E+03  0.7561462E-02  0.1095734E+00
         22   -1    0    0    0    0  0.00000000000E+00  0.00000000000E+00  0.62029104235E+03  0.62029104235E+03  0.00000000000E+00 0.  1.
         22   -1    0    0    0    0 -0.00000000000E+00 -0.00000000000E+00 -0.95226629273E+03  0.95226629273E+03  0.00000000000E+00 0.  1.
        -24    2    1    2    0    0  0.19950750973E+02  0.27940411140E+02 -0.90601939604E+03  0.91043314062E+03  0.82696181909E+02 0.  0.
         25    2    1    2    0    0  0.14246527850E+02 -0.10201621599E+03  0.14556814940E+03  0.21782116472E+03  0.12508277979E+03 0.  0.
         24    2    1    2    0    0 -0.34197278823E+02  0.74075804848E+02  0.42847599625E+03  0.44430302974E+03  0.84598014954E+02 0.  0.
        -13    1    5    5    0    0 -0.36931958557E+02  0.91523924127E+02  0.33777188776E+03  0.35189550496E+03  0.00000000000E+00 0.  1.
         14    1    5    5    0    0  0.27346797341E+01 -0.17448119278E+02  0.90704108493E+02  0.92407524786E+02  0.00000000000E+00 0. -1.
         11    1    3    3    0    0  0.42294689124E+02  0.38920578141E+02 -0.43844515260E+03  0.44219656712E+03  0.00000000000E+00 0. -1.
        -12    1    3    3    0    0 -0.22343938151E+02 -0.10980167001E+02 -0.46757424343E+03  0.46823657350E+03  0.00000000000E+00 0.  1.
          5    1    4    4  501    0 -0.52170952016E+02 -0.20573286657E+02  0.41770492911E+02  0.70052229344E+02  0.41800000000E+01 0.  1.
         -5    1    4    4    0  501  0.66417479865E+02 -0.81442929331E+02  0.10379765649E+03  0.14776893538E+03  0.41800000000E+01 0.  1.
</event>
<event>
11    1  0.9238666E-009  0.1785403E+03  0.7561462E-02  0.1070830E+00
         22   -1    0    0    0    0  0.00000000000E+00  0.00000000000E+00  0.96038695855E+02  0.96038695855E+02  0.00000000000E+00 0. -1.
         22   -1    0    0    0    0 -0.00000000000E+00 -0.00000000000E+00 -0.22371849290E+04  0.22371849290E+04  0.00000000000E+00 0. -1.
        -24    2    1    2    0    0 -0.72655663956E+01  0.71511953545E+02 -0.17974723167E+04  0.18006965027E+04  0.80214821554E+02 0.  0.
         25    2    1    2    0    0  0.50884293221E+02  0.61069993780E+02 -0.34060712148E+03  0.37145686094E+03  0.12509289708E+03 0.  0.
         24    2    1    2    0    0 -0.43618726825E+02 -0.13258194732E+03 -0.30667950216E+01  0.16107026126E+03  0.80334660924E+02 0.  0.
        -13    1    5    5    0    0 -0.28666734788E+02 -0.13735064096E+01 -0.42159922011E+01  0.29007633366E+02  0.00000000000E+00 0.  1.
         14    1    5    5    0    0 -0.14951992037E+02 -0.13120844091E+03  0.11491971795E+01  0.13206262790E+03  0.00000000000E+00 0. -1.
         13    1    3    3    0    0  0.36484114750E+02  0.36081700840E+02 -0.89578964652E+03  0.89725808471E+03  0.00000000000E+00 0. -1.
        -14    1    3    3    0    0 -0.43749681146E+02  0.35430252705E+02 -0.90168267015E+03  0.90343841797E+03  0.00000000000E+00 0.  1.
          5    1    4    4  501    0  0.16291941060E+02  0.89802905979E+02 -0.15052428074E+03  0.17608242603E+03  0.41800000000E+01 0.  1.
         -5    1    4    4    0  501  0.34592352161E+02 -0.28732912199E+02 -0.19008284075E+03  0.19537443491E+03  0.41800000000E+01 0.  1.
</event>
<event>
11    1  0.9238666E-009  0.3586265E+03  0.7561462E-02  0.9780395E-01
         22   -1    0    0    0    0  0.00000000000E+00  0.00000000000E+00  0.13466602361E+04  0.13466602361E+04  0.00000000000E+00 0.  1.
         22   -1    0    0    0    0 -0.00000000000E+00 -0.00000000000E+00 -0.18062309615E+03  0.18062309615E+03  0.00000000000E+00 0. -1.
        -24    2    1    2    0    0 -0.88086838609E+01  0.78118233221E+02 -0.45465319889E+02  0.12316283767E+03  0.83198185054E+02 0.  0.
         25    2    1    2    0    0 -0.18489420189E+03 -0.31947922072E+03  0.68201098270E+03  0.78551864581E+03  0.12509086308E+03 0.  0.
         24    2    1    2    0    0  0.19370288576E+03  0.24136098750E+03  0.52949147717E+03  0.61860184880E+03  0.80815151481E+02 0.  0.
        -11    1    5    5    0    0  0.92250696374E+02  0.16261848707E+03  0.36316515012E+03  0.40846528564E+03  0.00000000000E+00 0.  1.
         12    1    5    5    0    0  0.10145218938E+03  0.78742500434E+02  0.16632632705E+03  0.21013656316E+03  0.00000000000E+00 0. -1.
         13    1    3    3    0    0 -0.55193449269E+01  0.85051610827E+02 -0.61690830133E+02  0.10521405892E+03  0.00000000000E+00 0. -1.
        -14    1    3    3    0    0 -0.32893389340E+01 -0.69333776058E+01  0.16225510244E+02  0.17948778742E+02  0.00000000000E+00 0.  1.
          5    1    4    4  501    0 -0.33489589146E+02 -0.72141193511E+00  0.92222802749E+02  0.98206877372E+02  0.41800000000E+01 0.  1.
         -5    1    4    4    0  501 -0.15140461275E+03 -0.31875780879E+03  0.58978817995E+03  0.68731176844E+03  0.41800000000E+01 0.  1.
</event>
<event>
11    1  0.9238666E-009  0.2152094E+03  0.7561462E-02  0.1044261E+00
         22   -1    0    0    0    0  0.00000000000E+00  0.00000000000E+00  0.36622768182E+03  0.36622768182E+03  0.00000000000E+00 0. -1.
         22   -1    0    0    0    0 -0.00000000000E+00 -0.00000000000E+00 -0.73154060202E+03  0.73154060202E+03  0.00000000000E+00 0.  1.
         24    2    1    2    0    0 -0.13029664528E+03  0.71804410505E+02 -0.57648204542E+03  0.60067103921E+03  0.79630769956E+02 0.  0.
         25    2    1    2    0    0 -0.77826597279E+02 -0.10787973878E+03 -0.73930142038E+01  0.18274970961E+03  0.12509109648E+03 0.  0.
        -24    2    1    2    0    0  0.20812324256E+03  0.36075328280E+02  0.21856213942E+03  0.31434753501E+03  0.80176371703E+02 0.  0.
        -13    1    3    3    0    0 -0.14039415133E+03  0.71172827778E+02 -0.55561270186E+03  0.57747862611E+03  0.00000000000E+00 0.  1.
         14    1    3    3    0    0  0.10097506053E+02  0.63158272630E+00 -0.20869343555E+02  0.23192413106E+02  0.00000000000E+00 0. -1.
         13    1    5    5    0    0  0.20346630302E+03  0.14675889630E+02  0.19568076384E+03  0.28267451166E+03  0.00000000000E+00 0. -1.
        -14    1    5    5    0    0  0.46569395340E+01  0.21399438650E+02  0.22881375574E+02  0.31673023357E+02  0.00000000000E+00 0.  1.
          5    1    4    4  501    0 -0.32122342211E+01 -0.21881274963E+02 -0.54881050488E+02  0.59317035878E+02  0.41800000000E+01 0. -1.
         -5    1    4    4    0  501 -0.74614363058E+02 -0.85998463822E+02  0.47488036284E+02  0.12343267373E+03  0.41800000000E+01 0. -1.
</event>
<event>
11    1  0.9238666E-009  0.1293506E+03  0.7561462E-02  0.1120069E+00
         22   -1    0    0    0    0  0.00000000000E+00  0.00000000000E+00  0.20639732025E+03  0.20639732025E+03  0.00000000000E+00 0. -1.
         22   -1    0    0    0    0 -0.00000000000E+00 -0.00000000000E+00 -0.33055578359E+03  0.33055578359E+03  0.00000000000E+00 0. -1.
         24    2    1    2    0    0  0.29820655986E+02 -0.11244014147E+00 -0.19214858714E+03  0.21304468811E+03  0.87049844504E+02 0.  0.
         25    2    1    2    0    0 -0.42449674098E+02 -0.25633540417E+02 -0.77440748339E+02  0.15525251995E+03  0.12508885731E+03 0.  0.
        -24    2    1    2    0    0  0.12629018112E+02  0.25745980558E+02  0.14543087213E+03  0.16865589578E+03  0.80450761322E+02 0.  0.
        -11    1    3    3    0    0 -0.91763092631E+01  0.56893660676E+01  0.50670032094E+01  0.11926779090E+02  0.00000000000E+00 0.  1.
         12    1    3    3    0    0  0.38996965249E+02 -0.58018062091E+01 -0.19721559035E+03  0.20111790902E+03  0.00000000000E+00 0. -1.
         11    1    5    5    0    0 -0.18308603906E+02  0.43633732846E+02  0.10178107321E+03  0.11224301530E+03  0.00000000000E+00 0. -1.
        -12    1    5    5    0    0  0.30937622018E+02 -0.17887752287E+02  0.43649798924E+02  0.56412880480E+02  0.00000000000E+00 0.  1.
          5    1    4    4  501    0 -0.66893740802E+02  0.30003344190E+02 -0.37971869828E+02  0.82669876735E+02  0.41800000000E+01 0. -1.
         -5    1    4    4    0  501  0.24444066704E+02 -0.55636884606E+02 -0.39468878511E+02  0.72582643219E+02  0.41800000000E+01 0. -1.
</event>
<event>
11    1  0.9238666E-009  0.2428397E+03  0.7561462E-02  0.1027784E+00
         22   -1    0    0    0    0  0.00000000000E+00  0.00000000000E+00  0.48052117810E+03  0.48052117810E+03  0.00000000000E+00 0. -1.
         22   -1    0    0    0    0 -0.00000000000E+00 -0.00000000000E+00 -0.33347908750E+03  0.33347908750E+03  0.00000000000E+00 0. -1.
        -24    2    1    2    0    0  0.50333066015E+02  0.23382921212E+02 -0.16362201572E+03  0.19058598675E+03  0.80440510798E+02 0.  0.
         25    2    1    2    0    0  0.16960075232E+03 -0.19535416595E+02 -0.26198316279E+02  0.21325885146E+03  0.12508772227E+03 0.  0.
         24    2    1    2    0    0 -0.21993381834E+03 -0.38475046162E+01  0.33686242261E+03  0.41015542739E+03  0.79784053017E+02 0.  0.
        -13    1    5    5    0    0 -0.16861096450E+03 -0.25256128627E+02  0.20233953664E+03  0.26459179403E+03  0.00000000000E+00 0.  1.
         14    1    5    5    0    0 -0.51322853840E+02  0.21408624011E+02  0.13452288597E+03  0.14556363336E+03  0.00000000000E+00 0. -1.
         13    1    3    3    0    0  0.63700506159E+02  0.26493647217E+02 -0.16282538567E+03  0.17683827088E+03  0.00000000000E+00 0. -1.
        -14    1    3    3    0    0 -0.13367440143E+02 -0.31107260052E+01 -0.79663004985E+00  0.13747715872E+02  0.00000000000E+00 0.  1.
          5    1    4    4  501    0 -0.11219563793E+02 -0.33552003113E+01 -0.29099534588E+02  0.31644767247E+02  0.41800000000E+01 0. -1.
         -5    1    4    4    0  501  0.18082031611E+03 -0.16180216284E+02  0.29012183090E+01  0.18161408422E+03  0.41800000000E+01 0. -1.
</event>
<event>
11    1  0.9238666E-009  0.1576989E+03  0.7561462E-02  0.1089262E+00
         22   -1    0    0    0    0  0.00000000000E+00  0.00000000000E+00  0.54896640064E+03  0.54896640064E+03  0.00000000000E+00 0.  1.
         22   -1    0    0    0    0 -0.00000000000E+00 -0.00000000000E+00 -0.51875785807E+03  0.51875785807E+03  0.00000000000E+00 0.  1.
        -24    2    1    2    0    0 -0.64858608605E+02 -0.82952446871E+01 -0.34691095018E+03  0.36214256569E+03  0.80774874405E+02 0.  0.
         25    2    1    2    0    0  0.42132683653E+02 -0.86058427938E+02 -0.11697486855E+03  0.19625077853E+03  0.12510008852E+03 0.  0.
         24    2    1    2    0    0  0.22725924952E+02  0.94353672625E+02  0.49409436130E+03  0.50933091449E+03  0.76613702298E+02 0.  0.
        -13    1    5    5    0    0  0.43859179382E+02  0.28503279646E+02  0.26115826508E+03  0.26634508440E+03  0.00000000000E+00 0.  1.
         14    1    5    5    0    0 -0.21133254430E+02  0.65850392979E+02  0.23293609622E+03  0.24298583009E+03  0.00000000000E+00 0. -1.
         11    1    3    3    0    0  0.11273192676E+02  0.20850209766E+01 -0.65230391640E+01  0.13190232201E+02  0.00000000000E+00 0. -1.
        -12    1    3    3    0    0 -0.76131801281E+02 -0.10380265664E+02 -0.34038791102E+03  0.34895233349E+03  0.00000000000E+00 0.  1.
          5    1    4    4  501    0 -0.14443553563E+02 -0.56122111023E+02  0.51251821511E+01  0.58327073278E+02  0.41800000000E+01 0. -1.
         -5    1    4    4    0  501  0.56576237216E+02 -0.29936316916E+02 -0.12210005070E+03  0.13792370525E+03  0.41800000000E+01 0. -1.
</event>
<event>
11    1  0.9238666E-009  0.1509594E+03  0.7561462E-02  0.1095903E+00
         22   -1    0    0    0    0  0.00000000000E+00  0.00000000000E+00  0.86478703663E+03  0.86478703663E+03  0.00000000000E+00 0. -1.
         22   -1    0    0    0    0 -0.00000000000E+00 -0.00000000000E+00 -0.73281733133E+03  0.73281733133E+03  0.00000000000E+00 0. -1.
         24    2    1    2    0    0 -0.73595830000E+02  0.16055856563E+02 -0.67871175452E+03  0.68771368847E+03  0.81402302573E+02 0.  0.
         25    2    1    2    0    0  0.14125770360E+03 -0.53813139637E+02  0.17010868806E+03  0.25967746308E+03  0.12508327726E+03 0.  0.
        -24    2    1    2    0    0 -0.67661873603E+02  0.37757283074E+02  0.64057277176E+03  0.65021321641E+03  0.80249668651E+02 0.  0.
        -11    1    3    3    0    0  0.11890705301E+02 -0.15532909850E+02 -0.13690813016E+03  0.13829857651E+03  0.00000000000E+00 0.  1.
         12    1    3    3    0    0 -0.85486535302E+02  0.31588766413E+02 -0.54180362436E+03  0.54941511196E+03  0.00000000000E+00 0. -1.
         11    1    5    5    0    0 -0.15574023897E+02  0.53102266911E+02  0.26329136696E+03  0.26904413186E+03  0.00000000000E+00 0. -1.
        -12    1    5    5    0    0 -0.52087849706E+02 -0.15344983837E+02  0.37728140479E+03  0.38116908455E+03  0.00000000000E+00 0.  1.
          5    1    4    4  501    0  0.63878322264E+02  0.31540757847E+02  0.27932058143E+02  0.76635055510E+02  0.41800000000E+01 0.  1.
         -5    1    4    4    0  501  0.77379381339E+02 -0.85353897485E+02  0.14217662992E+03  0.18304240757E+03  0.41800000000E+01 0.  1.
</event>
<event>
11    1  0.9238666E-009  0.1981200E+03  0.7561462E-02  0.1055861E+00
         22   -1    0    0    0    0  0.00000000000E+00  0.00000000000E+00  0.10245826454E+04  0.10245826454E+04  0.00000000000E+00 0. -1.
         22   -1    0    0    0    0 -0.00000000000E+00 -0.00000000000E+00 -0.28852141087E+03  0.28852141087E+03  0.00000000000E+00 0. -1.
        -24    2    1    2    0    0  0.12271539880E+03 -0.85216750589E+02 -0.21450483992E+03  0.27342707925E+03  0.80181529248E+02 0.  0.
         25    2    1    2    0    0 -0.18672457798E+03  0.91336158321E+02  0.32295413631E+03  0.40392931417E+03  0.12510457564E+03 0.  0.
         24    2    1    2    0    0  0.64009179184E+02 -0.61194077324E+01  0.62761193819E+03  0.63574766290E+03  0.78381909608E+02 0.  0.
        -11    1    5    5    0    0 -0.78324906707E+00  0.84140323789E+01  0.35727769877E+03  0.35737762026E+03  0.00000000000E+00 0.  1.
         12    1    5    5    0    0  0.64792428251E+02 -0.14533440111E+02  0.27033423942E+03  0.27837004264E+03  0.00000000000E+00 0. -1.
         11    1    3    3    0    0  0.13173842089E+03 -0.76923363357E+02 -0.17546319138E+03  0.23250709000E+03  0.00000000000E+00 0. -1.
        -12    1    3    3    0    0 -0.90230220938E+01 -0.82933872322E+01 -0.39041648536E+02  0.40919989246E+02  0.00000000000E+00 0.  1.
          5    1    4    4  501    0  0.51382241992E+01 -0.19014646156E+02  0.38880623804E+02  0.43785082206E+02  0.41800000000E+01 0. -1.
         -5    1    4    4    0  501 -0.19186280218E+03  0.11035080448E+03  0.28407351250E+03  0.36014423196E+03  0.41800000000E+01 0. -1.
</event>
<event>
11    1  0.9238666E-009  0.3903880E+03  0.7561462E-02  0.9678552E-01
         22   -1    0    0    0    0  0.00000000000E+00  0.00000000000E+00  0.11567690514E+04  0.11567690514E+04  0.00000000000E+00 0. -1.
         22   -1    0    0    0    0 -0.00000000000E+00 -0.00000000000E+00 -0.10240416267E+04  0.10240416267E+04  0.00000000000E+00 0.  1.
        -24    2    1    2    0    0  0.13703630871E+03 -0.51376176263E+01 -0.98457474288E+03  0.99727067082E+03  0.79724660742E+02 0.  0.
         25    2    1    2    0    0 -0.22652484748E+01  0.43601977328E+02  0.13921229663E+03  0.19218305267E+03  0.12509195986E+03 0.  0.
         24    2    1    2    0    0 -0.13477106024E+03 -0.38464359702E+02  0.97808987097E+03  0.99135695464E+03  0.80536141968E+02 0.  0.
        -13    1    5    5    0    0 -0.27375270474E+02 -0.31134930791E+02  0.12969253040E+03  0.13615778271E+03  0.00000000000E+00 0.  1.
         14    1    5    5    0    0 -0.10739578977E+03 -0.73294289105E+01  0.84839734057E+03  0.85519917193E+03  0.00000000000E+00 0. -1.
         11    1    3    3    0    0  0.39186239019E+02  0.33744652237E+02 -0.39455959349E+03  0.39793408461E+03  0.00000000000E+00 0. -1.
        -12    1    3    3    0    0  0.97850069696E+02 -0.38882269863E+02 -0.59001514940E+03  0.59933658621E+03  0.00000000000E+00 0.  1.
          5    1    4    4  501    0  0.45474734215E+02 -0.22387471024E+02  0.50264934203E+02  0.71506547401E+02  0.41800000000E+01 0. -1.
         -5    1    4    4    0  501 -0.47739982690E+02  0.65989448352E+02  0.88947362423E+02  0.12067650527E+03  0.41800000000E+01 0. -1.
</event>
<event>
11    1  0.9238666E-009  0.2711556E+03  0.7561462E-02  0.1013196E+00
         22   -1    0    0    0    0  0.00000000000E+00  0.00000000000E+00  0.22521352660E+04  0.22521352660E+04  0.00000000000E+00 0. -1.
         22   -1    0    0    0    0 -0.00000000000E+00 -0.00000000000E+00 -0.12412706140E+03  0.12412706140E+03  0.00000000000E+00 0.  1.
        -24    2    1    2    0    0  0.24350017086E+02 -0.39815576959E+02 -0.46644181855E+02  0.10411282150E+03  0.80533200603E+02 0.  0.
         25    2    1    2    0    0 -0.25234369680E+03 -0.28774921814E+02  0.47242938431E+03  0.55076454491E+03  0.12508686313E+03 0.  0.
         24    2    1    2    0    0  0.22799367972E+03  0.68590498773E+02  0.17022230022E+04  0.17213849610E+04  0.94431246859E+02 0.  0.
        -11    1    5    5    0    0  0.56891961238E+02  0.26473675013E+01  0.19805891845E+03  0.20608502854E+03  0.00000000000E+00 0.  1.
         12    1    5    5    0    0  0.17110171848E+03  0.65943131271E+02  0.15041640837E+04  0.15152999325E+04  0.00000000000E+00 0. -1.
         13    1    3    3    0    0  0.24661644444E+02 -0.20654649605E+02  0.17879597607E+02  0.36803413803E+02  0.00000000000E+00 0. -1.
        -14    1    3    3    0    0 -0.31162735742E+00 -0.19160927354E+02 -0.64523779462E+02  0.67309407698E+02  0.00000000000E+00 0.  1.
          5    1    4    4  501    0 -0.11416113699E+03  0.18587095165E+02  0.31679991013E+03  0.33728015175E+03  0.41800000000E+01 0.  1.
         -5    1    4    4    0  501 -0.13818255981E+03 -0.47362016979E+02  0.15562947418E+03  0.21348439316E+03  0.41800000000E+01 0.  1.
</event>
<event>
11    1  0.9238666E-009  0.1652622E+03  0.7561462E-02  0.1082230E+00
         22   -1    0    0    0    0  0.00000000000E+00  0.00000000000E+00  0.16165384010E+04  0.16165384010E+04  0.00000000000E+00 0. -1.
         22   -1    0    0    0    0 -0.00000000000E+00 -0.00000000000E+00 -0.20565760485E+03  0.20565760485E+03  0.00000000000E+00 0. -1.
         24    2    1    2    0    0  0.49978507699E+02 -0.89928028820E+02 -0.12634444227E+03  0.18161265141E+03  0.80220542633E+02 0.  0.
         25    2    1    2    0    0 -0.44422524083E+02  0.13656641757E+03  0.13043741174E+03  0.23083814292E+03  0.12509429561E+03 0.  0.
        -24    2    1    2    0    0 -0.55559836161E+01 -0.46638388749E+02  0.14067878267E+04  0.14097452115E+04  0.78253203505E+02 0.  0.
        -11    1    3    3    0    0 -0.12570483973E+02  0.24276236375E+01 -0.35558917621E+02  0.37793478885E+02  0.00000000000E+00 0.  1.
         12    1    3    3    0    0  0.62548991672E+02 -0.92355652457E+02 -0.90785524645E+02  0.14381917252E+03  0.00000000000E+00 0. -1.
         13    1    5    5    0    0 -0.24944026043E+02 -0.17326659320E+02  0.11670565882E+04  0.11674517111E+04  0.00000000000E+00 0. -1.
        -14    1    5    5    0    0  0.19388042427E+02 -0.29311729429E+02  0.23973123846E+03  0.24229350046E+03  0.00000000000E+00 0.  1.
          5    1    4    4  501    0 -0.81408179362E+02  0.11145118304E+03  0.12379217596E+03  0.18544711672E+03  0.41800000000E+01 0.  1.
         -5    1    4    4    0  501  0.36985655279E+02  0.25115234524E+02  0.66452357731E+01  0.45391026206E+02  0.41800000000E+01 0.  1.
</event>
<event>
11    1  0.9238666E-009  0.1402263E+03  0.7561462E-02  0.1107306E+00
         22   -1    0    0    0    0  0.00000000000E+00  0.00000000000E+00  0.66180165736E+03  0.66180165736E+03  0.00000000000E+00 0.  1.
         22   -1    0    0    0    0 -0.00000000000E+00 -0.00000000000E+00 -0.53018609108E+03  0.53018609108E+03  0.00000000000E+00 0.  1.
         24    2    1    2    0    0 -0.33096781162E+02 -0.39283817417E+02 -0.47971372910E+03  0.48725607864E+03  0.68224695294E+02 0.  0.
         25    2    1    2    0    0  0.72205494814E+02 -0.11775196206E+02  0.83843181832E+02  0.16741969364E+03  0.12508951176E+03 0.  0.
        -24    2    1    2    0    0 -0.39108713652E+02  0.51059013624E+02  0.52748611355E+03  0.53731197615E+03  0.79536440536E+02 0.  0.
        -13    1    3    3    0    0 -0.32586410263E+02 -0.41705526865E+02 -0.18218751591E+03  0.18971957216E+03  0.00000000000E+00 0.  1.
         14    1    3    3    0    0 -0.51037089861E+00  0.24217094471E+01 -0.29752621319E+03  0.29753650648E+03  0.00000000000E+00 0. -1.
         11    1    5    5    0    0 -0.36350687168E+02  0.14296136293E+02  0.87966478989E+02  0.96248913740E+02  0.00000000000E+00 0. -1.
        -12    1    5    5    0    0 -0.27580264839E+01  0.36762877331E+02  0.43951963456E+03  0.44106306241E+03  0.00000000000E+00 0.  1.
          5    1    4    4  501    0  0.11172107475E+01  0.11945669912E+02 -0.29133068082E+02  0.31782939533E+02  0.41800000000E+01 0. -1.
         -5    1    4    4    0  501  0.71088284066E+02 -0.23720866118E+02  0.11297624991E+03  0.13563675411E+03  0.41800000000E+01 0. -1.
</event>
<event>
11    1  0.9238666E-009  0.1753058E+03  0.7561462E-02  0.1073504E+00
         22   -1    0    0    0    0  0.00000000000E+00  0.00000000000E+00  0.93434700224E+03  0.93434700224E+03  0.00000000000E+00 0. -1.
         22   -1    0    0    0    0 -0.00000000000E+00 -0.00000000000E+00 -0.22256292801E+03  0.22256292801E+03  0.00000000000E+00 0. -1.
        -24    2    1    2    0    0  0.81739348518E+02 -0.78540627310E+02 -0.12747213310E+03  0.18888462534E+03  0.81106755197E+02 0.  0.
         25    2    1    2    0    0 -0.15479763492E+03  0.11325083889E+03  0.15963607276E+03  0.27914056338E+03  0.12509083945E+03 0.  0.
         24    2    1    2    0    0  0.73058286405E+02 -0.34710211582E+02  0.67962013458E+03  0.68888474152E+03  0.78334843916E+02 0.  0.
        -11    1    5    5    0    0  0.32736092106E+02 -0.53099383402E+02  0.28282940074E+03  0.28962677046E+03  0.00000000000E+00 0.  1.
         12    1    5    5    0    0  0.40322194299E+02  0.18389171820E+02  0.39679073384E+03  0.39925797106E+03  0.00000000000E+00 0. -1.
         13    1    3    3    0    0  0.95444062913E+02 -0.50121351415E+02 -0.96954441899E+02  0.14498925069E+03  0.00000000000E+00 0. -1.
        -14    1    3    3    0    0 -0.13704714395E+02 -0.28419275895E+02 -0.30517691204E+02  0.43895374648E+02  0.00000000000E+00 0.  1.
          5    1    4    4  501    0 -0.84237629265E+02  0.13776735956E+02  0.12655369980E+03  0.15270588715E+03  0.41800000000E+01 0.  1.
         -5    1    4    4    0  501 -0.70560005658E+02  0.99474102936E+02  0.33082372957E+02  0.12643467623E+03  0.41800000000E+01 0.  1.
</event>
<event>
11    1  0.9238666E-009  0.2426153E+03  0.7561462E-02  0.1027908E+00
         22   -1    0    0    0    0  0.00000000000E+00  0.00000000000E+00  0.42852044300E+03  0.42852044300E+03  0.00000000000E+00 0.  1.
         22   -1    0    0    0    0 -0.00000000000E+00 -0.00000000000E+00 -0.46312599393E+03  0.46312599393E+03  0.00000000000E+00 0. -1.
        -24    2    1    2    0    0  0.13519221879E+03  0.14911271745E+03 -0.29557083497E+03  0.36694857913E+03  0.82326196996E+02 0.  0.
         25    2    1    2    0    0 -0.11584986041E+03 -0.21185488803E+03  0.32241632621E+02  0.27384377074E+03  0.12508878511E+03 0.  0.
         24    2    1    2    0    0 -0.19342358381E+02  0.62742170583E+02  0.22872365142E+03  0.25085408705E+03  0.79388648272E+02 0.  0.
        -11    1    5    5    0    0  0.23292784199E+02  0.24209187223E+01  0.97454678806E+02  0.10022888338E+03  0.00000000000E+00 0.  1.
         12    1    5    5    0    0 -0.42635142580E+02  0.60321251861E+02  0.13126897262E+03  0.15062520367E+03  0.00000000000E+00 0. -1.
         11    1    3    3    0    0  0.81816561591E+02  0.94082166142E+02 -0.24560348785E+03  0.27543869913E+03  0.00000000000E+00 0. -1.
        -12    1    3    3    0    0  0.53375657197E+02  0.55030551305E+02 -0.49967347127E+02  0.91509879997E+02  0.00000000000E+00 0.  1.
          5    1    4    4  501    0 -0.10225872704E+03 -0.19300444077E+03  0.69920950978E+02  0.22937735982E+03  0.41800000000E+01 0.  1.
         -5    1    4    4    0  501 -0.13591133370E+02 -0.18850447263E+02 -0.37679318357E+02  0.44466410920E+02  0.41800000000E+01 0.  1.
</event>
<event>
11    1  0.9238666E-009  0.1361439E+03  0.7561462E-02  0.1111942E+00
         22   -1    0    0    0    0  0.00000000000E+00  0.00000000000E+00  0.74080846592E+02  0.74080846592E+02  0.00000000000E+00 0.  1.
         22   -1    0    0    0    0 -0.00000000000E+00 -0.00000000000E+00 -0.92454436159E+03  0.92454436159E+03  0.00000000000E+00 0.  1.
        -24    2    1    2    0    0 -0.54079612271E+01  0.56502513566E+02 -0.65678260666E+03  0.66418263653E+03  0.80953086207E+02 0.  0.
         25    2    1    2    0    0  0.66966013344E+01 -0.37871391871E+02 -0.21158350055E+03  0.24879190666E+03  0.12510295089E+03 0.  0.
         24    2    1    2    0    0 -0.12886401073E+01 -0.18631121695E+02  0.17902592220E+02  0.85650664993E+02  0.81650194835E+02 0.  0.
        -11    1    5    5    0    0 -0.51365576667E+01 -0.48583669557E+02  0.24629670782E+02  0.54711770718E+02  0.00000000000E+00 0.  1.
         12    1    5    5    0    0  0.38479175594E+01  0.29952547862E+02 -0.67270785616E+01  0.30938894275E+02  0.00000000000E+00 0. -1.
         11    1    3    3    0    0 -0.67098042870E+00 -0.20866692536E+02 -0.16791747457E+03  0.16921036416E+03  0.00000000000E+00 0. -1.
        -12    1    3    3    0    0 -0.47369807984E+01  0.77369206102E+02 -0.48886513210E+03  0.49497227237E+03  0.00000000000E+00 0.  1.
          5    1    4    4  501    0  0.60643454662E+02 -0.37242869211E+02 -0.83784795230E+02  0.11000920058E+03  0.41800000000E+01 0. -1.
         -5    1    4    4    0  501 -0.53946853328E+02 -0.62852266092E+00 -0.12779870532E+03  0.13878270608E+03  0.41800000000E+01 0. -1.
</event>
<event>
11    1  0.9238666E-009  0.1288175E+03  0.7561462E-02  0.1120730E+00
         22   -1    0    0    0    0  0.00000000000E+00  0.00000000000E+00  0.11015466497E+04  0.11015466497E+04  0.00000000000E+00 0. -1.
         22   -1    0    0    0    0 -0.00000000000E+00 -0.00000000000E+00 -0.27663426793E+03  0.27663426793E+03  0.00000000000E+00 0.  1.
        -24    2    1    2    0    0  0.95052954174E+01  0.74498813970E+01 -0.26018909352E+03  0.27237354830E+03  0.79643794804E+02 0.  0.
         25    2    1    2    0    0  0.24359713546E+02 -0.90690992700E+01  0.60422341174E+03  0.61758204787E+03  0.12508401315E+03 0.  0.
         24    2    1    2    0    0 -0.33865008964E+02  0.16192178730E+01  0.48087806357E+03  0.48822532148E+03  0.77270898834E+02 0.  0.
        -13    1    5    5    0    0 -0.30220479432E+02  0.29977001488E+02  0.14462816314E+03  0.15076207603E+03  0.00000000000E+00 0.  1.
         14    1    5    5    0    0 -0.36445295320E+01 -0.28357783615E+02  0.33624990043E+03  0.33746324544E+03  0.00000000000E+00 0. -1.
         13    1    3    3    0    0  0.69817307541E+01 -0.36076899539E+02 -0.12880210675E+03  0.13394129291E+03  0.00000000000E+00 0. -1.
        -14    1    3    3    0    0  0.25235646633E+01  0.43526780936E+02 -0.13138698678E+03  0.13843225539E+03  0.00000000000E+00 0.  1.
          5    1    4    4  501    0  0.64009866927E+02  0.27476434229E+02  0.41313244191E+03  0.41898461124E+03  0.41800000000E+01 0. -1.
         -5    1    4    4    0  501 -0.39650153381E+02 -0.36545533499E+02  0.19109096983E+03  0.19859743663E+03  0.41800000000E+01 0. -1.
</event>
<event>
11    1  0.9238666E-009  0.1439922E+03  0.7561462E-02  0.1103181E+00
         22   -1    0    0    0    0  0.00000000000E+00  0.00000000000E+00  0.10280148076E+04  0.10280148076E+04  0.00000000000E+00 0. -1.
         22   -1    0    0    0    0 -0.00000000000E+00 -0.00000000000E+00 -0.11037217952E+03  0.11037217952E+03  0.00000000000E+00 0. -1.
         24    2    1    2    0    0 -0.98649850243E+01 -0.12476167006E+02 -0.53372619123E+01  0.81842897399E+02  0.80104936285E+02 0.  0.
         25    2    1    2    0    0 -0.20982042777E+02 -0.52588671249E+02  0.10069871551E+02  0.13767735754E+03  0.12509131865E+03 0.  0.
        -24    2    1    2    0    0  0.30847027801E+02  0.65064838255E+02  0.91291001841E+03  0.91886673215E+03  0.75672963725E+02 0.  0.
        -11    1    3    3    0    0  0.28438540800E+02 -0.26317170235E+02  0.68129605948E+01  0.39341587208E+02  0.00000000000E+00 0.  1.
         12    1    3    3    0    0 -0.38303525824E+02  0.13841003229E+02 -0.12150222507E+02  0.42501310191E+02  0.00000000000E+00 0. -1.
         13    1    5    5    0    0  0.26363012725E+02  0.56263395182E+00  0.52033333258E+03  0.52100105757E+03  0.00000000000E+00 0. -1.
        -14    1    5    5    0    0  0.44840150764E+01  0.64502204303E+02  0.39257668583E+03  0.39786567458E+03  0.00000000000E+00 0.  1.
          5    1    4    4  501    0 -0.82534995699E+01 -0.57553842421E+02  0.61241108204E+02  0.84548866146E+02  0.41800000000E+01 0. -1.
         -5    1    4    4    0  501 -0.12728543207E+02  0.49651711719E+01 -0.51171236652E+02  0.53128491391E+02  0.41800000000E+01 0. -1.
</event>
<event>
11    1  0.9238666E-009  0.1323146E+03  0.7561462E-02  0.1116457E+00
         22   -1    0    0    0    0  0.00000000000E+00  0.00000000000E+00  0.18628772305E+03  0.18628772305E+03  0.00000000000E+00 0.  1.
         22   -1    0    0    0    0 -0.00000000000E+00 -0.00000000000E+00 -0.92986296577E+03  0.92986296577E+03  0.00000000000E+00 0. -1.
         24    2    1    2    0    0  0.67792682749E+02  0.26698663388E+02 -0.82089877361E+03  0.82777036277E+03  0.77590659888E+02 0.  0.
         25    2    1    2    0    0  0.22111725150E+02 -0.18264600206E+02  0.10337907373E+03  0.16479183386E+03  0.12508633663E+03 0.  0.
        -24    2    1    2    0    0 -0.89904407898E+02 -0.84340631823E+01 -0.26055542833E+02  0.12358849219E+03  0.80257635824E+02 0.  0.
        -11    1    3    3    0    0  0.30941406286E+02  0.17541895271E+02 -0.10491080174E+03  0.11077619345E+03  0.00000000000E+00 0.  1.
         12    1    3    3    0    0  0.36851276462E+02  0.91567681170E+01 -0.71598797187E+03  0.71699416932E+03  0.00000000000E+00 0. -1.
         13    1    5    5    0    0 -0.52253785984E+02  0.20741851238E+02 -0.45316241131E+02  0.72209724087E+02  0.00000000000E+00 0. -1.
        -14    1    5    5    0    0 -0.37650621914E+02 -0.29175914421E+02  0.19260698298E+02  0.51378768102E+02  0.00000000000E+00 0.  1.
          5    1    4    4  501    0 -0.14424886108E+02  0.34966719470E+02  0.91382692672E+02  0.98989988028E+02  0.41800000000E+01 0.  1.
         -5    1    4    4    0  501  0.36536611258E+02 -0.53231319676E+02  0.11996381057E+02  0.65801845834E+02  0.41800000000E+01 0.  1.
</event>
<event>
11    1  0.9238666E-009  0.1382100E+03  0.7561462E-02  0.1109574E+00
         22   -1    0    0    0    0  0.00000000000E+00  0.00000000000E+00  0.41945530119E+04  0.41945530119E+04  0.00000000000E+00 0. -1.
         22   -1    0    0    0    0 -0.00000000000E+00 -0.00000000000E+00 -0.15999947176E+03  0.15999947176E+03  0.00000000000E+00 0.  1.
         24    2    1    2    0    0 -0.23127948632E+01  0.94894659068E-01 -0.11523532587E+03  0.14033389059E+03  0.80056620542E+02 0.  0.
         25    2    1    2    0    0 -0.50752928758E+02  0.25258469818E+02  0.11757142462E+03  0.18078949957E+03  0.12509177908E+03 0.  0.
        -24    2    1    2    0    0  0.53065723621E+02 -0.25353364477E+02  0.40322174414E+04  0.40334290935E+04  0.79460641747E+02 0.  0.
        -13    1    3    3    0    0  0.37887546501E+02 -0.70903990235E+00 -0.71522319183E+02  0.80940787362E+02  0.00000000000E+00 0.  1.
         14    1    3    3    0    0 -0.40200341364E+02  0.80393456142E+00 -0.43713006690E+02  0.59393103223E+02  0.00000000000E+00 0. -1.
         13    1    5    5    0    0  0.51071793247E+02  0.18324847438E+02  0.24950980607E+04  0.24956879734E+04  0.00000000000E+00 0. -1.
        -14    1    5    5    0    0  0.19939303748E+01 -0.43678211916E+02  0.15371193807E+04  0.15377411201E+04  0.00000000000E+00 0.  1.
          5    1    4    4  501    0  0.19458072039E+02  0.49580594076E+02  0.17788284511E+02  0.56309389468E+02  0.41800000000E+01 0. -1.
         -5    1    4    4    0  501 -0.70211000797E+02 -0.24322124258E+02  0.99783140113E+02  0.12448011011E+03  0.41800000000E+01 0. -1.
</event>
<event>
11    1  0.9238666E-009  0.1516850E+03  0.7561462E-02  0.1095169E+00
         22   -1    0    0    0    0  0.00000000000E+00  0.00000000000E+00  0.14925162722E+03  0.14925162722E+03  0.00000000000E+00 0.  1.
         22   -1    0    0    0    0 -0.00000000000E+00 -0.00000000000E+00 -0.14794790212E+04  0.14794790212E+04  0.00000000000E+00 0. -1.
         24    2    1    2    0    0 -0.58160727559E+02  0.60830916183E+02 -0.10545263117E+04  0.10612889842E+04  0.85002913727E+02 0.  0.
         25    2    1    2    0    0  0.10468366357E+03 -0.12515279013E+03 -0.36202470372E+03  0.41633096664E+03  0.12509075659E+03 0.  0.
        -24    2    1    2    0    0 -0.46522936013E+02  0.64321873946E+02  0.86323621393E+02  0.15111069761E+03  0.95294219538E+02 0.  0.
        -13    1    3    3    0    0 -0.67028076255E+02  0.13046437440E+02 -0.50082420680E+03  0.50545806814E+03  0.00000000000E+00 0.  1.
         14    1    3    3    0    0  0.88673486958E+01  0.47784478743E+02 -0.55370210488E+03  0.55583091604E+03  0.00000000000E+00 0. -1.
         11    1    5    5    0    0 -0.73245536685E+02  0.28031798218E+02  0.47980315990E+02  0.91939116148E+02  0.00000000000E+00 0. -1.
        -12    1    5    5    0    0  0.26722600672E+02  0.36290075728E+02  0.38343305403E+02  0.59171581458E+02  0.00000000000E+00 0.  1.
          5    1    4    4  501    0  0.12054168590E+03 -0.12917828391E+03 -0.26952091557E+03  0.32229850047E+03  0.41800000000E+01 0. -1.
         -5    1    4    4    0  501 -0.15858022330E+02  0.40254937861E+01 -0.92503788144E+02  0.94032466166E+02  0.41800000000E+01 0. -1.
</event>
<event>
11    1  0.9238666E-009  0.1410084E+03  0.7561462E-02  0.1106438E+00
         22   -1    0    0    0    0  0.00000000000E+00  0.00000000000E+00  0.12823139117E+03  0.12823139117E+03  0.00000000000E+00 0. -1.
         22   -1    0    0    0    0 -0.00000000000E+00 -0.00000000000E+00 -0.78461838985E+03  0.78461838985E+03  0.00000000000E+00 0. -1.
         24    2    1    2    0    0 -0.32379128339E+02  0.56105499196E+02 -0.62570512835E+03  0.63460370997E+03  0.83777837604E+02 0.  0.
         25    2    1    2    0    0  0.26886313324E+02 -0.62590058356E+02 -0.98804248087E+02  0.17334739164E+03  0.12508656802E+03 0.  0.
        -24    2    1    2    0    0  0.54928150150E+01  0.64845591598E+01  0.68122377755E+02  0.10489867941E+03  0.79314904444E+02 0.  0.
        -11    1    3    3    0    0 -0.21671143393E+02 -0.19704773962E+02 -0.18178596211E+03  0.18413053140E+03  0.00000000000E+00 0.  1.
         12    1    3    3    0    0 -0.10707984946E+02  0.75810273159E+02 -0.44391916624E+03  0.45047317857E+03  0.00000000000E+00 0. -1.
         11    1    5    5    0    0 -0.27256504625E+02  0.58543681117E+01  0.66495412109E+02  0.72102916043E+02  0.00000000000E+00 0. -1.
        -12    1    5    5    0    0  0.32749319640E+02  0.63019104809E+00  0.16269656458E+01  0.32795763368E+02  0.00000000000E+00 0.  1.
          5    1    4    4  501    0  0.11665729071E+02 -0.37939039917E+02  0.24356154886E+02  0.46756332891E+02  0.41800000000E+01 0.  1.
         -5    1    4    4    0  501  0.15220584254E+02 -0.24651018439E+02 -0.12316040297E+03  0.12659105875E+03  0.41800000000E+01 0.  1.
</event>
<event>
11    1  0.9238666E-009  0.1374241E+03  0.7561462E-02  0.1110469E+00
         22   -1    0    0    0    0  0.00000000000E+00  0.00000000000E+00  0.11626293632E+03  0.11626293632E+03  0.00000000000E+00 0.  1.
         22   -1    0    0    0    0 -0.00000000000E+00 -0.00000000000E+00 -0.45746622649E+03  0.45746622649E+03  0.00000000000E+00 0. -1.
        -24    2    1    2    0    0 -0.24709344138E+02 -0.52872231777E+02 -0.34358938937E+03  0.35752840051E+03  0.79792631884E+02 0.  0.
         25    2    1    2    0    0 -0.60194472475E+00  0.48827229006E+02 -0.11595274779E+02  0.13476695794E+03  0.12507286646E+03 0.  0.
         24    2    1    2    0    0  0.25311288863E+02  0.40450027703E+01  0.13981373974E+02  0.81433804364E+02  0.76019486210E+02 0.  0.
        -11    1    5    5    0    0  0.73245363271E+01 -0.18061666672E+02  0.38943186289E+02  0.43548184735E+02  0.00000000000E+00 0.  1.
         12    1    5    5    0    0  0.17986752536E+02  0.22106669442E+02 -0.24961812315E+02  0.37885619629E+02  0.00000000000E+00 0. -1.
         13    1    3    3    0    0 -0.42186625031E+02 -0.29638434132E+01 -0.10598969506E+03  0.11411534147E+03  0.00000000000E+00 0. -1.
        -14    1    3    3    0    0  0.17477280892E+02 -0.49908388363E+02 -0.23759969431E+03  0.24341305904E+03  0.00000000000E+00 0.  1.
          5    1    4    4  501    0  0.14824910502E+02 -0.11454820013E+02 -0.55349915636E+02  0.58583926412E+02  0.41800000000E+01 0.  1.
         -5    1    4    4    0  501 -0.15426855227E+02  0.60282049020E+02  0.43754640857E+02  0.76183031527E+02  0.41800000000E+01 0.  1.
</event>
<event>
11    1  0.9238666E-009  0.1650525E+03  0.7561462E-02  0.1082419E+00
         22   -1    0    0    0    0  0.00000000000E+00  0.00000000000E+00  0.18587842445E+03  0.18587842445E+03  0.00000000000E+00 0. -1.
         22   -1    0    0    0    0 -0.00000000000E+00 -0.00000000000E+00 -0.90985439425E+03  0.90985439425E+03  0.00000000000E+00 0.  1.
        -24    2    1    2    0    0 -0.35759768290E+02  0.61856627094E+02 -0.65609864395E+03  0.66492263564E+03  0.80942432981E+02 0.  0.
         25    2    1    2    0    0  0.88826664988E+02 -0.14494637774E+03 -0.16639060389E+03  0.26875953444E+03  0.12508487302E+03 0.  0.
         24    2    1    2    0    0 -0.53066896698E+02  0.83089750643E+02  0.98513278041E+02  0.16205064862E+03  0.82677352287E+02 0.  0.
        -13    1    5    5    0    0  0.65734757031E+01  0.63853346413E+02  0.63380144012E+02  0.90208109868E+02  0.00000000000E+00 0.  1.
         14    1    5    5    0    0 -0.59640372401E+02  0.19236404231E+02  0.35133134028E+02  0.71842538753E+02  0.00000000000E+00 0. -1.
         13    1    3    3    0    0 -0.20778973138E+01 -0.18628268984E+02 -0.74795136545E+02  0.77107992539E+02  0.00000000000E+00 0. -1.
        -14    1    3    3    0    0 -0.33681870976E+02  0.80484896078E+02 -0.58130350740E+03  0.58781464310E+03  0.00000000000E+00 0.  1.
          5    1    4    4  501    0 -0.36837930631E+01 -0.38896583953E+02  0.12386551603E+02  0.41199680037E+02  0.41800000000E+01 0. -1.
         -5    1    4    4    0  501  0.92510458051E+02 -0.10604979378E+03 -0.17877715550E+03  0.22755985441E+03  0.41800000000E+01 0. -1.
</event>
<event>
11    1  0.9238666E-009  0.1449675E+03  0.7561462E-02  0.1102135E+00
         22   -1    0    0    0    0  0.00000000000E+00  0.00000000000E+00  0.31738809505E+03  0.31738809505E+03  0.00000000000E+00 0.  1.
         22   -1    0    0    0    0 -0.00000000000E+00 -0.00000000000E+00 -0.61817410028E+03  0.61817410028E+03  0.00000000000E+00 0. -1.
        -24    2    1    2    0    0 -0.68056504437E+02 -0.41319085950E+02 -0.51917233524E+03  0.53148522990E+03  0.81226111997E+02 0.  0.
         25    2    1    2    0    0  0.67221351391E+01  0.30011578893E+02 -0.32990496475E+02  0.13297344837E+03  0.12509069967E+03 0.  0.
         24    2    1    2    0    0  0.61334369297E+02  0.11307507057E+02  0.25137682648E+03  0.27110351706E+03  0.80106451020E+02 0.  0.
        -11    1    5    5    0    0 -0.14931449958E+01  0.69402843567E+01  0.15981871308E+03  0.15997630475E+03  0.00000000000E+00 0.  1.
         12    1    5    5    0    0  0.62827514293E+02  0.43672227000E+01  0.91558113397E+02  0.11112721231E+03  0.00000000000E+00 0. -1.
         13    1    3    3    0    0 -0.84717864074E+01 -0.39044486042E+02 -0.34673754833E+03  0.34903176142E+03  0.00000000000E+00 0. -1.
        -14    1    3    3    0    0 -0.59584718029E+02 -0.22745999080E+01 -0.17243478690E+03  0.18245346848E+03  0.00000000000E+00 0.  1.
          5    1    4    4  501    0 -0.29819238916E+02  0.68959394998E+02 -0.19256039911E+02  0.77671440318E+02  0.41800000000E+01 0.  1.
         -5    1    4    4    0  501  0.36541374056E+02 -0.38947816106E+02 -0.13734456565E+02  0.55302008050E+02  0.41800000000E+01 0.  1.
</event>
<event>
11    1  0.9238666E-009  0.2258568E+03  0.7561462E-02  0.1037609E+00
         22   -1    0    0    0    0  0.00000000000E+00  0.00000000000E+00  0.11469965415E+04  0.11469965415E+04  0.00000000000E+00 0. -1.
         22   -1    0    0    0    0 -0.00000000000E+00 -0.00000000000E+00 -0.21001136249E+03  0.21001136249E+03  0.00000000000E+00 0.  1.
         24    2    1    2    0    0  0.98067422646E+00  0.18690235387E+03 -0.71486444948E+02  0.21639752415E+03  0.82365800191E+02 0.  0.
         25    2    1    2    0    0  0.80577048967E+02 -0.18788883529E+03  0.16805358950E+03  0.29271823770E+03  0.12508829878E+03 0.  0.
        -24    2    1    2    0    0 -0.81557723194E+02  0.98648141826E+00  0.84041803444E+03  0.84789214213E+03  0.77239735306E+02 0.  0.
        -11    1    3    3    0    0 -0.17938266392E+00  0.18911853211E+03 -0.81605372766E+02  0.20597399892E+03  0.00000000000E+00 0.  1.
         12    1    3    3    0    0  0.11600568904E+01 -0.22161782415E+01  0.10118927818E+02  0.10423525227E+02  0.00000000000E+00 0. -1.
         13    1    5    5    0    0 -0.34481809763E+02  0.32270670462E+02  0.55006150902E+03  0.55208518825E+03  0.00000000000E+00 0. -1.
        -14    1    5    5    0    0 -0.47075913430E+02 -0.31284189044E+02  0.29035652541E+03  0.29580695387E+03  0.00000000000E+00 0.  1.
          5    1    4    4  501    0  0.10797718305E+03 -0.10048421146E+03  0.95180783785E+02  0.17559328807E+03  0.41800000000E+01 0. -1.
         -5    1    4    4    0  501 -0.27400134081E+02 -0.87404623827E+02  0.72872805718E+02  0.11712494964E+03  0.41800000000E+01 0. -1.
</event>
<event>
11    1  0.9238666E-009  0.1585738E+03  0.7561462E-02  0.1088426E+00
         22   -1    0    0    0    0  0.00000000000E+00  0.00000000000E+00  0.83400517860E+03  0.83400517860E+03  0.00000000000E+00 0.  1.
         22   -1    0    0    0    0 -0.00000000000E+00 -0.00000000000E+00 -0.15301163258E+03  0.15301163258E+03  0.00000000000E+00 0. -1.
         24    2    1    2    0    0 -0.27338130693E+02 -0.23566189263E+02 -0.10212276061E+03  0.13874908438E+03  0.86715116996E+02 0.  0.
         25    2    1    2    0    0  0.97753451696E+02 -0.42073117256E+02  0.24054185201E+03  0.29126212765E+03  0.12508940771E+03 0.  0.
        -24    2    1    2    0    0 -0.70415321002E+02  0.65639306518E+02  0.54257445462E+03  0.55700559915E+03  0.81248770373E+02 0.  0.
        -13    1    3    3    0    0 -0.52773338306E+02 -0.35024583889E+02 -0.54506625591E+02  0.83562664785E+02  0.00000000000E+00 0.  1.
         14    1    3    3    0    0  0.25435207613E+02  0.11458394627E+02 -0.47616135015E+02  0.55186419593E+02  0.00000000000E+00 0. -1.
         11    1    5    5    0    0 -0.34509274778E+02  0.67538339446E+02  0.22580614120E+03  0.23820312917E+03  0.00000000000E+00 0. -1.
        -12    1    5    5    0    0 -0.35906046224E+02 -0.18990329279E+01  0.31676831342E+03  0.31880246998E+03  0.00000000000E+00 0.  1.
          5    1    4    4  501    0  0.78607553162E+02  0.21541980264E+02  0.67673339612E+02  0.10602055283E+03  0.41800000000E+01 0.  1.
         -5    1    4    4    0  501  0.19145898533E+02 -0.63615097520E+02  0.17286851240E+03  0.18524157482E+03  0.41800000000E+01 0.  1.
</event>
<event>
11    1  0.9238666E-009  0.1424457E+03  0.7561462E-02  0.1104858E+00
         22   -1    0    0    0    0  0.00000000000E+00  0.00000000000E+00  0.18623725250E+04  0.18623725250E+04  0.00000000000E+00 0. -1.
         22   -1    0    0    0    0 -0.00000000000E+00 -0.00000000000E+00 -0.31668062878E+03  0.31668062878E+03  0.00000000000E+00 0. -1.
         24    2    1    2    0    0  0.62515195598E+02  0.28715188263E+02 -0.29448053833E+03  0.31272771709E+03  0.79668851300E+02 0.  0.
         25    2    1    2    0    0 -0.26484643532E+02 -0.39762553181E+02  0.36955975496E+03  0.39307079498E+03  0.12509092854E+03 0.  0.
        -24    2    1    2    0    0 -0.36030552067E+02  0.11047364918E+02  0.14706126796E+04  0.14732546417E+04  0.79732935287E+02 0.  0.
        -13    1    3    3    0    0  0.37671432320E+02  0.51179845474E+02 -0.12795443747E+03  0.14286655124E+03  0.00000000000E+00 0.  1.
         14    1    3    3    0    0  0.24843763279E+02 -0.22464657211E+02 -0.16652610086E+03  0.16986116585E+03  0.00000000000E+00 0. -1.
         13    1    5    5    0    0 -0.12153364830E+02  0.30506146903E+02  0.12573805274E+04  0.12578092542E+04  0.00000000000E+00 0. -1.
        -14    1    5    5    0    0 -0.23877187236E+02 -0.19458781985E+02  0.21323215226E+03  0.21544538756E+03  0.00000000000E+00 0.  1.
          5    1    4    4  501    0 -0.63303963724E+02  0.69672871009E+01  0.11405453122E+03  0.13069752639E+03  0.41800000000E+01 0.  1.
         -5    1    4    4    0  501  0.36819320192E+02 -0.46729840282E+02  0.25550522374E+03  0.26237326859E+03  0.41800000000E+01 0.  1.
</event>
<event>
11    1  0.9238666E-009  0.1602323E+03  0.7561462E-02  0.1086859E+00
         22   -1    0    0    0    0  0.00000000000E+00  0.00000000000E+00  0.93052630190E+03  0.93052630190E+03  0.00000000000E+00 0.  1.
         22   -1    0    0    0    0 -0.00000000000E+00 -0.00000000000E+00 -0.79607097899E+03  0.79607097899E+03  0.00000000000E+00 0. -1.
        -24    2    1    2    0    0 -0.29838074119E+02  0.97983895362E+02 -0.65716250019E+03  0.67001427063E+03  0.81027259447E+02 0.  0.
         25    2    1    2    0    0  0.82302707641E+01 -0.85528216869E+02 -0.86365370943E+02  0.17461155370E+03  0.12508958450E+03 0.  0.
         24    2    1    2    0    0  0.21607803355E+02 -0.12455678493E+02  0.87798319405E+03  0.88197145655E+03  0.79981998271E+02 0.  0.
        -13    1    5    5    0    0  0.25389960260E+01 -0.45444556672E+02  0.50500467731E+03  0.50705165253E+03  0.00000000000E+00 0.  1.
         14    1    5    5    0    0  0.19068807329E+02  0.32988878179E+02  0.37297851674E+03  0.37491980402E+03  0.00000000000E+00 0. -1.
         13    1    3    3    0    0 -0.37397792029E+02  0.95158444626E+02 -0.65295767643E+03  0.66091410307E+03  0.00000000000E+00 0. -1.
        -14    1    3    3    0    0  0.75597179101E+01  0.28254507357E+01 -0.42048237649E+01  0.91001675608E+01  0.00000000000E+00 0.  1.
          5    1    4    4  501    0  0.24461142939E+02 -0.10319510159E+03 -0.10073949728E+03  0.14633350682E+03  0.41800000000E+01 0.  1.
         -5    1    4    4    0  501 -0.16230872175E+02  0.17666884720E+02  0.14374126339E+02  0.28278046879E+02  0.41800000000E+01 0.  1.
</event>
<event>
11    1  0.9238666E-009  0.1405497E+03  0.7561462E-02  0.1106946E+00
         22   -1    0    0    0    0  0.00000000000E+00  0.00000000000E+00  0.35274007554E+03  0.35274007554E+03  0.00000000000E+00 0. -1.
         22   -1    0    0    0    0 -0.00000000000E+00 -0.00000000000E+00 -0.31526290064E+03  0.31526290064E+03  0.00000000000E+00 0. -1.
         24    2    1    2    0    0 -0.44586111733E+02  0.50380438735E+02 -0.26709802793E+03  0.28658633599E+03  0.79147087665E+02 0.  0.
         25    2    1    2    0    0  0.89463077190E+01 -0.81127924652E+01  0.13417216868E+03  0.18383518697E+03  0.12508937324E+03 0.  0.
        -24    2    1    2    0    0  0.35639804014E+02 -0.42267646269E+02  0.17040303414E+03  0.19758145322E+03  0.83333589037E+02 0.  0.
        -11    1    3    3    0    0  0.23114211480E+02  0.13726330564E+02 -0.67586701888E+02  0.72736793957E+02  0.00000000000E+00 0.  1.
         12    1    3    3    0    0 -0.67700323212E+02  0.36654108171E+02 -0.19951132604E+03  0.21384954203E+03  0.00000000000E+00 0. -1.
         13    1    5    5    0    0  0.32409561684E+02 -0.20344736932E+02  0.17118328359E+03  0.17540810867E+03  0.00000000000E+00 0. -1.
        -14    1    5    5    0    0  0.32302423293E+01 -0.21922909338E+02 -0.78024944321E+00  0.22173344550E+02  0.00000000000E+00 0.  1.
          5    1    4    4  501    0  0.63609550768E+02 -0.37686862798E+01  0.41770253019E+02  0.76305991786E+02  0.41800000000E+01 0.  1.
         -5    1    4    4    0  501 -0.54663243049E+02 -0.43441061854E+01  0.92401915657E+02  0.10752919518E+03  0.41800000000E+01 0.  1.
</event>
<event>
11    1  0.9238666E-009  0.1345368E+03  0.7561462E-02  0.1113817E+00
         22   -1    0    0    0    0  0.00000000000E+00  0.00000000000E+00  0.12092722602E+04  0.12092722602E+04  0.00000000000E+00 0.  1.
         22   -1    0    0    0    0 -0.00000000000E+00 -0.00000000000E+00 -0.19716499934E+03  0.19716499934E+03  0.00000000000E+00 0.  1.
         24    2    1    2    0    0  0.60916843298E+01 -0.44636527989E+02 -0.15654843993E+03  0.18129536348E+03  0.79567999393E+02 0.  0.
         25    2    1    2    0    0 -0.40563968337E+02  0.60063143953E+01  0.14065902986E+03  0.19265031533E+03  0.12509064704E+03 0.  0.
        -24    2    1    2    0    0  0.34472284007E+02  0.38630213593E+02  0.10279966709E+04  0.10324915807E+04  0.81123837861E+02 0.  0.
        -13    1    3    3    0    0  0.10339312722E+01 -0.64297949399E+02 -0.14326148073E+03  0.15703231251E+03  0.00000000000E+00 0.  1.
         14    1    3    3    0    0  0.50577530576E+01  0.19661421410E+02 -0.13286959199E+02  0.24263050975E+02  0.00000000000E+00 0. -1.
         11    1    5    5    0    0 -0.98187456202E+01  0.29987580751E+01  0.16732500035E+02  0.19631018134E+02  0.00000000000E+00 0. -1.
        -12    1    5    5    0    0  0.44291029627E+02  0.35631455518E+02  0.10112641709E+04  0.10128605626E+04  0.00000000000E+00 0.  1.
          5    1    4    4  501    0  0.29223574469E+02  0.11287761216E+02  0.11290471675E+03  0.11724495009E+03  0.41800000000E+01 0.  1.
         -5    1    4    4    0  501 -0.69787542806E+02 -0.52814468211E+01  0.27754313111E+02  0.75405365244E+02  0.41800000000E+01 0.  1.
</event>
<event>
11    1  0.9238666E-009  0.1551738E+03  0.7561462E-02  0.1091706E+00
         22   -1    0    0    0    0  0.00000000000E+00  0.00000000000E+00  0.12153161975E+04  0.12153161975E+04  0.00000000000E+00 0. -1.
         22   -1    0    0    0    0 -0.00000000000E+00 -0.00000000000E+00 -0.32014684385E+03  0.32014684385E+03  0.00000000000E+00 0.  1.
         24    2    1    2    0    0 -0.83228017015E+02 -0.41782862506E+02 -0.29179162409E+03  0.31661257374E+03  0.80177674866E+02 0.  0.
         25    2    1    2    0    0  0.44691005017E+02  0.34683862216E+02  0.33299478719E+03  0.36018385703E+03  0.12508647546E+03 0.  0.
        -24    2    1    2    0    0  0.38537011998E+02  0.70990002905E+01  0.85396619056E+03  0.85866661059E+03  0.80713049885E+02 0.  0.
        -11    1    3    3    0    0 -0.80874725257E+02 -0.12574445410E+02 -0.26335382626E+03  0.27577903414E+03  0.00000000000E+00 0.  1.
         12    1    3    3    0    0 -0.23532917577E+01 -0.29208417096E+02 -0.28437797830E+02  0.40833539606E+02  0.00000000000E+00 0. -1.
         11    1    5    5    0    0  0.41823930123E+02  0.39038663532E+02  0.58487099181E+03  0.58766260341E+03  0.00000000000E+00 0. -1.
        -12    1    5    5    0    0 -0.32869181249E+01 -0.31939663242E+02  0.26909519875E+03  0.27100400718E+03  0.00000000000E+00 0.  1.
          5    1    4    4  501    0  0.19302948895E+02  0.72678357596E+02  0.11539028173E+03  0.13779382068E+03  0.41800000000E+01 0.  1.
         -5    1    4    4    0  501  0.25388056122E+02 -0.37994495380E+02  0.21760450546E+03  0.22239003636E+03  0.41800000000E+01 0.  1.
</event>
<event>
11    1  0.9238666E-009  0.1903956E+03  0.7561462E-02  0.1061531E+00
         22   -1    0    0    0    0  0.00000000000E+00  0.00000000000E+00  0.49569835903E+03  0.49569835903E+03  0.00000000000E+00 0. -1.
         22   -1    0    0    0    0 -0.00000000000E+00 -0.00000000000E+00 -0.18923464298E+03  0.18923464298E+03  0.00000000000E+00 0.  1.
         24    2    1    2    0    0 -0.55070178493E+02 -0.26056926348E+02 -0.25293330219E+02  0.10004044307E+03  0.75210702201E+02 0.  0.
         25    2    1    2    0    0  0.10585876722E+03  0.15323084475E+03  0.81083735760E+01  0.22449203950E+03  0.12508061279E+03 0.  0.
        -24    2    1    2    0    0 -0.50788588723E+02 -0.12717391840E+03  0.32364867269E+03  0.36040051945E+03  0.79921116210E+02 0.  0.
        -13    1    3    3    0    0 -0.14854489907E+02 -0.48226125901E+02 -0.17813359004E+02  0.53513837919E+02  0.00000000000E+00 0.  1.
         14    1    3    3    0    0 -0.40215688586E+02  0.22169199553E+02 -0.74799712152E+01  0.46526605149E+02  0.00000000000E+00 0. -1.
         11    1    5    5    0    0 -0.43317372872E+02 -0.13842192201E+03  0.29484985332E+03  0.32859315161E+03  0.00000000000E+00 0. -1.
        -12    1    5    5    0    0 -0.74712158513E+01  0.11248003602E+02  0.28798819375E+02  0.31807367837E+02  0.00000000000E+00 0.  1.
          5    1    4    4  501    0  0.81235116374E+02  0.36293012958E+02 -0.37325144172E+02  0.96576217100E+02  0.41800000000E+01 0.  1.
         -5    1    4    4    0  501  0.24623650842E+02  0.11693783179E+03  0.45433517748E+02  0.12791582240E+03  0.41800000000E+01 0.  1.
</event>
<event>
11    1  0.9238666E-009  0.1460578E+03  0.7561462E-02  0.1100976E+00
         22   -1    0    0    0    0  0.00000000000E+00  0.00000000000E+00  0.21781890097E+03  0.21781890097E+03  0.00000000000E+00 0.  1.
         22   -1    0    0    0    0 -0.00000000000E+00 -0.00000000000E+00 -0.22591739030E+03  0.22591739030E+03  0.00000000000E+00 0.  1.
         24    2    1    2    0    0  0.48466266906E+02 -0.12005665376E+03 -0.15881277595E+02  0.15309321906E+03  0.80141996503E+02 0.  0.
         25    2    1    2    0    0 -0.16058918413E+02  0.40886371276E+02 -0.70047463571E+02  0.14994334192E+03  0.12508706735E+03 0.  0.
        -24    2    1    2    0    0 -0.32407348493E+02  0.79170282488E+02  0.77830251842E+02  0.14069973029E+03  0.80129246440E+02 0.  0.
        -11    1    3    3    0    0  0.66727594595E+02 -0.92962609769E+02  0.46119745516E+01  0.11452462183E+03  0.00000000000E+00 0.  1.
         12    1    3    3    0    0 -0.18261327689E+02 -0.27094043995E+02 -0.20493252147E+02  0.38568597233E+02  0.00000000000E+00 0. -1.
         11    1    5    5    0    0 -0.28949835049E+02 -0.73381915228E+00  0.46547378465E+02  0.54820524276E+02  0.00000000000E+00 0. -1.
        -12    1    5    5    0    0 -0.34575134440E+01  0.79904101640E+02  0.31282873377E+02  0.85879206010E+02  0.00000000000E+00 0.  1.
          5    1    4    4  501    0 -0.61937929688E+02  0.35549066908E+02 -0.74583180532E+02  0.10334489107E+03  0.41800000000E+01 0.  1.
         -5    1    4    4    0  501  0.45879011275E+02  0.53373043679E+01  0.45357169606E+01  0.46598450852E+02  0.41800000000E+01 0.  1.
</event>
<event>
11    1  0.9238666E-009  0.1280622E+03  0.7561462E-02  0.1121673E+00
         22   -1    0    0    0    0  0.00000000000E+00  0.00000000000E+00  0.21233618126E+04  0.21233618126E+04  0.00000000000E+00 0. -1.
         22   -1    0    0    0    0 -0.00000000000E+00 -0.00000000000E+00 -0.17261216926E+03  0.17261216926E+03  0.00000000000E+00 0.  1.
        -24    2    1    2    0    0 -0.16561796242E+02  0.48752537832E+01 -0.13378664469E+03  0.15796332548E+03  0.82191755705E+02 0.  0.
         25    2    1    2    0    0  0.39976532197E+02  0.85205157559E+01  0.14203530314E+03  0.19363363321E+03  0.12509689947E+03 0.  0.
         24    2    1    2    0    0 -0.23414735954E+02 -0.13395769539E+02  0.19425009849E+04  0.19443770232E+04  0.81019969442E+02 0.  0.
        -13    1    5    5    0    0 -0.16160701960E+02  0.85455224206E+01  0.95640582406E+02  0.97372045496E+02  0.00000000000E+00 0.  1.
         14    1    5    5    0    0 -0.72540339941E+01 -0.21941291960E+02  0.18468604025E+04  0.18470049777E+04  0.00000000000E+00 0. -1.
         13    1    3    3    0    0 -0.47769955100E+01 -0.37804627837E+02 -0.46754681906E+02  0.60315917072E+02  0.00000000000E+00 0. -1.
        -14    1    3    3    0    0 -0.11784800732E+02  0.42679881621E+02 -0.87031962779E+02  0.97647408407E+02  0.00000000000E+00 0.  1.
          5    1    4    4  501    0 -0.16742787346E+02  0.21971022447E+02  0.13126792183E+03  0.13420799699E+03  0.41800000000E+01 0. -1.
         -5    1    4    4    0  501  0.56719319542E+02 -0.13450506691E+02  0.10767381312E+02  0.59425636218E+02  0.41800000000E+01 0. -1.
</event>
<event>
11    1  0.9238666E-009  0.1341056E+03  0.7561462E-02  0.1114325E+00
         22   -1    0    0    0    0  0.00000000000E+00  0.00000000000E+00  0.87065313173E+03  0.87065313173E+03  0.00000000000E+00 0.  1.
         22   -1    0    0    0    0 -0.00000000000E+00 -0.00000000000E+00 -0.46922779823E+03  0.46922779823E+03  0.00000000000E+00 0. -1.
        -24    2    1    2    0    0  0.49569989934E+02 -0.82234079837E+01 -0.16882999802E+03  0.19106086889E+03  0.73999182752E+02 0.  0.
         25    2    1    2    0    0 -0.44606616287E+02  0.56279852494E+02 -0.26852748753E+03  0.30481392116E+03  0.12508933992E+03 0.  0.
         24    2    1    2    0    0 -0.49633736471E+01 -0.48056444510E+02  0.83878281904E+03  0.84400613991E+03  0.80347306974E+02 0.  0.
        -11    1    5    5    0    0  0.23297386201E+02 -0.20743609937E+02  0.66927864769E+03  0.67000520432E+03  0.00000000000E+00 0.  1.
         12    1    5    5    0    0 -0.28260759848E+02 -0.27312834573E+02  0.16950417135E+03  0.17400093559E+03  0.00000000000E+00 0. -1.
         11    1    3    3    0    0 -0.10224336989E+02  0.20209911169E+02 -0.53118420614E+02  0.57745512249E+02  0.00000000000E+00 0. -1.
        -12    1    3    3    0    0  0.59794326923E+02 -0.28433319153E+02 -0.11571157741E+03  0.13331535664E+03  0.00000000000E+00 0.  1.
          5    1    4    4  501    0  0.24551385626E+01 -0.36324072759E+02 -0.43126994812E+02  0.56593957705E+02  0.41800000000E+01 0. -1.
         -5    1    4    4    0  501 -0.47061754849E+02  0.92603925253E+02 -0.22540049271E+03  0.24821996346E+03  0.41800000000E+01 0. -1.
</event>
<event>
11    1  0.9238666E-009  0.3315138E+03  0.7561462E-02  0.9876708E-01
         22   -1    0    0    0    0  0.00000000000E+00  0.00000000000E+00  0.68682957462E+03  0.68682957462E+03  0.00000000000E+00 0.  1.
         22   -1    0    0    0    0 -0.00000000000E+00 -0.00000000000E+00 -0.36091201474E+03  0.36091201474E+03  0.00000000000E+00 0. -1.
        -24    2    1    2    0    0  0.10031365565E+03 -0.40182072395E+02 -0.30651912486E+03  0.33368448155E+03  0.75590547488E+02 0.  0.
         25    2    1    2    0    0  0.96661354999E+01  0.89186184744E+01  0.93365755842E+02  0.15664320083E+03  0.12508777747E+03 0.  0.
         24    2    1    2    0    0 -0.10997979115E+03  0.31263453921E+02  0.53907092890E+03  0.55741390698E+03  0.83903750217E+02 0.  0.
        -11    1    5    5    0    0 -0.10608567658E+03  0.18080830439E+02  0.53029779815E+03  0.54110705219E+03  0.00000000000E+00 0.  1.
         12    1    5    5    0    0 -0.38941145691E+01  0.13182623481E+02  0.87731307491E+01  0.16306854794E+02  0.00000000000E+00 0. -1.
         11    1    3    3    0    0  0.94008816028E+02 -0.30719103395E+02 -0.16987188506E+03  0.19656494636E+03  0.00000000000E+00 0. -1.
        -12    1    3    3    0    0  0.63048396215E+01 -0.94629689999E+01 -0.13664723980E+03  0.13711953518E+03  0.00000000000E+00 0.  1.
          5    1    4    4  501    0 -0.39824270020E+02  0.83070216112E+01 -0.98788193069E+01  0.42071873759E+02  0.41800000000E+01 0.  1.
         -5    1    4    4    0  501  0.49490405520E+02  0.61159686324E+00  0.10324457515E+03  0.11457132707E+03  0.41800000000E+01 0.  1.
</event>
<event>
11    1  0.9238666E-009  0.1369297E+03  0.7561462E-02  0.1111036E+00
         22   -1    0    0    0    0  0.00000000000E+00  0.00000000000E+00  0.68544274504E+02  0.68544274504E+02  0.00000000000E+00 0.  1.
         22   -1    0    0    0    0 -0.00000000000E+00 -0.00000000000E+00 -0.85425839100E+03  0.85425839100E+03  0.00000000000E+00 0. -1.
        -24    2    1    2    0    0 -0.27464967874E+02  0.40424606181E+01 -0.63781930373E+03  0.64324204621E+03  0.78588802318E+02 0.  0.
         25    2    1    2    0    0  0.60574657700E+02  0.33683199188E+02 -0.10763473824E+03  0.17898877256E+03  0.12509155354E+03 0.  0.
         24    2    1    2    0    0 -0.33109689826E+02 -0.37725659806E+02 -0.40260074530E+02  0.10057184673E+03  0.77293892292E+02 0.  0.
        -13    1    5    5    0    0 -0.56357475771E+01  0.12933129994E+02  0.15096721079E+02  0.20662489916E+02  0.00000000000E+00 0.  1.
         14    1    5    5    0    0 -0.27473942248E+02 -0.50658789800E+02 -0.55356795608E+02  0.79909356816E+02  0.00000000000E+00 0. -1.
         11    1    3    3    0    0 -0.54407811213E+02  0.96309745034E+01 -0.38865112744E+03  0.39255912224E+03  0.00000000000E+00 0. -1.
        -12    1    3    3    0    0  0.26942843338E+02 -0.55885138853E+01 -0.24916817629E+03  0.25068292397E+03  0.00000000000E+00 0.  1.
          5    1    4    4  501    0  0.30525781876E+02  0.78029647273E+02 -0.88523153597E+02  0.12196011781E+03  0.41800000000E+01 0.  1.
         -5    1    4    4    0  501  0.30048875824E+02 -0.44346448085E+02 -0.19111584638E+02  0.57028654757E+02  0.41800000000E+01 0.  1.
</event>
<event>
11    1  0.1310936E-008  0.1673156E+03  0.7561462E-02  0.1080392E+00
         22   -1    0    0    0    0  0.00000000000E+00  0.00000000000E+00  0.17502197611E+04  0.17502197611E+04  0.00000000000E+00 0. -1.
         22   -1    0    0    0    0 -0.00000000000E+00 -0.00000000000E+00 -0.37207096966E+03  0.37207096966E+03  0.00000000000E+00 0.  1.
        -24    2    1    2    0    0  0.24837547651E+02 -0.19940539382E+02 -0.29769288613E+03  0.30992291021E+03  0.80103850960E+02 0.  0.
         25    2    1    2    0    0  0.24336359912E+02 -0.81054488699E+02  0.21836991470E+02  0.15259983863E+03  0.12509103886E+03 0.  0.
         24    2    1    2    0    0 -0.49173907563E+02  0.10099502808E+03  0.16540046861E+04  0.16597679819E+04  0.80499585603E+02 0.  0.
        -11    1    5    5    0    0 -0.11498489024E+02  0.36997238982E+02  0.19154273693E+03  0.19542167488E+03  0.00000000000E+00 0.  1.
         12    1    5    5    0    0 -0.37675418539E+02  0.63997789098E+02  0.14624619491E+04  0.14643463070E+04  0.00000000000E+00 0. -1.
         11    1    3    3    0    0 -0.30533439726E+01  0.81022991377E+01  0.91531290706E+00  0.87067765821E+01  0.00000000000E+00 0. -1.
        -12    1    3    3    0    0  0.27890891623E+02 -0.28042838519E+02 -0.29860819903E+03  0.30121613363E+03  0.00000000000E+00 0.  1.
          5    1    4    4  501    0 -0.27235074103E+02  0.89334940440E+01 -0.25427652487E+02  0.38543410438E+02  0.41800000000E+01 0.  1.
         -5    1    4    4    0  501  0.51571434015E+02 -0.89987982743E+02  0.47264643956E+02  0.11405642820E+03  0.41800000000E+01 0.  1.
</event>
<event>
11    1  0.9238666E-009  0.1651005E+03  0.7561462E-02  0.1082376E+00
         22   -1    0    0    0    0  0.00000000000E+00  0.00000000000E+00  0.34666604598E+03  0.34666604598E+03  0.00000000000E+00 0. -1.
         22   -1    0    0    0    0 -0.00000000000E+00 -0.00000000000E+00 -0.13223044192E+04  0.13223044192E+04  0.00000000000E+00 0. -1.
         24    2    1    2    0    0  0.97628781858E+02  0.28368195157E+02 -0.12183091359E+04  0.12252273035E+04  0.81047278126E+02 0.  0.
         25    2    1    2    0    0  0.27467200199E+02 -0.59869488576E+01 -0.30764975042E+02  0.13184224418E+03  0.12508238492E+03 0.  0.
        -24    2    1    2    0    0 -0.12509598206E+03 -0.22381246300E+02  0.27343573769E+03  0.31190091745E+03  0.79781919961E+02 0.  0.
        -11    1    3    3    0    0 -0.31477072857E+01 -0.18254700567E+02 -0.14122515879E+03  0.14243485398E+03  0.00000000000E+00 0.  1.
         12    1    3    3    0    0  0.10077648914E+03  0.46622895724E+02 -0.10770839771E+04  0.10827924496E+04  0.00000000000E+00 0. -1.
         11    1    5    5    0    0 -0.12393922690E+03 -0.28317374431E+02  0.19221172065E+03  0.23045205839E+03  0.00000000000E+00 0. -1.
        -12    1    5    5    0    0 -0.11567551528E+01  0.59361281317E+01  0.81224017039E+02  0.81448859069E+02  0.00000000000E+00 0.  1.
          5    1    4    4  501    0  0.29037687379E+02  0.28443835674E+02 -0.69002673455E+02  0.80194017358E+02  0.41800000000E+01 0. -1.
         -5    1    4    4    0  501 -0.15704871805E+01 -0.34430784531E+02  0.38237698413E+02  0.51648226817E+02  0.41800000000E+01 0. -1.
</event>
<event>
11    1  0.9238666E-009  0.1917840E+03  0.7561462E-02  0.1060491E+00
         22   -1    0    0    0    0  0.00000000000E+00  0.00000000000E+00  0.19510942817E+04  0.19510942817E+04  0.00000000000E+00 0.  1.
         22   -1    0    0    0    0 -0.00000000000E+00 -0.00000000000E+00 -0.93041013843E+02  0.93041013843E+02  0.00000000000E+00 0. -1.
         24    2    1    2    0    0  0.22401997534E+02 -0.14929370308E+03  0.71173918916E+02  0.18614914294E+03  0.82433715272E+02 0.  0.
         25    2    1    2    0    0 -0.95106388073E+02  0.11380326304E+03  0.24803576173E+03  0.31490807044E+03  0.12509574734E+03 0.  0.
        -24    2    1    2    0    0  0.72704390539E+02  0.35490440040E+02  0.15388435873E+04  0.15430780822E+04  0.80652848634E+02 0.  0.
        -11    1    3    3    0    0 -0.96029293800E+01 -0.21272931751E+02 -0.15727511386E+02  0.28144422047E+02  0.00000000000E+00 0.  1.
         12    1    3    3    0    0  0.32004926914E+02 -0.12802077133E+03  0.86901430302E+02  0.15800472090E+03  0.00000000000E+00 0. -1.
         11    1    5    5    0    0  0.23090188074E+02  0.64798090960E+01  0.91401158684E+02  0.94495060823E+02  0.00000000000E+00 0. -1.
        -12    1    5    5    0    0  0.49614202465E+02  0.29010630944E+02  0.14474424286E+04  0.14485830214E+04  0.00000000000E+00 0.  1.
          5    1    4    4  501    0 -0.24109929865E+02 -0.23686152449E+02  0.77174793853E+02  0.84354867922E+02  0.41800000000E+01 0. -1.
         -5    1    4    4    0  501 -0.70996458207E+02  0.13748941548E+03  0.17086096788E+03  0.23055320252E+03  0.41800000000E+01 0. -1.
</event>
<event>
11    1  0.9238666E-009  0.1583066E+03  0.7561462E-02  0.1088681E+00
         22   -1    0    0    0    0  0.00000000000E+00  0.00000000000E+00  0.11909505666E+04  0.11909505666E+04  0.00000000000E+00 0.  1.
         22   -1    0    0    0    0 -0.00000000000E+00 -0.00000000000E+00 -0.34169132409E+02  0.34169132409E+02  0.00000000000E+00 0. -1.
         24    2    1    2    0    0 -0.19752440721E+02  0.12473970897E+03  0.31448915344E+03  0.34835210447E+03  0.80595329558E+02 0.  0.
         25    2    1    2    0    0  0.13476127899E+02 -0.55857583442E+02  0.43928049822E+03  0.46034145976E+03  0.12508088502E+03 0.  0.
        -24    2    1    2    0    0  0.62763128220E+01 -0.68882125532E+02  0.40301178257E+03  0.41642613483E+03  0.78791430739E+02 0.  0.
        -11    1    3    3    0    0  0.82239140997E+01  0.19855961069E+02  0.14832135348E+03  0.14987033012E+03  0.00000000000E+00 0.  1.
         12    1    3    3    0    0 -0.27976354821E+02  0.10488374790E+03  0.16616779996E+03  0.19848177435E+03  0.00000000000E+00 0. -1.
         11    1    5    5    0    0 -0.26971822861E+02 -0.37630881398E+02  0.10251958324E+03  0.11248923242E+03  0.00000000000E+00 0. -1.
        -12    1    5    5    0    0  0.33248135683E+02 -0.31251244134E+02  0.30049219934E+03  0.30393690241E+03  0.00000000000E+00 0.  1.
          5    1    4    4  501    0 -0.15905933919E+02  0.48810812131E+01  0.33881740115E+03  0.33925142212E+03  0.41800000000E+01 0. -1.
         -5    1    4    4    0  501  0.29382061819E+02 -0.60738664655E+02  0.10046309707E+03  0.12109003763E+03  0.41800000000E+01 0. -1.
</event>
<event>
11    1  0.9238666E-009  0.1466349E+03  0.7561462E-02  0.1100368E+00
         22   -1    0    0    0    0  0.00000000000E+00  0.00000000000E+00  0.41130632016E+03  0.41130632016E+03  0.00000000000E+00 0. -1.
         22   -1    0    0    0    0 -0.00000000000E+00 -0.00000000000E+00 -0.97775976771E+03  0.97775976771E+03  0.00000000000E+00 0. -1.
        -24    2    1    2    0    0  0.12355494806E+02 -0.25056197779E+02 -0.51226163313E+03  0.51937187296E+03  0.80961042182E+02 0.  0.
         25    2    1    2    0    0  0.64355734009E+02  0.25192350434E+02 -0.44275692565E+03  0.46525197386E+03  0.12509751776E+03 0.  0.
         24    2    1    2    0    0 -0.76711228814E+02 -0.13615265516E+00  0.38856511123E+03  0.40444224105E+03  0.81890472660E+02 0.  0.
        -13    1    5    5    0    0  0.38250510209E+01  0.11139973461E+02  0.57911971888E+01  0.13125090053E+02  0.00000000000E+00 0.  1.
         14    1    5    5    0    0 -0.80536279835E+02 -0.11276126116E+02  0.38277391405E+03  0.39131715100E+03  0.00000000000E+00 0. -1.
         11    1    3    3    0    0 -0.14375280250E+02 -0.16395215534E+02 -0.45564017396E+03  0.45616161599E+03  0.00000000000E+00 0. -1.
        -12    1    3    3    0    0  0.26730775055E+02 -0.86609822455E+01 -0.56621459167E+02  0.63210256974E+02  0.00000000000E+00 0.  1.
          5    1    4    4  501    0 -0.22235315479E+02 -0.31436196432E+02 -0.10184658074E+03  0.10896257206E+03  0.41800000000E+01 0. -1.
         -5    1    4    4    0  501  0.86591049488E+02  0.56628546866E+02 -0.34091034491E+03  0.35628940180E+03  0.41800000000E+01 0. -1.
</event>
<event>
11    1  0.9238666E-009  0.2002798E+03  0.7561462E-02  0.1054326E+00
         22   -1    0    0    0    0  0.00000000000E+00  0.00000000000E+00  0.90848092692E+03  0.90848092692E+03  0.00000000000E+00 0. -1.
         22   -1    0    0    0    0 -0.00000000000E+00 -0.00000000000E+00 -0.42290404079E+03  0.42290404079E+03  0.00000000000E+00 0. -1.
         24    2    1    2    0    0 -0.13997715754E+03 -0.66934699370E+02 -0.32790878354E+03  0.37205330566E+03  0.82617391138E+02 0.  0.
         25    2    1    2    0    0  0.12939680760E+03  0.11092164922E+03  0.89675632417E+02  0.22965490086E+03  0.12510998504E+03 0.  0.
        -24    2    1    2    0    0  0.10580349947E+02 -0.43986949854E+02  0.72381003725E+03  0.72967676119E+03  0.80500995206E+02 0.  0.
        -13    1    3    3    0    0 -0.29272091436E+02 -0.57176819546E+02 -0.13260975076E+03  0.14734785382E+03  0.00000000000E+00 0.  1.
         14    1    3    3    0    0 -0.11070506611E+03 -0.97578798231E+01 -0.19529903278E+03  0.22470545184E+03  0.00000000000E+00 0. -1.
         11    1    5    5    0    0 -0.27712406247E+01 -0.17586186270E+02  0.64878537605E+03  0.64902959709E+03  0.00000000000E+00 0. -1.
        -12    1    5    5    0    0  0.13351590572E+02 -0.26400763584E+02  0.75024661196E+02  0.80647164093E+02  0.00000000000E+00 0.  1.
          5    1    4    4  501    0  0.12692247977E+03  0.12438853639E+03  0.10676633005E+03  0.20736042411E+03  0.41800000000E+01 0. -1.
         -5    1    4    4    0  501  0.24743278227E+01 -0.13466887164E+02 -0.17090697629E+02  0.22294476749E+02  0.41800000000E+01 0. -1.
</event>
<event>
11    1  0.9238666E-009  0.1569066E+03  0.7561462E-02  0.1090023E+00
         22   -1    0    0    0    0  0.00000000000E+00  0.00000000000E+00  0.12297856227E+04  0.12297856227E+04  0.00000000000E+00 0. -1.
         22   -1    0    0    0    0 -0.00000000000E+00 -0.00000000000E+00 -0.10172367497E+03  0.10172367497E+03  0.00000000000E+00 0.  1.
        -24    2    1    2    0    0 -0.52640622894E+02  0.80377703204E+02 -0.46804538344E+02  0.13274234466E+03  0.78728996603E+02 0.  0.
         25    2    1    2    0    0  0.53270314076E+02 -0.51974530251E+02  0.68501429362E+03  0.70030836688E+03  0.12509255813E+03 0.  0.
         24    2    1    2    0    0 -0.62969118169E+00 -0.28403172953E+02  0.48985219241E+03  0.49845858609E+03  0.87741979093E+02 0.  0.
        -13    1    5    5    0    0 -0.40353242463E+02 -0.28945120483E+02  0.20949280141E+03  0.21529848587E+03  0.00000000000E+00 0.  1.
         14    1    5    5    0    0  0.39723551281E+02  0.54194753034E+00  0.28035939100E+03  0.28316010022E+03  0.00000000000E+00 0. -1.
         11    1    3    3    0    0 -0.64756442298E+02  0.48966563915E+02 -0.83213629502E+01  0.81611067155E+02  0.00000000000E+00 0. -1.
        -12    1    3    3    0    0  0.12115819404E+02  0.31411139288E+02 -0.38483175394E+02  0.51131277508E+02  0.00000000000E+00 0.  1.
          5    1    4    4  501    0 -0.20643718529E+01 -0.37679597846E+02  0.57511133853E+03  0.57636319958E+03  0.41800000000E+01 0.  1.
         -5    1    4    4    0  501  0.55334685929E+02 -0.14294932405E+02  0.10990295509E+03  0.12394516730E+03  0.41800000000E+01 0.  1.
</event>
<event>
11    1  0.9238666E-009  0.1838241E+03  0.7561462E-02  0.1066591E+00
         22   -1    0    0    0    0  0.00000000000E+00  0.00000000000E+00  0.13336970244E+03  0.13336970244E+03  0.00000000000E+00 0.  1.
         22   -1    0    0    0    0 -0.00000000000E+00 -0.00000000000E+00 -0.47283034790E+03  0.47283034790E+03  0.00000000000E+00 0.  1.
        -24    2    1    2    0    0  0.12359681031E+03  0.14487200609E+02 -0.18583051615E+03  0.24194528529E+03  0.92295665349E+02 0.  0.
         25    2    1    2    0    0 -0.15873950511E+03  0.65245721864E+02 -0.11307759229E+03  0.24060243689E+03  0.12509099110E+03 0.  0.
         24    2    1    2    0    0  0.35142694799E+02 -0.79732922473E+02 -0.40552537020E+02  0.12365232817E+03  0.77801298697E+02 0.  0.
        -13    1    5    5    0    0  0.21170512888E+02 -0.93608765692E+02 -0.26835643979E+02  0.99654118921E+02  0.00000000000E+00 0.  1.
         14    1    5    5    0    0  0.13972181911E+02  0.13875843218E+02 -0.13716893041E+02  0.23998209248E+02  0.00000000000E+00 0. -1.
         13    1    3    3    0    0  0.12062585157E+03  0.14203168960E+01 -0.10475341535E+03  0.15976824276E+03  0.00000000000E+00 0. -1.
        -14    1    3    3    0    0  0.29709587435E+01  0.13066883713E+02 -0.81077100795E+02  0.82177042531E+02  0.00000000000E+00 0.  1.
          5    1    4    4  501    0 -0.17342612619E+03  0.60185862353E+02 -0.12363230202E+03  0.22136254826E+03  0.41800000000E+01 0.  1.
         -5    1    4    4    0  501  0.14686621075E+02  0.50598595115E+01  0.10554709728E+02  0.19239888625E+02  0.41800000000E+01 0.  1.
</event>
<event>
11    1  0.9238666E-009  0.1464160E+03  0.7561462E-02  0.1100598E+00
         22   -1    0    0    0    0  0.00000000000E+00  0.00000000000E+00  0.13063294809E+04  0.13063294809E+04  0.00000000000E+00 0. -1.
         22   -1    0    0    0    0 -0.00000000000E+00 -0.00000000000E+00 -0.38262957953E+03  0.38262957953E+03  0.00000000000E+00 0. -1.
         24    2    1    2    0    0 -0.13744846867E+02  0.27689650564E+02 -0.22841225561E+03  0.24560987871E+03  0.84831694799E+02 0.  0.
         25    2    1    2    0    0 -0.10056035235E+02 -0.99561207452E+02 -0.98238534072E+02  0.18791398856E+03  0.12508916678E+03 0.  0.
        -24    2    1    2    0    0  0.23800882102E+02  0.71871556887E+02  0.12503506910E+04  0.12554351931E+04  0.83717805386E+02 0.  0.
        -13    1    3    3    0    0 -0.91882925371E+01 -0.10313775556E+02 -0.19291096399E+03  0.19340485701E+03  0.00000000000E+00 0.  1.
         14    1    3    3    0    0 -0.45565543300E+01  0.38003426120E+02 -0.35501291620E+02  0.52205021702E+02  0.00000000000E+00 0. -1.
         13    1    5    5    0    0  0.38140950427E+00  0.73974592863E+02  0.58356961608E+03  0.58823964731E+03  0.00000000000E+00 0. -1.
        -14    1    5    5    0    0  0.23419472598E+02 -0.21030359754E+01  0.66678107495E+03  0.66719554583E+03  0.00000000000E+00 0.  1.
          5    1    4    4  501    0  0.46311710939E+02 -0.68251775741E+01 -0.51379233304E+02  0.69632288731E+02  0.41800000000E+01 0.  1.
         -5    1    4    4    0  501 -0.56367746173E+02 -0.92736029878E+02 -0.46859300768E+02  0.11828169983E+03  0.41800000000E+01 0.  1.
</event>
<event>
11    1  0.9238666E-009  0.1288437E+03  0.7561462E-02  0.1120698E+00
         22   -1    0    0    0    0  0.00000000000E+00  0.00000000000E+00  0.27911082668E+04  0.27911082668E+04  0.00000000000E+00 0.  1.
         22   -1    0    0    0    0 -0.00000000000E+00 -0.00000000000E+00 -0.38478469480E+03  0.38478469480E+03  0.00000000000E+00 0. -1.
        -24    2    1    2    0    0 -0.16248770081E+02  0.32712978941E+01 -0.33059094610E+03  0.34033332394E+03  0.79130738796E+02 0.  0.
         25    2    1    2    0    0  0.28071145729E+02 -0.31672988401E+02  0.40952979380E+02  0.13825619584E+03  0.12508581754E+03 0.  0.
         24    2    1    2    0    0 -0.11822375647E+02  0.28401690507E+02  0.26959615387E+04  0.26973034418E+04  0.79314654263E+02 0.  0.
        -11    1    5    5    0    0 -0.42122921360E+02  0.67615340203E+01  0.18910132950E+04  0.18914944728E+04  0.00000000000E+00 0.  1.
         12    1    5    5    0    0  0.30300545713E+02  0.21640156487E+02  0.80494824371E+03  0.80580896898E+03  0.00000000000E+00 0. -1.
         11    1    3    3    0    0 -0.36069876495E+02 -0.12374672566E+02 -0.29022439974E+03  0.29271892784E+03  0.00000000000E+00 0. -1.
        -12    1    3    3    0    0  0.19821106413E+02  0.15645970460E+02 -0.40366546365E+02  0.47614396106E+02  0.00000000000E+00 0.  1.
          5    1    4    4  501    0 -0.35189125062E+02  0.10601135217E+02 -0.18734742985E+02  0.41462291124E+02  0.41800000000E+01 0.  1.
         -5    1    4    4    0  501  0.63260270791E+02 -0.42274123618E+02  0.59687722364E+02  0.96793904711E+02  0.41800000000E+01 0.  1.
</event>
<event>
11    1  0.9238666E-009  0.1449905E+03  0.7561462E-02  0.1102110E+00
         22   -1    0    0    0    0  0.00000000000E+00  0.00000000000E+00  0.14194286334E+04  0.14194286334E+04  0.00000000000E+00 0. -1.
         22   -1    0    0    0    0 -0.00000000000E+00 -0.00000000000E+00 -0.82352734916E+03  0.82352734916E+03  0.00000000000E+00 0.  1.
        -24    2    1    2    0    0  0.12560281831E+02  0.73838944340E+02 -0.78716858820E+03  0.79508523840E+03  0.83163692201E+02 0.  0.
         25    2    1    2    0    0  0.28285120061E+02 -0.21920628122E+02  0.10960208552E+03  0.17012178272E+03  0.12509293286E+03 0.  0.
         24    2    1    2    0    0 -0.40845401892E+02 -0.51918316218E+02  0.12734677870E+04  0.12777489615E+04  0.80983613928E+02 0.  0.
        -11    1    5    5    0    0 -0.38873348332E+02 -0.33766340620E+02  0.32078678648E+03  0.32489300600E+03  0.00000000000E+00 0.  1.
         12    1    5    5    0    0 -0.19720535595E+01 -0.18151975598E+02  0.95268100049E+03  0.95285595549E+03  0.00000000000E+00 0. -1.
         11    1    3    3    0    0 -0.29187073916E+02  0.26991068210E+01 -0.19033716289E+03  0.19258090777E+03  0.00000000000E+00 0. -1.
        -12    1    3    3    0    0  0.41747355747E+02  0.71139837519E+02 -0.59683142531E+03  0.60250433063E+03  0.00000000000E+00 0.  1.
          5    1    4    4  501    0  0.53940323314E+02 -0.18101232970E+02 -0.37397952606E+00  0.57051076896E+02  0.41800000000E+01 0.  1.
         -5    1    4    4    0  501 -0.25655203254E+02 -0.38193951513E+01  0.10997606504E+03  0.11307070583E+03  0.41800000000E+01 0.  1.
</event>
<event>
11    1  0.9238666E-009  0.1514836E+03  0.7561462E-02  0.1095372E+00
         22   -1    0    0    0    0  0.00000000000E+00  0.00000000000E+00  0.13553519386E+04  0.13553519386E+04  0.00000000000E+00 0.  1.
         22   -1    0    0    0    0 -0.00000000000E+00 -0.00000000000E+00 -0.53450706981E+03  0.53450706981E+03  0.00000000000E+00 0. -1.
         24    2    1    2    0    0 -0.22517564780E+02  0.38628547233E+02 -0.48944937759E+03  0.49926867694E+03  0.87802694556E+02 0.  0.
         25    2    1    2    0    0 -0.42499568954E+02 -0.93112881268E+02  0.13873029393E+03  0.21299364566E+03  0.12507588344E+03 0.  0.
        -24    2    1    2    0    0  0.65017133734E+02  0.54484334035E+02  0.11715639525E+04  0.11775966858E+04  0.83522987309E+02 0.  0.
        -11    1    3    3    0    0  0.25810290231E+02  0.12849375284E+02 -0.62613888283E+02  0.68933130880E+02  0.00000000000E+00 0.  1.
         12    1    3    3    0    0 -0.48327855010E+02  0.25779171949E+02 -0.42683548930E+03  0.43033554606E+03  0.00000000000E+00 0. -1.
         11    1    5    5    0    0  0.15790927052E+02 -0.13292819697E+02  0.55317235629E+03  0.55355732151E+03  0.00000000000E+00 0. -1.
        -12    1    5    5    0    0  0.49226206681E+02  0.67777153732E+02  0.61839159617E+03  0.62403936430E+03  0.00000000000E+00 0.  1.
          5    1    4    4  501    0  0.39353519543E+02 -0.29785540675E+02  0.15250386973E+02  0.51825907002E+02  0.41800000000E+01 0. -1.
         -5    1    4    4    0  501 -0.81853088497E+02 -0.63327340594E+02  0.12347990696E+03  0.16116773866E+03  0.41800000000E+01 0. -1.
</event>
<event>
11    1  0.9238666E-009  0.1662696E+03  0.7561462E-02  0.1081324E+00
         22   -1    0    0    0    0  0.00000000000E+00  0.00000000000E+00  0.46018940390E+03  0.46018940390E+03  0.00000000000E+00 0.  1.
         22   -1    0    0    0    0 -0.00000000000E+00 -0.00000000000E+00 -0.12327127525E+04  0.12327127525E+04  0.00000000000E+00 0. -1.
         24    2    1    2    0    0  0.10969695386E+03 -0.49884591456E+00 -0.10690533326E+04  0.10777089620E+04  0.80919146927E+02 0.  0.
         25    2    1    2    0    0 -0.10760453522E+03  0.92208050631E+01 -0.11133826782E+03  0.19927767602E+03  0.12510644680E+03 0.  0.
        -24    2    1    2    0    0 -0.20924186409E+01 -0.87219591485E+01  0.40786825180E+03  0.41591551838E+03  0.80924389493E+02 0.  0.
        -13    1    3    3    0    0  0.66972989348E+02  0.71198904509E+01 -0.30155357415E+03  0.30898322321E+03  0.00000000000E+00 0.  1.
         14    1    3    3    0    0  0.42723964513E+02 -0.76187363655E+01 -0.76749975845E+03  0.76872573881E+03  0.00000000000E+00 0. -1.
         11    1    5    5    0    0 -0.40220706822E+02  0.56783607547E+01  0.19680480079E+03  0.20095292646E+03  0.00000000000E+00 0. -1.
        -12    1    5    5    0    0  0.38128288181E+02 -0.14400319903E+02  0.21106345101E+03  0.21496259192E+03  0.00000000000E+00 0.  1.
          5    1    4    4  501    0 -0.11445769911E+03  0.97312401313E+01 -0.13322530546E+03  0.17595941673E+03  0.41800000000E+01 0. -1.
         -5    1    4    4    0  501  0.68531638926E+01 -0.51043506828E+00  0.21887037644E+02  0.23318259286E+02  0.41800000000E+01 0. -1.
</event>
<event>
11    1  0.9238666E-009  0.1400572E+03  0.7561462E-02  0.1107495E+00
         22   -1    0    0    0    0  0.00000000000E+00  0.00000000000E+00  0.13017507640E+03  0.13017507640E+03  0.00000000000E+00 0. -1.
         22   -1    0    0    0    0 -0.00000000000E+00 -0.00000000000E+00 -0.12737718196E+04  0.12737718196E+04  0.00000000000E+00 0. -1.
        -24    2    1    2    0    0 -0.15903962704E+02 -0.10414216582E+02 -0.11578938477E+04  0.11608096373E+04  0.79996622092E+02 0.  0.
         25    2    1    2    0    0  0.47288971972E+02  0.56240246041E+02  0.12924287431E+02  0.14564777553E+03  0.12508806964E+03 0.  0.
         24    2    1    2    0    0 -0.31385009268E+02 -0.45826029459E+02  0.13728170301E+01  0.97489483223E+02  0.80107870586E+02 0.  0.
        -11    1    5    5    0    0 -0.23037173820E+02 -0.33957454480E+02 -0.37753163598E+02  0.55759496537E+02  0.00000000000E+00 0.  1.
         12    1    5    5    0    0 -0.83478354473E+01 -0.11868574979E+02  0.39125980628E+02  0.41729986686E+02  0.00000000000E+00 0. -1.
         13    1    3    3    0    0  0.21701887293E+02 -0.59159831063E+01 -0.88655242957E+03  0.88683774229E+03  0.00000000000E+00 0. -1.
        -14    1    3    3    0    0 -0.37605849997E+02 -0.44982334759E+01 -0.27134141811E+03  0.27397189498E+03  0.00000000000E+00 0.  1.
          5    1    4    4  501    0  0.68479227249E+02  0.67334116664E+02  0.44406247746E+02  0.10588991959E+03  0.41800000000E+01 0.  1.
         -5    1    4    4    0  501 -0.21190255277E+02 -0.11093870623E+02 -0.31481960315E+02  0.39757855945E+02  0.41800000000E+01 0.  1.
</event>
<event>
11    1  0.9238666E-009  0.1424749E+03  0.7561462E-02  0.1104826E+00
         22   -1    0    0    0    0  0.00000000000E+00  0.00000000000E+00  0.56714155928E+02  0.56714155928E+02  0.00000000000E+00 0.  1.
         22   -1    0    0    0    0 -0.00000000000E+00 -0.00000000000E+00 -0.15009556503E+04  0.15009556503E+04  0.00000000000E+00 0.  1.
         24    2    1    2    0    0 -0.78334406576E+01 -0.47852805542E+02 -0.10762393947E+04  0.10802959962E+04  0.79980941490E+02 0.  0.
         25    2    1    2    0    0 -0.28952889094E+02 -0.18348301721E+02 -0.34034984215E+03  0.36422826216E+03  0.12509709005E+03 0.  0.
        -24    2    1    2    0    0  0.36786329751E+02  0.66201107263E+02 -0.27652257542E+02  0.11314554785E+03  0.79381653998E+02 0.  0.
        -13    1    3    3    0    0 -0.43141507248E+02 -0.25395520403E+02 -0.68445623789E+03  0.68628453552E+03  0.00000000000E+00 0.  1.
         14    1    3    3    0    0  0.35308066590E+02 -0.22457285139E+02 -0.39178315677E+03  0.39401146069E+03  0.00000000000E+00 0. -1.
         11    1    5    5    0    0  0.34512877192E+02 -0.76362537620E+01 -0.14016971179E+02  0.38025340822E+02  0.00000000000E+00 0. -1.
        -12    1    5    5    0    0  0.22734525594E+01  0.73837361025E+02 -0.13635286363E+02  0.75120207027E+02  0.00000000000E+00 0.  1.
          5    1    4    4  501    0 -0.19898990144E+02 -0.10347974075E+02  0.80962317659E+00  0.22829329073E+02  0.41800000000E+01 0. -1.
         -5    1    4    4    0  501 -0.90538989493E+01 -0.80003276456E+01 -0.34115946533E+03  0.34139893309E+03  0.41800000000E+01 0. -1.
</event>
<event>
11    1  0.9238666E-009  0.1416868E+03  0.7561462E-02  0.1105689E+00
         22   -1    0    0    0    0  0.00000000000E+00  0.00000000000E+00  0.70688756171E+02  0.70688756171E+02  0.00000000000E+00 0. -1.
         22   -1    0    0    0    0 -0.00000000000E+00 -0.00000000000E+00 -0.16570955043E+04  0.16570955043E+04  0.00000000000E+00 0. -1.
         24    2    1    2    0    0  0.22832606071E+02  0.58641077627E+02 -0.12957308324E+04  0.12999539932E+04  0.83677299528E+02 0.  0.
         25    2    1    2    0    0 -0.12174526756E+02 -0.10664200968E+03 -0.28552588554E+03  0.32968697542E+03  0.12509089943E+03 0.  0.
        -24    2    1    2    0    0 -0.10658079315E+02  0.48000932056E+02 -0.51500301646E+01  0.98143291846E+02  0.84781476695E+02 0.  0.
        -11    1    3    3    0    0  0.15498670751E+02  0.34929270966E+02 -0.18304011552E+03  0.18698648789E+03  0.00000000000E+00 0.  1.
         12    1    3    3    0    0  0.73339353202E+01  0.23711806660E+02 -0.11126907169E+04  0.11129675053E+04  0.00000000000E+00 0. -1.
         13    1    5    5    0    0 -0.72353258683E+01  0.52342631866E+02  0.31207498781E+02  0.61367817553E+02  0.00000000000E+00 0. -1.
        -14    1    5    5    0    0 -0.34227534468E+01 -0.43416998101E+01 -0.36357528945E+02  0.36775474292E+02  0.00000000000E+00 0.  1.
          5    1    4    4  501    0  0.17450242172E+02 -0.77213759120E+02 -0.57747746162E+02  0.98075226923E+02  0.41800000000E+01 0. -1.
         -5    1    4    4    0  501 -0.29624768928E+02 -0.29428250563E+02 -0.22777813937E+03  0.23161174850E+03  0.41800000000E+01 0. -1.
</event>
<event>
11    1  0.9238666E-009  0.1374007E+03  0.7561462E-02  0.1110496E+00
         22   -1    0    0    0    0  0.00000000000E+00  0.00000000000E+00  0.13990952167E+04  0.13990952167E+04  0.00000000000E+00 0. -1.
         22   -1    0    0    0    0 -0.00000000000E+00 -0.00000000000E+00 -0.26823036727E+03  0.26823036727E+03  0.00000000000E+00 0.  1.
        -24    2    1    2    0    0  0.27894584933E+02  0.49712769522E+02 -0.24629994056E+03  0.26528421971E+03  0.80390230633E+02 0.  0.
         25    2    1    2    0    0  0.25221142394E+01 -0.56734970057E+02  0.45256784185E+03  0.47296092908E+03  0.12509664692E+03 0.  0.
         24    2    1    2    0    0 -0.30416699173E+02  0.70222005348E+01  0.92459694813E+03  0.92908043516E+03  0.85653088772E+02 0.  0.
        -11    1    5    5    0    0 -0.16020277677E+02  0.14947125147E+02  0.53289469337E+02  0.57617995359E+02  0.00000000000E+00 0.  1.
         12    1    5    5    0    0 -0.14396421496E+02 -0.79249246123E+01  0.87130747879E+03  0.87146243980E+03  0.00000000000E+00 0. -1.
         13    1    3    3    0    0  0.32323561674E+02 -0.23918198991E+01 -0.35394758759E+02  0.47992941037E+02  0.00000000000E+00 0. -1.
        -14    1    3    3    0    0 -0.44289767410E+01  0.52104589421E+02 -0.21090518181E+03  0.21729127867E+03  0.00000000000E+00 0.  1.
          5    1    4    4  501    0 -0.32529818562E+01  0.46114025295E+01  0.36890642999E+03  0.36897326924E+03  0.41800000000E+01 0.  1.
         -5    1    4    4    0  501  0.57750960956E+01 -0.61346372586E+02  0.83661411851E+02  0.10398765983E+03  0.41800000000E+01 0.  1.
</event>
<event>
11    1  0.9238666E-009  0.1581704E+03  0.7561462E-02  0.1088811E+00
         22   -1    0    0    0    0  0.00000000000E+00  0.00000000000E+00  0.16444463066E+04  0.16444463066E+04  0.00000000000E+00 0.  1.
         22   -1    0    0    0    0 -0.00000000000E+00 -0.00000000000E+00 -0.26265556272E+03  0.26265556272E+03  0.00000000000E+00 0. -1.
         24    2    1    2    0    0  0.86032254284E+01  0.97445210058E+02 -0.23603884120E+03  0.26812885571E+03  0.81296766591E+02 0.  0.
         25    2    1    2    0    0  0.57117271972E+02 -0.44549932332E+02  0.88960385680E+03  0.90127108883E+03  0.12508986492E+03 0.  0.
        -24    2    1    2    0    0 -0.65720497401E+02 -0.52895277726E+02  0.72822572831E+03  0.73770192480E+03  0.82306283490E+02 0.  0.
        -13    1    3    3    0    0 -0.78372974123E+01  0.52888284022E+02 -0.40960610049E+02  0.67352545558E+02  0.00000000000E+00 0.  1.
         14    1    3    3    0    0  0.16440522841E+02  0.44556926036E+02 -0.19507823115E+03  0.20077631015E+03  0.00000000000E+00 0. -1.
         11    1    5    5    0    0 -0.34640329289E+02  0.49802926824E+01  0.97993958695E+02  0.10405561815E+03  0.00000000000E+00 0. -1.
        -12    1    5    5    0    0 -0.31080168112E+02 -0.57875570408E+02  0.63023176961E+03  0.63364630665E+03  0.00000000000E+00 0.  1.
          5    1    4    4  501    0 -0.67384791545E+00 -0.65770117171E+02  0.66778861790E+03  0.67103298949E+03  0.41800000000E+01 0. -1.
         -5    1    4    4    0  501  0.57791119888E+02  0.21220184839E+02  0.22181523890E+03  0.23023809934E+03  0.41800000000E+01 0. -1.
</event>
<event>
11    1  0.9238666E-009  0.1298926E+03  0.7561462E-02  0.1119401E+00
         22   -1    0    0    0    0  0.00000000000E+00  0.00000000000E+00  0.49356404909E+03  0.49356404909E+03  0.00000000000E+00 0. -1.
         22   -1    0    0    0    0 -0.00000000000E+00 -0.00000000000E+00 -0.44665585148E+03  0.44665585148E+03  0.00000000000E+00 0.  1.
        -24    2    1    2    0    0  0.10374135135E+02  0.44092826283E+02 -0.32354574855E+03  0.33374108744E+03  0.68186963810E+02 0.  0.
         25    2    1    2    0    0  0.24737183126E+02 -0.38172882593E+02 -0.74774497594E+02  0.15266737062E+03  0.12508798250E+03 0.  0.
         24    2    1    2    0    0 -0.35111318260E+02 -0.59199436901E+01  0.44522844375E+03  0.45381144251E+03  0.80303224245E+02 0.  0.
        -11    1    5    5    0    0  0.65386358913E+00  0.50220663987E+01 -0.16836901928E+01  0.53369936455E+01  0.00000000000E+00 0.  1.
         12    1    5    5    0    0 -0.35765181849E+02 -0.10942010089E+02  0.44691213395E+03  0.44847444887E+03  0.00000000000E+00 0. -1.
         13    1    3    3    0    0  0.60848676952E+01  0.10146957531E+02 -0.41808642109E+01  0.12548545236E+02  0.00000000000E+00 0. -1.
        -14    1    3    3    0    0  0.42892674393E+01  0.33945868753E+02 -0.31936488434E+03  0.32119254221E+03  0.00000000000E+00 0.  1.
          5    1    4    4  501    0  0.39728643543E+02 -0.32548510429E+02  0.20875043826E+02  0.55596856958E+02  0.41800000000E+01 0. -1.
         -5    1    4    4    0  501 -0.14991460417E+02 -0.56243721645E+01 -0.95649541421E+02  0.97070513657E+02  0.41800000000E+01 0. -1.
</event>
<event>
11    1  0.9238666E-009  0.1307690E+03  0.7561462E-02  0.1118328E+00
         22   -1    0    0    0    0  0.00000000000E+00  0.00000000000E+00  0.71434467831E+02  0.71434467831E+02  0.00000000000E+00 0. -1.
         22   -1    0    0    0    0 -0.00000000000E+00 -0.00000000000E+00 -0.75893434905E+03  0.75893434905E+03  0.00000000000E+00 0. -1.
         24    2    1    2    0    0  0.23994355032E+02  0.29594933273E+02 -0.52397351060E+03  0.53146866158E+03  0.80368583965E+02 0.  0.
         25    2    1    2    0    0  0.18253108387E+02 -0.29987906672E+02 -0.16414360546E+03  0.20933916884E+03  0.12508922369E+03 0.  0.
        -24    2    1    2    0    0 -0.42247463419E+02  0.39297339918E+00  0.61723484328E+00  0.89560986460E+02  0.78966997685E+02 0.  0.
        -13    1    3    3    0    0  0.22965345428E+02  0.49324900617E+02 -0.21201484521E+03  0.21888500977E+03  0.00000000000E+00 0.  1.
         14    1    3    3    0    0  0.10290096044E+01 -0.19729967345E+02 -0.31195866539E+03  0.31258365181E+03  0.00000000000E+00 0. -1.
         11    1    5    5    0    0  0.10239630550E+02 -0.28046479520E+02 -0.23596716038E+00  0.29858176900E+02  0.00000000000E+00 0. -1.
        -12    1    5    5    0    0 -0.52487093969E+02  0.28439452919E+02  0.85320200367E+00  0.59702809560E+02  0.00000000000E+00 0.  1.
          5    1    4    4  501    0 -0.13667453110E+02  0.29917972323E+02 -0.16611288054E+01  0.33198133853E+02  0.41800000000E+01 0. -1.
         -5    1    4    4    0  501  0.31920561497E+02 -0.59905878994E+02 -0.16248247666E+03  0.17614103498E+03  0.41800000000E+01 0. -1.
</event>
<event>
11    1  0.9238666E-009  0.1558789E+03  0.7561462E-02  0.1091019E+00
         22   -1    0    0    0    0  0.00000000000E+00  0.00000000000E+00  0.54239951538E+03  0.54239951538E+03  0.00000000000E+00 0. -1.
         22   -1    0    0    0    0 -0.00000000000E+00 -0.00000000000E+00 -0.23693910263E+04  0.23693910263E+04  0.00000000000E+00 0.  1.
        -24    2    1    2    0    0  0.27928423832E+02  0.88598817493E+02 -0.23187641310E+04  0.23221404311E+04  0.83900769862E+02 0.  0.
         25    2    1    2    0    0  0.36598558411E+02 -0.12270907300E+03  0.15409152604E+03  0.23619553774E+03  0.12508861889E+03 0.  0.
         24    2    1    2    0    0 -0.64526982244E+02  0.34110255505E+02  0.33768109400E+03  0.35345457288E+03  0.74661722952E+02 0.  0.
        -11    1    5    5    0    0 -0.61470199954E+02  0.23943041507E+02  0.13264392488E+03  0.14814272012E+03  0.00000000000E+00 0.  1.
         12    1    5    5    0    0 -0.30567822891E+01  0.10167213998E+02  0.20503716913E+03  0.20531185276E+03  0.00000000000E+00 0. -1.
         13    1    3    3    0    0 -0.10559258177E+02 -0.33587741890E+01 -0.51161566626E+02  0.52347733446E+02  0.00000000000E+00 0. -1.
        -14    1    3    3    0    0  0.38487682009E+02  0.91957591682E+02 -0.22676025644E+04  0.22697926976E+04  0.00000000000E+00 0.  1.
          5    1    4    4  501    0  0.80126440068E+02 -0.10418045235E+03  0.11160949956E+03  0.17247598628E+03  0.41800000000E+01 0. -1.
         -5    1    4    4    0  501 -0.43527881657E+02 -0.18528620648E+02  0.42482026482E+02  0.63719551463E+02  0.41800000000E+01 0. -1.
</event>
<event>
11    1  0.9238666E-009  0.1334604E+03  0.7561462E-02  0.1115089E+00
         22   -1    0    0    0    0  0.00000000000E+00  0.00000000000E+00  0.20366561571E+04  0.20366561571E+04  0.00000000000E+00 0. -1.
         22   -1    0    0    0    0 -0.00000000000E+00 -0.00000000000E+00 -0.87799401723E+02  0.87799401723E+02  0.00000000000E+00 0.  1.
        -24    2    1    2    0    0 -0.43244185721E+01  0.37705751916E+02 -0.43435889726E+02  0.99836009465E+02  0.81486980224E+02 0.  0.
         25    2    1    2    0    0  0.57119830594E+01 -0.80882242193E+02  0.36197096712E+03  0.39146618039E+03  0.12509286751E+03 0.  0.
         24    2    1    2    0    0 -0.13875644873E+01  0.43176490276E+02  0.16303216780E+04  0.16331533689E+04  0.85877926183E+02 0.  0.
        -13    1    5    5    0    0 -0.23936782716E+02 -0.16327741248E+02  0.73632197009E+03  0.73689185661E+03  0.00000000000E+00 0.  1.
         14    1    5    5    0    0  0.22549218229E+02  0.59504231524E+02  0.89399970787E+03  0.89626151233E+03  0.00000000000E+00 0. -1.
         13    1    3    3    0    0 -0.34119169618E+02  0.84577616761E+01  0.54234600756E+01  0.35567757692E+02  0.00000000000E+00 0. -1.
        -14    1    3    3    0    0  0.29794751046E+02  0.29247990240E+02 -0.48859349802E+02  0.64268251774E+02  0.00000000000E+00 0.  1.
          5    1    4    4  501    0  0.22725737450E+02  0.20402637945E+02  0.17869059110E+03  0.18132988316E+03  0.41800000000E+01 0. -1.
         -5    1    4    4    0  501 -0.17013754390E+02 -0.10128488014E+03  0.18328037602E+03  0.21013629723E+03  0.41800000000E+01 0. -1.
</event>
<event>
11    1  0.9238666E-009  0.1948453E+03  0.7561462E-02  0.1058230E+00
         22   -1    0    0    0    0  0.00000000000E+00  0.00000000000E+00  0.23298897134E+03  0.23298897134E+03  0.00000000000E+00 0. -1.
         22   -1    0    0    0    0 -0.00000000000E+00 -0.00000000000E+00 -0.14767004965E+04  0.14767004965E+04  0.00000000000E+00 0. -1.
        -24    2    1    2    0    0 -0.10086559082E+03  0.79511459730E+02 -0.79099132958E+03  0.80535695422E+03  0.80228427690E+02 0.  0.
         25    2    1    2    0    0  0.16885368261E+03 -0.14163629846E+03 -0.63585441944E+03  0.68449342300E+03  0.12509195112E+03 0.  0.
         24    2    1    2    0    0 -0.67988091789E+02  0.62124838731E+02  0.18313422384E+03  0.21983909065E+03  0.79430508143E+02 0.  0.
        -13    1    5    5    0    0  0.91624461219E+01  0.19129262643E+02  0.62205313102E+01  0.22103712765E+02  0.00000000000E+00 0.  1.
         14    1    5    5    0    0 -0.77150537911E+02  0.42995576088E+02  0.17691369253E+03  0.19773537788E+03  0.00000000000E+00 0. -1.
         13    1    3    3    0    0 -0.10501775312E+03  0.84767270441E+02 -0.63317200870E+03  0.64739556008E+03  0.00000000000E+00 0. -1.
        -14    1    3    3    0    0  0.41521622999E+01 -0.52558107103E+01 -0.15781932088E+03  0.15796139415E+03  0.00000000000E+00 0.  1.
          5    1    4    4  501    0  0.38149849435E+02  0.87303237552E+01 -0.39652572366E+02  0.55869745480E+02  0.41800000000E+01 0. -1.
         -5    1    4    4    0  501  0.13070383317E+03 -0.15036662222E+03 -0.59620184708E+03  0.62862367752E+03  0.41800000000E+01 0. -1.
</event>
<event>
11    1  0.9238666E-009  0.1772147E+03  0.7561462E-02  0.1071918E+00
         22   -1    0    0    0    0  0.00000000000E+00  0.00000000000E+00  0.34220438068E+04  0.34220438068E+04  0.00000000000E+00 0.  1.
         22   -1    0    0    0    0 -0.00000000000E+00 -0.00000000000E+00 -0.67364559337E+03  0.67364559337E+03  0.00000000000E+00 0. -1.
        -24    2    1    2    0    0  0.27897711307E+02  0.40164216029E+02 -0.59970663408E+03  0.60716067778E+03  0.81268660286E+02 0.  0.
         25    2    1    2    0    0 -0.58859376343E+02  0.82290281130E+02  0.25888408214E+02  0.16294404617E+03  0.12507771965E+03 0.  0.
         24    2    1    2    0    0  0.30961665036E+02 -0.12245449716E+03  0.33222164393E+04  0.33255846762E+04  0.80234908804E+02 0.  0.
        -13    1    5    5    0    0  0.25807987708E+02 -0.88888889576E+02  0.30280936974E+04  0.30295080009E+04  0.00000000000E+00 0.  1.
         14    1    5    5    0    0  0.51536773279E+01 -0.33565607583E+02  0.29412274188E+03  0.29607667536E+03  0.00000000000E+00 0. -1.
         11    1    3    3    0    0  0.35004694577E+02  0.45440151890E+02 -0.59369840278E+03  0.59646284839E+03  0.00000000000E+00 0. -1.
        -12    1    3    3    0    0 -0.71069832705E+01 -0.52759358607E+01 -0.60082312983E+01  0.10697829394E+02  0.00000000000E+00 0.  1.
          5    1    4    4  501    0 -0.85694314024E+02  0.94460214207E+02  0.72177862243E+01  0.12781164408E+03  0.41800000000E+01 0.  1.
         -5    1    4    4    0  501  0.26834937682E+02 -0.12169933077E+02  0.18670621990E+02  0.35132402095E+02  0.41800000000E+01 0.  1.
</event>
<event>
11    1  0.9238666E-009  0.1496601E+03  0.7561462E-02  0.1097227E+00
         22   -1    0    0    0    0  0.00000000000E+00  0.00000000000E+00  0.48595577859E+04  0.48595577859E+04  0.00000000000E+00 0.  1.
         22   -1    0    0    0    0 -0.00000000000E+00 -0.00000000000E+00 -0.29446118088E+03  0.29446118088E+03  0.00000000000E+00 0. -1.
         24    2    1    2    0    0 -0.13378252578E+02 -0.83270462539E+02 -0.23001046244E+03  0.25759374056E+03  0.79603861547E+02 0.  0.
         25    2    1    2    0    0  0.56660786821E+02  0.55149174364E+02  0.58929943127E+02  0.15928546463E+03  0.12508894776E+03 0.  0.
        -24    2    1    2    0    0 -0.43282534243E+02  0.28121288175E+02  0.47361771243E+04  0.47371397616E+04  0.80344154950E+02 0.  0.
        -13    1    3    3    0    0  0.17454036986E+01 -0.87073974169E+02 -0.13065055242E+03  0.15701748393E+03  0.00000000000E+00 0.  1.
         14    1    3    3    0    0 -0.15123656277E+02  0.38035116301E+01 -0.99359910017E+02  0.10057625663E+03  0.00000000000E+00 0. -1.
         13    1    5    5    0    0 -0.24113893396E+02  0.54779862293E+02  0.24714851551E+04  0.24722097777E+04  0.00000000000E+00 0. -1.
        -14    1    5    5    0    0 -0.19168640847E+02 -0.26658574117E+02  0.22646919692E+04  0.22649299839E+04  0.00000000000E+00 0.  1.
          5    1    4    4  501    0 -0.23800010932E+02  0.27007175935E+02 -0.21397674837E+02  0.42085163191E+02  0.41800000000E+01 0.  1.
         -5    1    4    4    0  501  0.80460797753E+02  0.28141998429E+02  0.80327617964E+02  0.11720030144E+03  0.41800000000E+01 0.  1.
</event>
<event>
11    1  0.9238666E-009  0.1345271E+03  0.7561462E-02  0.1113828E+00
         22   -1    0    0    0    0  0.00000000000E+00  0.00000000000E+00  0.23918516418E+04  0.23918516418E+04  0.00000000000E+00 0.  1.
         22   -1    0    0    0    0 -0.00000000000E+00 -0.00000000000E+00 -0.15178413700E+03  0.15178413700E+03  0.00000000000E+00 0.  1.
         24    2    1    2    0    0 -0.57741303705E+00 -0.29018073336E+02 -0.99966620842E+02  0.13156212860E+03  0.80454250440E+02 0.  0.
         25    2    1    2    0    0 -0.38705653156E+02  0.58327571436E+02  0.11168230160E+03  0.18171912046E+03  0.12509464046E+03 0.  0.
        -24    2    1    2    0    0  0.39283066193E+02 -0.29309498100E+02  0.22283518241E+04  0.22303545298E+04  0.80791525780E+02 0.  0.
        -13    1    3    3    0    0  0.53282339251E+01 -0.29560118415E+02 -0.11316992231E+03  0.11708809501E+03  0.00000000000E+00 0.  1.
         14    1    3    3    0    0 -0.59056469621E+01  0.54204507884E+00  0.13203301465E+02  0.14474033594E+02  0.00000000000E+00 0. -1.
         13    1    5    5    0    0  0.23007754972E+02 -0.45687621575E+01  0.15267442551E+03  0.15446588808E+03  0.00000000000E+00 0. -1.
        -14    1    5    5    0    0  0.16275311221E+02 -0.24740735942E+02  0.20756773985E+04  0.20758886417E+04  0.00000000000E+00 0.  1.
          5    1    4    4  501    0 -0.29326868995E+02 -0.24515604131E+02  0.86283312383E+02  0.94463551102E+02  0.41800000000E+01 0.  1.
         -5    1    4    4    0  501 -0.93787841606E+01  0.82843175567E+02  0.25398989220E+02  0.87255569356E+02  0.41800000000E+01 0.  1.
</event>
<event>
11    1  0.9238666E-009  0.1328269E+03  0.7561462E-02  0.1115844E+00
         22   -1    0    0    0    0  0.00000000000E+00  0.00000000000E+00  0.12309490237E+04  0.12309490237E+04  0.00000000000E+00 0.  1.
         22   -1    0    0    0    0 -0.00000000000E+00 -0.00000000000E+00 -0.55176903773E+02  0.55176903773E+02  0.00000000000E+00 0.  1.
         24    2    1    2    0    0 -0.41086558496E+02 -0.19200077361E+02  0.41345165623E+01  0.91810424334E+02  0.79720207787E+02 0.  0.
         25    2    1    2    0    0  0.18393266493E+02 -0.31416469341E+02  0.56868014049E+03  0.58341258978E+03  0.12509133033E+03 0.  0.
        -24    2    1    2    0    0  0.22693292003E+02  0.50616546702E+02  0.60295746290E+03  0.61090291339E+03  0.81041021814E+02 0.  0.
        -11    1    3    3    0    0 -0.89015069078E+01 -0.13498840835E+02 -0.36346343022E+02  0.39780801654E+02  0.00000000000E+00 0.  1.
         12    1    3    3    0    0 -0.32185051588E+02 -0.57012365261E+01  0.40480859584E+02  0.52029622681E+02  0.00000000000E+00 0. -1.
         11    1    5    5    0    0 -0.86503118267E+01  0.47810120428E+02  0.17009653835E+03  0.17689959828E+03  0.00000000000E+00 0. -1.
        -12    1    5    5    0    0  0.31343603829E+02  0.28064262740E+01  0.43286092454E+03  0.43400331511E+03  0.00000000000E+00 0.  1.
          5    1    4    4  501    0  0.87221044164E+01 -0.35648638755E+02  0.57068818707E+03  0.57188231290E+03  0.41800000000E+01 0.  1.
         -5    1    4    4    0  501  0.96711620768E+01  0.42321694137E+01 -0.20080465733E+01  0.11530276879E+02  0.41800000000E+01 0.  1.
</event>
<event>
11    1  0.9238666E-009  0.1485998E+03  0.7561462E-02  0.1098318E+00
         22   -1    0    0    0    0  0.00000000000E+00  0.00000000000E+00  0.28293784161E+03  0.28293784161E+03  0.00000000000E+00 0. -1.
         22   -1    0    0    0    0 -0.00000000000E+00 -0.00000000000E+00 -0.74803131964E+03  0.74803131964E+03  0.00000000000E+00 0. -1.
        -24    2    1    2    0    0 -0.82251011750E+02 -0.38875289616E+02 -0.67281165612E+03  0.68375684703E+03  0.81064074421E+02 0.  0.
         25    2    1    2    0    0  0.76041540550E+02 -0.52722663894E+02  0.12249052736E+03  0.19802238963E+03  0.12508773851E+03 0.  0.
         24    2    1    2    0    0  0.62094711998E+01  0.91597953511E+02  0.85227650732E+02  0.14918992458E+03  0.81025542435E+02 0.  0.
        -13    1    5    5    0    0  0.97100713666E+01  0.33720335131E+02 -0.11059428600E+02  0.36792084044E+02  0.00000000000E+00 0.  1.
         14    1    5    5    0    0 -0.35006001669E+01  0.57877618379E+02  0.96287079332E+02  0.11239784054E+03  0.00000000000E+00 0. -1.
         11    1    3    3    0    0 -0.33831297591E+02 -0.26749327528E+02 -0.54251269088E+03  0.54422431312E+03  0.00000000000E+00 0. -1.
        -12    1    3    3    0    0 -0.48419714159E+02 -0.12125962088E+02 -0.13029896524E+03  0.13953253391E+03  0.00000000000E+00 0.  1.
          5    1    4    4  501    0 -0.14112068666E+02 -0.67576129526E+01  0.90311117051E+02  0.91751763350E+02  0.41800000000E+01 0. -1.
         -5    1    4    4    0  501  0.90153609216E+02 -0.45965050942E+02  0.32179410312E+02  0.10627062628E+03  0.41800000000E+01 0. -1.
</event>
<event>
11    1  0.9238666E-009  0.1356807E+03  0.7561462E-02  0.1112480E+00
         22   -1    0    0    0    0  0.00000000000E+00  0.00000000000E+00  0.31619660183E+03  0.31619660183E+03  0.00000000000E+00 0.  1.
         22   -1    0    0    0    0 -0.00000000000E+00 -0.00000000000E+00 -0.90155226054E+03  0.90155226054E+03  0.00000000000E+00 0.  1.
         24    2    1    2    0    0 -0.43814177429E+02  0.20997570378E+02 -0.69000538669E+03  0.69628563860E+03  0.79659756220E+02 0.  0.
         25    2    1    2    0    0  0.79319386772E+02  0.16963765411E+02 -0.17276873885E+03  0.22819916822E+03  0.12508592567E+03 0.  0.
        -24    2    1    2    0    0 -0.35505209343E+02 -0.37961335789E+02  0.27741846682E+03  0.29326405555E+03  0.79631134871E+02 0.  0.
        -11    1    3    3    0    0 -0.31238558765E+01 -0.21396381474E+01 -0.51831533929E+03  0.51832916903E+03  0.00000000000E+00 0.  1.
         12    1    3    3    0    0 -0.40690321553E+02  0.23137208525E+02 -0.17169004739E+03  0.17795646957E+03  0.00000000000E+00 0. -1.
         13    1    5    5    0    0  0.16743906919E+02 -0.34359151817E+02  0.74973309018E+02  0.84154065841E+02  0.00000000000E+00 0. -1.
        -14    1    5    5    0    0 -0.52249116261E+02 -0.36021839719E+01  0.20244515780E+03  0.20910998971E+03  0.00000000000E+00 0.  1.
          5    1    4    4  501    0  0.86266450877E+02  0.10559618464E+02 -0.18950775077E+03  0.20852833402E+03  0.41800000000E+01 0. -1.
         -5    1    4    4    0  501 -0.69470641048E+01  0.64041469468E+01  0.16739011925E+02  0.19670834198E+02  0.41800000000E+01 0. -1.
</event>
<event>
11    1  0.9238666E-009  0.1352998E+03  0.7561462E-02  0.1112923E+00
         22   -1    0    0    0    0  0.00000000000E+00  0.00000000000E+00  0.41652101471E+03  0.41652101471E+03  0.00000000000E+00 0. -1.
         22   -1    0    0    0    0 -0.00000000000E+00 -0.00000000000E+00 -0.11126670018E+04  0.11126670018E+04  0.00000000000E+00 0.  1.
        -24    2    1    2    0    0  0.11300546721E+02  0.51334455890E+02 -0.99829789478E+03  0.10029229425E+04  0.80577994501E+02 0.  0.
         25    2    1    2    0    0 -0.10192924092E+02 -0.33154002605E+02 -0.68403615292E+02  0.14672994656E+03  0.12509012368E+03 0.  0.
         24    2    1    2    0    0 -0.11076226292E+01 -0.18180453285E+02  0.37055552298E+03  0.37953512744E+03  0.80023506784E+02 0.  0.
        -11    1    5    5    0    0 -0.24974017033E+02  0.15717743410E+02  0.67648339531E+02  0.73804111173E+02  0.00000000000E+00 0.  1.
         12    1    5    5    0    0  0.23866394404E+02 -0.33898196695E+02  0.30290718345E+03  0.30573101627E+03  0.00000000000E+00 0. -1.
         11    1    3    3    0    0 -0.13455711003E+02  0.73088423222E+01 -0.33838468913E+02  0.37141853926E+02  0.00000000000E+00 0. -1.
        -12    1    3    3    0    0  0.24756257724E+02  0.44025613567E+02 -0.96445942587E+03  0.96578108860E+03  0.00000000000E+00 0.  1.
          5    1    4    4  501    0  0.40259825127E+02  0.82094234766E+01  0.12089224030E+02  0.43033357883E+02  0.41800000000E+01 0. -1.
         -5    1    4    4    0  501 -0.50452749218E+02 -0.41363426081E+02 -0.80492839322E+02  0.10369658868E+03  0.41800000000E+01 0. -1.
</event>
<event>
11    1  0.9238666E-009  0.1507989E+03  0.7561462E-02  0.1096065E+00
         22   -1    0    0    0    0  0.00000000000E+00  0.00000000000E+00  0.42381062007E+03  0.42381062007E+03  0.00000000000E+00 0. -1.
         22   -1    0    0    0    0 -0.00000000000E+00 -0.00000000000E+00 -0.34612291903E+03  0.34612291903E+03  0.00000000000E+00 0.  1.
         24    2    1    2    0    0 -0.30819067023E+02  0.88376588556E+02 -0.22106710049E+03  0.25478799763E+03  0.85358212951E+02 0.  0.
         25    2    1    2    0    0  0.18373176785E+02 -0.55496297759E+02 -0.56550677369E+02  0.14920743525E+03  0.12508983546E+03 0.  0.
        -24    2    1    2    0    0  0.12445890239E+02 -0.32880290798E+02  0.35530547891E+03  0.36593810621E+03  0.80204117932E+02 0.  0.
        -13    1    3    3    0    0 -0.49224301789E+02  0.69047810690E+02 -0.20890156718E+03  0.22545619712E+03  0.00000000000E+00 0.  1.
         14    1    3    3    0    0  0.18405234766E+02  0.19328777866E+02 -0.12165533315E+02  0.29331800514E+02  0.00000000000E+00 0. -1.
         11    1    5    5    0    0  0.45477579242E+02 -0.21178020129E+02  0.16594075665E+03  0.17335816527E+03  0.00000000000E+00 0. -1.
        -12    1    5    5    0    0 -0.33031689003E+02 -0.11702270669E+02  0.18936472226E+03  0.19257994094E+03  0.00000000000E+00 0.  1.
          5    1    4    4  501    0  0.50095912747E+02 -0.60956919964E+02  0.54757247394E+01  0.79201026046E+02  0.41800000000E+01 0. -1.
         -5    1    4    4    0  501 -0.31722735962E+02  0.54606222051E+01 -0.62026402108E+02  0.70006409208E+02  0.41800000000E+01 0. -1.
</event>
<event>
11    1  0.9238666E-009  0.2106345E+03  0.7561462E-02  0.1047248E+00
         22   -1    0    0    0    0  0.00000000000E+00  0.00000000000E+00  0.25381639165E+03  0.25381639165E+03  0.00000000000E+00 0.  1.
         22   -1    0    0    0    0 -0.00000000000E+00 -0.00000000000E+00 -0.59546198819E+03  0.59546198819E+03  0.00000000000E+00 0.  1.
         24    2    1    2    0    0 -0.14405296900E+02  0.42417941044E+02 -0.28204014994E+03  0.29664153213E+03  0.80266793306E+02 0.  0.
         25    2    1    2    0    0 -0.94034090706E+01  0.13157745516E+03 -0.23191691204E+03  0.29467577723E+03  0.12508920330E+03 0.  0.
        -24    2    1    2    0    0  0.23808705971E+02 -0.17399539621E+03  0.17231146545E+03  0.25796107049E+03  0.77533350128E+02 0.  0.
        -13    1    3    3    0    0  0.31728251350E+01  0.42520909781E+02 -0.27402407764E+03  0.27732163586E+03  0.00000000000E+00 0.  1.
         14    1    3    3    0    0 -0.17578122035E+02 -0.10296873690E+00 -0.80160722909E+01  0.19319896269E+02  0.00000000000E+00 0. -1.
         13    1    5    5    0    0 -0.22359236515E+02 -0.16888809704E+02  0.29466833669E+02  0.40662779507E+02  0.00000000000E+00 0. -1.
        -14    1    5    5    0    0  0.46167942486E+02 -0.15710658650E+03  0.14284463178E+03  0.21729829098E+03  0.00000000000E+00 0.  1.
          5    1    4    4  501    0  0.52369672208E+01  0.22679131300E+02  0.12438611323E+02  0.26720035064E+02  0.41800000000E+01 0. -1.
         -5    1    4    4    0  501 -0.14640376291E+02  0.10889832386E+03 -0.24435552337E+03  0.26795574216E+03  0.41800000000E+01 0. -1.
</event>
<event>
11    1  0.9238666E-009  0.1394941E+03  0.7561462E-02  0.1108125E+00
         22   -1    0    0    0    0  0.00000000000E+00  0.00000000000E+00  0.22594569813E+04  0.22594569813E+04  0.00000000000E+00 0. -1.
         22   -1    0    0    0    0 -0.00000000000E+00 -0.00000000000E+00 -0.14997843792E+04  0.14997843792E+04  0.00000000000E+00 0. -1.
        -24    2    1    2    0    0  0.54161735163E+02 -0.28043050653E+02 -0.14131168263E+04  0.14167399151E+04  0.80826456869E+02 0.  0.
         25    2    1    2    0    0 -0.10684041673E+03 -0.12004198648E+01 -0.28673757993E+01  0.16453681178E+03  0.12509126641E+03 0.  0.
         24    2    1    2    0    0  0.52678681564E+02  0.29243470518E+02  0.21756568042E+04  0.21779646337E+04  0.80107375986E+02 0.  0.
        -13    1    5    5    0    0  0.18652376413E+01  0.27662818788E+02  0.23315775335E+03  0.23480044421E+03  0.00000000000E+00 0.  1.
         14    1    5    5    0    0  0.50813443923E+02  0.15806517304E+01  0.19424990509E+04  0.19431641894E+04  0.00000000000E+00 0. -1.
         13    1    3    3    0    0  0.33868189824E+02 -0.43371344560E+02 -0.12819391534E+04  0.12831196830E+04  0.00000000000E+00 0. -1.
        -14    1    3    3    0    0  0.20293545339E+02  0.15328293907E+02 -0.13117767283E+03  0.13362023209E+03  0.00000000000E+00 0.  1.
          5    1    4    4  501    0 -0.11361089716E+03  0.12825417459E+02  0.38038909456E+02  0.12056682097E+03  0.41800000000E+01 0. -1.
         -5    1    4    4    0  501  0.67704804352E+01 -0.14025837324E+02 -0.40906285256E+02  0.43969990805E+02  0.41800000000E+01 0. -1.
</event>
<event>
11    1  0.9238666E-009  0.1835608E+03  0.7561462E-02  0.1066798E+00
         22   -1    0    0    0    0  0.00000000000E+00  0.00000000000E+00  0.17040475014E+03  0.17040475014E+03  0.00000000000E+00 0.  1.
         22   -1    0    0    0    0 -0.00000000000E+00 -0.00000000000E+00 -0.82484084099E+03  0.82484084099E+03  0.00000000000E+00 0. -1.
        -24    2    1    2    0    0 -0.97983092317E+02  0.11677811334E+03 -0.57517020938E+03  0.60012972103E+03  0.78083917546E+02 0.  0.
         25    2    1    2    0    0  0.53730517090E+02 -0.77081070441E+02 -0.19011483930E+03  0.24620966620E+03  0.12508831968E+03 0.  0.
         24    2    1    2    0    0  0.44252575227E+02 -0.39697042895E+02  0.11084895783E+03  0.14890620390E+03  0.79695799639E+02 0.  0.
        -13    1    5    5    0    0  0.27793794032E+02 -0.44074061019E+02  0.11908709740E+03  0.12998751712E+03  0.00000000000E+00 0.  1.
         14    1    5    5    0    0  0.16458781195E+02  0.43770181240E+01 -0.82381395643E+01  0.18918686782E+02  0.00000000000E+00 0. -1.
         13    1    3    3    0    0 -0.72033329867E+02  0.12161881709E+03 -0.43172040982E+03  0.45427133911E+03  0.00000000000E+00 0. -1.
        -14    1    3    3    0    0 -0.25949762451E+02 -0.48407037581E+01 -0.14344979956E+03  0.14585838192E+03  0.00000000000E+00 0.  1.
          5    1    4    4  501    0  0.16449930580E+02  0.15842458074E+02  0.76992771506E+01  0.24460886381E+02  0.41800000000E+01 0.  1.
         -5    1    4    4    0  501  0.37280586510E+02 -0.92923528515E+02 -0.19781411645E+03  0.22174877981E+03  0.41800000000E+01 0.  1.
</event>
<event>
11    1  0.9238666E-009  0.2700311E+03  0.7561462E-02  0.1013738E+00
         22   -1    0    0    0    0  0.00000000000E+00  0.00000000000E+00  0.59745796466E+03  0.59745796466E+03  0.00000000000E+00 0. -1.
         22   -1    0    0    0    0 -0.00000000000E+00 -0.00000000000E+00 -0.72447141616E+03  0.72447141616E+03  0.00000000000E+00 0. -1.
        -24    2    1    2    0    0  0.21752592391E+03 -0.91503877799E+02 -0.55581908906E+03  0.60936270204E+03  0.81838595094E+02 0.  0.
         25    2    1    2    0    0 -0.22740329915E+03  0.12421940143E+03  0.13125613335E+02  0.28803166862E+03  0.12508892936E+03 0.  0.
         24    2    1    2    0    0  0.98773752308E+01 -0.32715523632E+02  0.41568002423E+03  0.42453501015E+03  0.79197375397E+02 0.  0.
        -11    1    5    5    0    0 -0.43774578342E+00  0.72235476791E+01  0.43892952012E+00  0.72500980384E+01  0.00000000000E+00 0.  1.
         12    1    5    5    0    0  0.10315121014E+02 -0.39939071311E+02  0.41524109471E+03  0.41728491211E+03  0.00000000000E+00 0. -1.
         11    1    3    3    0    0  0.10589957519E+03 -0.87115834987E+02 -0.27986336315E+03  0.31165267649E+03  0.00000000000E+00 0. -1.
        -12    1    3    3    0    0  0.11162634872E+03 -0.43880428118E+01 -0.27595572592E+03  0.29771002555E+03  0.00000000000E+00 0.  1.
          5    1    4    4  501    0 -0.19503044371E+03  0.10499682941E+03  0.58296776891E+02  0.22907901422E+03  0.41800000000E+01 0. -1.
         -5    1    4    4    0  501 -0.32372855440E+02  0.19222572021E+02 -0.45171163556E+02  0.58952654405E+02  0.41800000000E+01 0. -1.
</event>
<event>
11    1  0.9238666E-009  0.1699220E+03  0.7561462E-02  0.1078100E+00
         22   -1    0    0    0    0  0.00000000000E+00  0.00000000000E+00  0.28066720226E+03  0.28066720226E+03  0.00000000000E+00 0. -1.
         22   -1    0    0    0    0 -0.00000000000E+00 -0.00000000000E+00 -0.70130040573E+03  0.70130040573E+03  0.00000000000E+00 0.  1.
         24    2    1    2    0    0  0.86956530401E+01  0.74343966296E+02 -0.56578089182E+03  0.57655843631E+03  0.81908322082E+02 0.  0.
         25    2    1    2    0    0 -0.12127263327E+03 -0.73284631158E+02 -0.20237485754E+02  0.19009044127E+03  0.12508849383E+03 0.  0.
        -24    2    1    2    0    0  0.11257698023E+03 -0.10593351384E+01  0.16538517411E+03  0.21531873040E+03  0.79593977024E+02 0.  0.
        -13    1    3    3    0    0  0.19675712562E+02  0.86554762814E+02 -0.52732057692E+03  0.53473904988E+03  0.00000000000E+00 0.  1.
         14    1    3    3    0    0 -0.10980059522E+02 -0.12210796518E+02 -0.38460314906E+02  0.41819386430E+02  0.00000000000E+00 0. -1.
         13    1    5    5    0    0  0.28923184393E+02  0.26058323013E+02  0.95043319806E+02  0.10270744585E+03  0.00000000000E+00 0. -1.
        -14    1    5    5    0    0  0.83653795833E+02 -0.27117658151E+02  0.70341854300E+02  0.11261128455E+03  0.00000000000E+00 0.  1.
          5    1    4    4  501    0 -0.10586217907E+03 -0.10769759307E+03 -0.16299952063E+02  0.15194977245E+03  0.41800000000E+01 0.  1.
         -5    1    4    4    0  501 -0.15410454196E+02  0.34412961914E+02 -0.39375336907E+01  0.38140668816E+02  0.41800000000E+01 0.  1.
</event>
<event>
11    1  0.9238666E-009  0.1462938E+03  0.7561462E-02  0.1100727E+00
         22   -1    0    0    0    0  0.00000000000E+00  0.00000000000E+00  0.11660814647E+04  0.11660814647E+04  0.00000000000E+00 0. -1.
         22   -1    0    0    0    0 -0.00000000000E+00 -0.00000000000E+00 -0.73328820708E+03  0.73328820708E+03  0.00000000000E+00 0.  1.
        -24    2    1    2    0    0  0.40359226412E+02  0.65640367320E+02 -0.64950227923E+03  0.65916127974E+03  0.81870977741E+02 0.  0.
         25    2    1    2    0    0  0.11493806863E+02 -0.64575322445E+01 -0.23973838855E+02  0.12804956607E+03  0.12509252216E+03 0.  0.
         24    2    1    2    0    0 -0.51853033276E+02 -0.59182835075E+02  0.11062693757E+04  0.11121588260E+04  0.82909453831E+02 0.  0.
        -13    1    5    5    0    0 -0.10806968261E+01 -0.18960933835E+02  0.44091416860E+02  0.48007686449E+02  0.00000000000E+00 0.  1.
         14    1    5    5    0    0 -0.50772336449E+02 -0.40221901240E+02  0.10621779589E+04  0.10641511395E+04  0.00000000000E+00 0. -1.
         13    1    3    3    0    0  0.32599343518E+02  0.44434584591E+01 -0.82579089549E+02  0.88891886872E+02  0.00000000000E+00 0. -1.
        -14    1    3    3    0    0  0.77598828944E+01  0.61196908860E+02 -0.56692318968E+03  0.57026939287E+03  0.00000000000E+00 0.  1.
          5    1    4    4  501    0  0.14975090880E+02 -0.33678586528E+02 -0.67153083273E+02  0.76717074569E+02  0.41800000000E+01 0.  1.
         -5    1    4    4    0  501 -0.34812840167E+01  0.27221054283E+02  0.43179244418E+02  0.51332491496E+02  0.41800000000E+01 0.  1.
</event>
<event>
11    1  0.1892649E-008  0.1925392E+03  0.7561462E-02  0.1059929E+00
         22   -1    0    0    0    0  0.00000000000E+00  0.00000000000E+00  0.79503851750E+03  0.79503851750E+03  0.00000000000E+00 0.  1.
         22   -1    0    0    0    0 -0.00000000000E+00 -0.00000000000E+00 -0.81173123338E+03  0.81173123338E+03  0.00000000000E+00 0. -1.
         24    2    1    2    0    0 -0.58026200861E+02  0.13884870842E+03 -0.66882217827E+03  0.69008635597E+03  0.79057376253E+02 0.  0.
         25    2    1    2    0    0 -0.55609509475E+02 -0.14385021443E+03 -0.46662832474E+02  0.20398410814E+03  0.12508714844E+03 0.  0.
        -24    2    1    2    0    0  0.11363571034E+03  0.50015060106E+01  0.69879229486E+03  0.71269928677E+03  0.81801664259E+02 0.  0.
        -13    1    3    3    0    0 -0.28767487514E+02  0.46750841642E+01 -0.72134637134E+02  0.77799939745E+02  0.00000000000E+00 0.  1.
         14    1    3    3    0    0 -0.29258713347E+02  0.13417362425E+03 -0.59668754113E+03  0.61228641622E+03  0.00000000000E+00 0. -1.
         13    1    5    5    0    0  0.12826480798E+02 -0.81887826093E+01  0.14921915160E+02  0.21312867530E+02  0.00000000000E+00 0. -1.
        -14    1    5    5    0    0  0.10080922954E+03  0.13190288620E+02  0.68387037970E+03  0.69138641924E+03  0.00000000000E+00 0.  1.
          5    1    4    4  501    0 -0.70627029377E+01 -0.13670049767E+03 -0.64797980681E+02  0.15150299844E+03  0.41800000000E+01 0.  1.
         -5    1    4    4    0  501 -0.48546806537E+02 -0.71497167529E+01  0.18135148207E+02  0.52481109697E+02  0.41800000000E+01 0.  1.
</event>
<event>
11    1  0.9238666E-009  0.1624372E+03  0.7561462E-02  0.1084807E+00
         22   -1    0    0    0    0  0.00000000000E+00  0.00000000000E+00  0.78997293110E+03  0.78997293110E+03  0.00000000000E+00 0. -1.
         22   -1    0    0    0    0 -0.00000000000E+00 -0.00000000000E+00 -0.65948013017E+03  0.65948013017E+03  0.00000000000E+00 0. -1.
         24    2    1    2    0    0  0.32658550263E+02 -0.46720081352E+02 -0.60315090858E+03  0.61105716053E+03  0.79689949186E+02 0.  0.
         25    2    1    2    0    0 -0.25553772811E+02  0.14433085352E+03  0.15761131918E+03  0.24893855177E+03  0.12507871138E+03 0.  0.
        -24    2    1    2    0    0 -0.71047774520E+01 -0.97610772173E+02  0.57603239034E+03  0.58945734897E+03  0.77899363486E+02 0.  0.
        -11    1    3    3    0    0 -0.57013769363E+00  0.20615159824E+02 -0.19214258482E+03  0.19324617143E+03  0.00000000000E+00 0.  1.
         12    1    3    3    0    0  0.33228687957E+02 -0.67335241175E+02 -0.41100832376E+03  0.41781098909E+03  0.00000000000E+00 0. -1.
         13    1    5    5    0    0  0.27521778217E+02 -0.41602141159E+02  0.36493378309E+03  0.36832709983E+03  0.00000000000E+00 0. -1.
        -14    1    5    5    0    0 -0.34626555669E+02 -0.56008631014E+02  0.21109860724E+03  0.22113024914E+03  0.00000000000E+00 0.  1.
          5    1    4    4  501    0  0.49183411111E+02  0.45152755877E+02  0.40559287214E+02  0.78232394000E+02  0.41800000000E+01 0.  1.
         -5    1    4    4    0  501 -0.74737183922E+02  0.99178097648E+02  0.11705203197E+03  0.17070615777E+03  0.41800000000E+01 0.  1.
</event>
<event>
11    1  0.9238666E-009  0.1440225E+03  0.7561462E-02  0.1103148E+00
         22   -1    0    0    0    0  0.00000000000E+00  0.00000000000E+00  0.89704441917E+03  0.89704441917E+03  0.00000000000E+00 0.  1.
         22   -1    0    0    0    0 -0.00000000000E+00 -0.00000000000E+00 -0.12362807610E+03  0.12362807610E+03  0.00000000000E+00 0. -1.
        -24    2    1    2    0    0  0.32518775783E+01 -0.57513505408E+01 -0.86245003152E+02  0.11776106608E+03  0.79911296920E+02 0.  0.
         25    2    1    2    0    0  0.37514145942E+02  0.63489343554E+02  0.30732965461E+03  0.33990514790E+03  0.12508311268E+03 0.  0.
         24    2    1    2    0    0 -0.40766023521E+02 -0.57737993013E+02  0.55233169161E+03  0.56300628128E+03  0.83127797332E+02 0.  0.
        -13    1    5    5    0    0 -0.65639890035E+02 -0.31292996144E+02  0.35740837128E+03  0.36473084683E+03  0.00000000000E+00 0.  1.
         14    1    5    5    0    0  0.24873866515E+02 -0.26444996869E+02  0.19492332034E+03  0.19827543445E+03  0.00000000000E+00 0. -1.
         11    1    3    3    0    0 -0.15257991138E+02  0.10751252391E+02  0.80004530688E+01  0.20307707179E+02  0.00000000000E+00 0. -1.
        -12    1    3    3    0    0  0.18509868717E+02 -0.16502602932E+02 -0.94245456220E+02  0.97453358904E+02  0.00000000000E+00 0.  1.
          5    1    4    4  501    0 -0.34545859123E+02  0.86134492741E+01  0.25889133216E+02  0.44219085355E+02  0.41800000000E+01 0. -1.
         -5    1    4    4    0  501  0.72060005065E+02  0.54875894280E+02  0.28144052139E+03  0.29568606255E+03  0.41800000000E+01 0. -1.
</event>
<event>
11    1  0.9238666E-009  0.1827400E+03  0.7561462E-02  0.1067448E+00
         22   -1    0    0    0    0  0.00000000000E+00  0.00000000000E+00  0.88944465878E+02  0.88944465878E+02  0.00000000000E+00 0.  1.
         22   -1    0    0    0    0 -0.00000000000E+00 -0.00000000000E+00 -0.86170963608E+03  0.86170963608E+03  0.00000000000E+00 0.  1.
        -24    2    1    2    0    0 -0.41318703550E+02 -0.61160150541E+02 -0.46137164574E+03  0.47378985451E+03  0.78518987963E+02 0.  0.
         25    2    1    2    0    0  0.14671838819E+03  0.10255476443E+03 -0.22462428161E+03  0.31328458343E+03  0.12508955667E+03 0.  0.
         24    2    1    2    0    0 -0.10539968464E+03 -0.41394613887E+02 -0.86769242858E+02  0.16357966402E+03  0.80042472441E+02 0.  0.
        -13    1    5    5    0    0 -0.84813627518E+02 -0.21334005272E+02 -0.18339202704E+02  0.89357806315E+02  0.00000000000E+00 0.  1.
         14    1    5    5    0    0 -0.20586057119E+02 -0.20060608615E+02 -0.68430040154E+02  0.74221857705E+02  0.00000000000E+00 0. -1.
         11    1    3    3    0    0 -0.67415033365E+01  0.20291166908E+01 -0.25699232380E+03  0.25708873891E+03  0.00000000000E+00 0. -1.
        -12    1    3    3    0    0 -0.34577200213E+02 -0.63189267232E+02 -0.20437932194E+03  0.21670111560E+03  0.00000000000E+00 0.  1.
          5    1    4    4  501    0  0.35396696739E+01 -0.42563220886E+01 -0.88215545384E+02  0.88487854458E+02  0.41800000000E+01 0. -1.
         -5    1    4    4    0  501  0.14317871851E+03  0.10681108652E+03 -0.13640873622E+03  0.22479672897E+03  0.41800000000E+01 0. -1.
</event>
<event>
11    1  0.9238666E-009  0.1438232E+03  0.7561462E-02  0.1103363E+00
         22   -1    0    0    0    0  0.00000000000E+00  0.00000000000E+00  0.23226201172E+03  0.23226201172E+03  0.00000000000E+00 0.  1.
         22   -1    0    0    0    0 -0.00000000000E+00 -0.00000000000E+00 -0.41252804172E+03  0.41252804172E+03  0.00000000000E+00 0.  1.
         24    2    1    2    0    0  0.60606447156E+02 -0.59689082915E+02 -0.29258455856E+03  0.31521854626E+03  0.80753203889E+02 0.  0.
         25    2    1    2    0    0  0.37815856618E+01  0.25583478629E+02 -0.47776962409E+02  0.13637250409E+03  0.12508399964E+03 0.  0.
        -24    2    1    2    0    0 -0.64388032818E+02  0.34105604285E+02  0.16009549098E+03  0.19319900309E+03  0.79914188662E+02 0.  0.
        -11    1    3    3    0    0 -0.84491941357E+01 -0.27050072456E+02 -0.15755404508E+03  0.16008239260E+03  0.00000000000E+00 0.  1.
         12    1    3    3    0    0  0.69055641292E+02 -0.32639010459E+02 -0.13503051348E+03  0.15513615365E+03  0.00000000000E+00 0. -1.
         11    1    5    5    0    0  0.50384083455E+01  0.35453056229E+02  0.76925856346E+02  0.84852178105E+02  0.00000000000E+00 0. -1.
        -12    1    5    5    0    0 -0.69426441164E+02 -0.13474519434E+01  0.83169634632E+02  0.10834682498E+03  0.00000000000E+00 0.  1.
          5    1    4    4  501    0 -0.11577192044E+02 -0.48105823558E+02 -0.55545152911E+01  0.49965254687E+02  0.41800000000E+01 0. -1.
         -5    1    4    4    0  501  0.15358777706E+02  0.73689302187E+02 -0.42222447118E+02  0.86407249407E+02  0.41800000000E+01 0. -1.
</event>
<event>
11    1  0.9238666E-009  0.1498431E+03  0.7561462E-02  0.1097039E+00
         22   -1    0    0    0    0  0.00000000000E+00  0.00000000000E+00  0.97276695562E+03  0.97276695562E+03  0.00000000000E+00 0.  1.
         22   -1    0    0    0    0 -0.00000000000E+00 -0.00000000000E+00 -0.15102629261E+03  0.15102629261E+03  0.00000000000E+00 0. -1.
        -24    2    1    2    0    0 -0.33705363867E+02  0.76702505586E+02 -0.78997071323E+02  0.14044628026E+03  0.80407054692E+02 0.  0.
         25    2    1    2    0    0  0.37122553021E+02 -0.67495465803E+02  0.98027381450E+02  0.17660587281E+03  0.12508615012E+03 0.  0.
         24    2    1    2    0    0 -0.34171891539E+01 -0.92070397830E+01  0.80271035289E+03  0.80674109516E+03  0.79942712104E+02 0.  0.
        -11    1    5    5    0    0 -0.19539082858E+01 -0.94089287040E+01  0.80442245226E+03  0.80447984897E+03  0.00000000000E+00 0.  1.
         12    1    5    5    0    0 -0.14632808681E+01  0.20188892101E+00 -0.17120993757E+01  0.22612461847E+01  0.00000000000E+00 0. -1.
         13    1    3    3    0    0 -0.30970250501E+02  0.77055603256E+02 -0.93862538077E+02  0.12532716570E+03  0.00000000000E+00 0. -1.
        -14    1    3    3    0    0 -0.27351133665E+01 -0.35309766999E+00  0.14865466754E+02  0.15119114554E+02  0.00000000000E+00 0.  1.
          5    1    4    4  501    0  0.83198278022E+02 -0.49605889517E+02  0.59053858033E+02  0.11352324999E+03  0.41800000000E+01 0. -1.
         -5    1    4    4    0  501 -0.46075725001E+02 -0.17889576286E+02  0.38973523416E+02  0.63082622818E+02  0.41800000000E+01 0. -1.
</event>
<event>
11    1  0.9238666E-009  0.1369169E+03  0.7561462E-02  0.1111051E+00
         22   -1    0    0    0    0  0.00000000000E+00  0.00000000000E+00  0.64810569707E+03  0.64810569707E+03  0.00000000000E+00 0.  1.
         22   -1    0    0    0    0 -0.00000000000E+00 -0.00000000000E+00 -0.16492705073E+03  0.16492705073E+03  0.00000000000E+00 0.  1.
        -24    2    1    2    0    0 -0.29975772681E+02 -0.31783085062E+02 -0.99616670786E+02  0.13643250114E+03  0.82350681989E+02 0.  0.
         25    2    1    2    0    0  0.75476344442E+02  0.55864941818E+02  0.10274034987E+03  0.18714494314E+03  0.12510027960E+03 0.  0.
         24    2    1    2    0    0 -0.45500571761E+02 -0.24081856757E+02  0.48005496725E+03  0.48945530352E+03  0.80395800278E+02 0.  0.
        -11    1    5    5    0    0 -0.55271705997E+02  0.27178943900E+01  0.41147302612E+03  0.41517755197E+03  0.00000000000E+00 0.  1.
         12    1    5    5    0    0  0.97711342361E+01 -0.26799751147E+02  0.68581941132E+02  0.74277751549E+02  0.00000000000E+00 0. -1.
         11    1    3    3    0    0  0.93363339424E+01  0.15617363150E+02  0.12663495055E+01  0.18239320281E+02  0.00000000000E+00 0. -1.
        -12    1    3    3    0    0 -0.39312106623E+02 -0.47400448211E+02 -0.10088302029E+03  0.11819318086E+03  0.00000000000E+00 0.  1.
          5    1    4    4  501    0  0.94144625855E+02  0.79908078078E+02  0.93855621838E+02  0.15516076073E+03  0.41800000000E+01 0.  1.
         -5    1    4    4    0  501 -0.18668281413E+02 -0.24043136260E+02  0.88847280323E+01  0.31984182408E+02  0.41800000000E+01 0.  1.
</event>
<event>
11    1  0.9238666E-009  0.1301666E+03  0.7561462E-02  0.1119064E+00
         22   -1    0    0    0    0  0.00000000000E+00  0.00000000000E+00  0.65998914040E+02  0.65998914040E+02  0.00000000000E+00 0. -1.
         22   -1    0    0    0    0 -0.00000000000E+00 -0.00000000000E+00 -0.24813763670E+04  0.24813763670E+04  0.00000000000E+00 0.  1.
        -24    2    1    2    0    0  0.19774656259E+02 -0.30032021783E+02 -0.22854387756E+04  0.22873505962E+04  0.86309869458E+02 0.  0.
         25    2    1    2    0    0 -0.33300899588E+02  0.22756694150E+02 -0.12178778741E+03  0.17918168409E+03  0.12508794390E+03 0.  0.
         24    2    1    2    0    0  0.13526243329E+02  0.72753276336E+01 -0.81508900191E+01  0.80843000816E+02  0.78951023565E+02 0.  0.
        -11    1    5    5    0    0 -0.28492484323E+02  0.21757256083E+02 -0.12957584296E+01  0.35873093609E+02  0.00000000000E+00 0.  1.
         12    1    5    5    0    0  0.42018727652E+02 -0.14481928449E+02 -0.68551315895E+01  0.44969907207E+02  0.00000000000E+00 0. -1.
         13    1    3    3    0    0  0.31525843538E+01 -0.24701647803E+02 -0.16759889903E+03  0.16943878289E+03  0.00000000000E+00 0. -1.
        -14    1    3    3    0    0  0.16622071905E+02 -0.53303739800E+01 -0.21178398765E+04  0.21179118133E+04  0.00000000000E+00 0.  1.
          5    1    4    4  501    0 -0.23945302100E+02  0.38596993000E+02 -0.14340818896E+03  0.15048749590E+03  0.41800000000E+01 0. -1.
         -5    1    4    4    0  501 -0.93555974879E+01 -0.15840298851E+02  0.21620401558E+02  0.28694188184E+02  0.41800000000E+01 0. -1.
</event>
<event>
11    1  0.9238666E-009  0.1580102E+03  0.7561462E-02  0.1088964E+00
         22   -1    0    0    0    0  0.00000000000E+00  0.00000000000E+00  0.23102109236E+03  0.23102109236E+03  0.00000000000E+00 0.  1.
         22   -1    0    0    0    0 -0.00000000000E+00 -0.00000000000E+00 -0.14440465842E+04  0.14440465842E+04  0.00000000000E+00 0. -1.
        -24    2    1    2    0    0 -0.89284265514E+02 -0.45541020443E+02 -0.13054380431E+04  0.13119320507E+04  0.83375996814E+02 0.  0.
         25    2    1    2    0    0  0.38636807186E+02  0.41070351302E+02 -0.85341018078E+02  0.16158623696E+03  0.12508975171E+03 0.  0.
         24    2    1    2    0    0  0.50647458328E+02  0.44706691411E+01  0.17775356926E+03  0.20154938891E+03  0.80253802836E+02 0.  0.
        -13    1    5    5    0    0  0.30642589108E+02  0.11676676761E+02  0.17727341070E+03  0.18028082313E+03  0.00000000000E+00 0.  1.
         14    1    5    5    0    0  0.20004869220E+02 -0.72060076199E+01  0.48015856082E+00  0.21268565785E+02  0.00000000000E+00 0. -1.
         11    1    3    3    0    0 -0.17427075973E+02 -0.25724505266E+02 -0.83903861013E+03  0.83961374598E+03  0.00000000000E+00 0. -1.
        -12    1    3    3    0    0 -0.71857189540E+02 -0.19816515177E+02 -0.46639943293E+03  0.47231830475E+03  0.00000000000E+00 0.  1.
          5    1    4    4  501    0 -0.36997601451E+02  0.44039652429E+02 -0.55738936385E+02  0.80203584262E+02  0.41800000000E+01 0. -1.
         -5    1    4    4    0  501  0.75634408637E+02 -0.29693011267E+01 -0.29602081693E+02  0.81382652695E+02  0.41800000000E+01 0. -1.
</event>
<event>
11    1  0.9238666E-009  0.1399760E+03  0.7561462E-02  0.1107585E+00
         22   -1    0    0    0    0  0.00000000000E+00  0.00000000000E+00  0.12617056077E+04  0.12617056077E+04  0.00000000000E+00 0. -1.
         22   -1    0    0    0    0 -0.00000000000E+00 -0.00000000000E+00 -0.25783950949E+04  0.25783950949E+04  0.00000000000E+00 0. -1.
         24    2    1    2    0    0  0.47777020206E+02 -0.75580363818E+02 -0.25632134367E+04  0.25660448047E+04  0.80794695904E+02 0.  0.
         25    2    1    2    0    0 -0.72806831019E+01 -0.62006221838E+01  0.41141490767E+03  0.43011826543E+03  0.12509212583E+03 0.  0.
        -24    2    1    2    0    0 -0.40496337104E+02  0.81780986002E+02  0.83510904182E+03  0.84393763241E+03  0.80594867517E+02 0.  0.
        -11    1    3    3    0    0  0.27293377715E+02  0.12262484196E+02 -0.73190569894E+03  0.73251706405E+03  0.00000000000E+00 0.  1.
         12    1    3    3    0    0  0.20483642491E+02 -0.87842848014E+02 -0.18313077377E+04  0.18335277407E+04  0.00000000000E+00 0. -1.
         13    1    5    5    0    0 -0.52945680754E+02  0.51498789844E+02  0.73290290920E+03  0.73661526239E+03  0.00000000000E+00 0. -1.
        -14    1    5    5    0    0  0.12449343649E+02  0.30282196158E+02  0.10220613262E+03  0.10732237002E+03  0.00000000000E+00 0.  1.
          5    1    4    4  501    0  0.96478042740E+01  0.51243508896E+02  0.28991583646E+03  0.29459742355E+03  0.41800000000E+01 0.  1.
         -5    1    4    4    0  501 -0.16928487376E+02 -0.57444131080E+02  0.12149907120E+03  0.13552084188E+03  0.41800000000E+01 0.  1.
</event>
<event>
11    1  0.9238666E-009  0.1349244E+03  0.7561462E-02  0.1113362E+00
         22   -1    0    0    0    0  0.00000000000E+00  0.00000000000E+00  0.46701124006E+03  0.46701124006E+03  0.00000000000E+00 0. -1.
         22   -1    0    0    0    0 -0.00000000000E+00 -0.00000000000E+00 -0.71300065849E+03  0.71300065849E+03  0.00000000000E+00 0. -1.
        -24    2    1    2    0    0 -0.64084300720E+01 -0.18948558400E+02 -0.62140416470E+03  0.62714273905E+03  0.82248181731E+02 0.  0.
         25    2    1    2    0    0  0.28442242058E+01  0.68121492918E+02 -0.21343458552E+02  0.14405825920E+03  0.12509441000E+03 0.  0.
         24    2    1    2    0    0  0.35642058663E+01 -0.49172934518E+02  0.39675820482E+03  0.40881090029E+03  0.85314700113E+02 0.  0.
        -11    1    5    5    0    0  0.14868973386E+02  0.18349997401E+02  0.49215861229E+02  0.54589465749E+02  0.00000000000E+00 0.  1.
         12    1    5    5    0    0 -0.11304767520E+02 -0.67522931918E+02  0.34754234359E+03  0.35422143455E+03  0.00000000000E+00 0. -1.
         13    1    3    3    0    0 -0.25327717984E+02 -0.25562048267E+02 -0.58028099383E+03  0.58139568575E+03  0.00000000000E+00 0. -1.
        -14    1    3    3    0    0  0.18919287912E+02  0.66134898671E+01 -0.41123170871E+02  0.45747053302E+02  0.00000000000E+00 0.  1.
          5    1    4    4  501    0 -0.10721784296E+02  0.66652005342E+02  0.41673466162E+02  0.79445557815E+02  0.41800000000E+01 0. -1.
         -5    1    4    4    0  501  0.13566008501E+02  0.14694875766E+01 -0.63016924714E+02  0.64612701389E+02  0.41800000000E+01 0. -1.
</event>
<event>
11    1  0.9238666E-009  0.1855912E+03  0.7561462E-02  0.1065208E+00
         22   -1    0    0    0    0  0.00000000000E+00  0.00000000000E+00  0.58014402095E+03  0.58014402095E+03  0.00000000000E+00 0. -1.
         22   -1    0    0    0    0 -0.00000000000E+00 -0.00000000000E+00 -0.37355531929E+03  0.37355531929E+03  0.00000000000E+00 0. -1.
        -24    2    1    2    0    0 -0.12181823427E+03 -0.48187499996E+02 -0.26419714687E+03  0.30563707877E+03  0.80325426535E+02 0.  0.
         25    2    1    2    0    0  0.15709619160E+03  0.92926348355E+02  0.65201653985E+02  0.23068071119E+03  0.12509122751E+03 0.  0.
         24    2    1    2    0    0 -0.35277957336E+02 -0.44738848360E+02  0.40558419455E+03  0.41738155028E+03  0.80391049392E+02 0.  0.
        -13    1    5    5    0    0  0.74234150244E+01 -0.18003572583E+02  0.17942206493E+02  0.26479397467E+02  0.00000000000E+00 0.  1.
         14    1    5    5    0    0 -0.42701372360E+02 -0.26735275776E+02  0.38764198806E+03  0.39090215282E+03  0.00000000000E+00 0. -1.
         11    1    3    3    0    0 -0.77137885261E+02  0.12192657581E+02 -0.14645044189E+03  0.16597182343E+03  0.00000000000E+00 0. -1.
        -12    1    3    3    0    0 -0.44680349006E+02 -0.60380157577E+02 -0.11774670498E+03  0.13966525534E+03  0.00000000000E+00 0.  1.
          5    1    4    4  501    0  0.18920859715E+02 -0.21041108557E+02 -0.17308907103E+02  0.33433483916E+02  0.41800000000E+01 0. -1.
         -5    1    4    4    0  501  0.13817533189E+03  0.11396745691E+03  0.82510561089E+02  0.19724722728E+03  0.41800000000E+01 0. -1.
</event>
<event>
11    1  0.9238666E-009  0.1323694E+03  0.7561462E-02  0.1116391E+00
         22   -1    0    0    0    0  0.00000000000E+00  0.00000000000E+00  0.33550733365E+03  0.33550733365E+03  0.00000000000E+00 0. -1.
         22   -1    0    0    0    0 -0.00000000000E+00 -0.00000000000E+00 -0.30387667612E+03  0.30387667612E+03  0.00000000000E+00 0.  1.
         24    2    1    2    0    0  0.19477673006E+02  0.32324215096E+02 -0.18494285011E+03  0.20532473760E+03  0.80809377176E+02 0.  0.
         25    2    1    2    0    0  0.24918398083E+02 -0.34570904378E+02 -0.58118228683E+02  0.14436725297E+03  0.12509237080E+03 0.  0.
        -24    2    1    2    0    0 -0.44396071089E+02  0.22466892814E+01  0.27469173632E+03  0.28969201920E+03  0.80559650206E+02 0.  0.
        -13    1    3    3    0    0 -0.10697881398E+02  0.30397612975E+02 -0.16717752044E+03  0.17025505244E+03  0.00000000000E+00 0.  1.
         14    1    3    3    0    0  0.30175554404E+02  0.19266021210E+01 -0.17765329666E+02  0.35069685164E+02  0.00000000000E+00 0. -1.
         11    1    5    5    0    0 -0.61625355614E+02 -0.81120543852E+01  0.25118445285E+03  0.25876073743E+03  0.00000000000E+00 0. -1.
        -12    1    5    5    0    0  0.17229284524E+02  0.10358743667E+02  0.23507283473E+02  0.30931281768E+02  0.00000000000E+00 0.  1.
          5    1    4    4  501    0  0.92740901113E+01  0.99695346729E+01  0.36150810378E+02  0.38855551211E+02  0.41800000000E+01 0.  1.
         -5    1    4    4    0  501  0.15644307972E+02 -0.44540439051E+02 -0.94269039061E+02  0.10551170176E+03  0.41800000000E+01 0.  1.
</event>
<event>
11    1  0.9238666E-009  0.1402604E+03  0.7561462E-02  0.1107268E+00
         22   -1    0    0    0    0  0.00000000000E+00  0.00000000000E+00  0.49105178333E+03  0.49105178333E+03  0.00000000000E+00 0. -1.
         22   -1    0    0    0    0 -0.00000000000E+00 -0.00000000000E+00 -0.19766941074E+04  0.19766941074E+04  0.00000000000E+00 0.  1.
         24    2    1    2    0    0 -0.17082597605E+02 -0.84000805115E+01 -0.15223902434E+04  0.15247281682E+04  0.82228687837E+02 0.  0.
         25    2    1    2    0    0 -0.41546635712E+02  0.33078647043E+02 -0.43711127237E+03  0.45774784954E+03  0.12508600837E+03 0.  0.
        -24    2    1    2    0    0  0.58629233317E+02 -0.24678566531E+02  0.47385919176E+03  0.48526987297E+03  0.83053581222E+02 0.  0.
        -13    1    3    3    0    0 -0.24145019848E+02  0.29322855775E+02 -0.10827247377E+04  0.10833908202E+04  0.00000000000E+00 0.  1.
         14    1    3    3    0    0  0.70624222433E+01 -0.37722936286E+02 -0.43966550576E+03  0.44133734794E+03  0.00000000000E+00 0. -1.
         13    1    5    5    0    0  0.74302481990E+02 -0.21531642416E+02  0.27223721092E+03  0.28301513999E+03  0.00000000000E+00 0. -1.
        -14    1    5    5    0    0 -0.15673248673E+02 -0.31469241154E+01  0.20162198084E+03  0.20225473298E+03  0.00000000000E+00 0.  1.
          5    1    4    4  501    0 -0.28765830919E+02  0.22684196224E+02 -0.23362248808E+02  0.43649889532E+02  0.41800000000E+01 0. -1.
         -5    1    4    4    0  501 -0.12780804793E+02  0.10394450819E+02 -0.41374902357E+03  0.41409796001E+03  0.41800000000E+01 0. -1.
</event>
<event>
11    1  0.9238666E-009  0.1469520E+03  0.7561462E-02  0.1100035E+00
         22   -1    0    0    0    0  0.00000000000E+00  0.00000000000E+00  0.20729874714E+03  0.20729874714E+03  0.00000000000E+00 0.  1.
         22   -1    0    0    0    0 -0.00000000000E+00 -0.00000000000E+00 -0.13759135886E+04  0.13759135886E+04  0.00000000000E+00 0. -1.
        -24    2    1    2    0    0  0.36473108386E+02 -0.67345758282E+02 -0.12729557269E+04  0.12777712400E+04  0.80108177962E+02 0.  0.
         25    2    1    2    0    0 -0.61167285023E+02  0.72149358499E+02 -0.16279611496E+02  0.15766993356E+03  0.12509122874E+03 0.  0.
         24    2    1    2    0    0  0.24694176637E+02 -0.48036002169E+01  0.12062049693E+03  0.14777116225E+03  0.81572882607E+02 0.  0.
        -13    1    5    5    0    0  0.21116766387E+02 -0.41189762842E+02  0.84666088587E+02  0.96492802541E+02  0.00000000000E+00 0.  1.
         14    1    5    5    0    0  0.35774102506E+01  0.36386162625E+02  0.35954408346E+02  0.51278359707E+02  0.00000000000E+00 0. -1.
         13    1    3    3    0    0  0.34697371511E+01 -0.16762823721E+02 -0.88300422669E+03  0.88317013971E+03  0.00000000000E+00 0. -1.
        -14    1    3    3    0    0  0.33003371235E+02 -0.50582934561E+02 -0.38995150026E+03  0.39460110027E+03  0.00000000000E+00 0.  1.
          5    1    4    4  501    0 -0.82614120152E+02  0.50743429418E+01 -0.25060081613E+02  0.86581302226E+02  0.41800000000E+01 0. -1.
         -5    1    4    4    0  501  0.21446835129E+02  0.67075015557E+02  0.87804701171E+01  0.71088631331E+02  0.41800000000E+01 0. -1.
</event>
<event>
11    1  0.9238666E-009  0.1859588E+03  0.7561462E-02  0.1064922E+00
         22   -1    0    0    0    0  0.00000000000E+00  0.00000000000E+00  0.48574557719E+03  0.48574557719E+03  0.00000000000E+00 0.  1.
         22   -1    0    0    0    0 -0.00000000000E+00 -0.00000000000E+00 -0.14068646380E+04  0.14068646380E+04  0.00000000000E+00 0.  1.
         24    2    1    2    0    0 -0.53347146426E+02  0.63292007561E+02 -0.13329878474E+04  0.13379429735E+04  0.79893695787E+02 0.  0.
         25    2    1    2    0    0 -0.54216802081E+02 -0.14688557594E+03  0.15394274550E+03  0.25270613561E+03  0.12508872067E+03 0.  0.
        -24    2    1    2    0    0  0.10756394851E+03  0.83593568375E+02  0.25792604115E+03  0.30196110607E+03  0.78081874874E+02 0.  0.
        -11    1    3    3    0    0 -0.20391491301E+02  0.26193805710E+02 -0.10575551202E+04  0.10580759711E+04  0.00000000000E+00 0.  1.
         12    1    3    3    0    0 -0.32955655125E+02  0.37098201852E+02 -0.27543272722E+03  0.27986700236E+03  0.00000000000E+00 0. -1.
         11    1    5    5    0    0  0.22161640429E+02 -0.14761572682E+02  0.39275862616E+02  0.47451403760E+02  0.00000000000E+00 0. -1.
        -12    1    5    5    0    0  0.85402308077E+02  0.98355141057E+02  0.21865017853E+03  0.25450970231E+03  0.00000000000E+00 0.  1.
          5    1    4    4  501    0 -0.33545330360E+02  0.99344791331E+01  0.53439964480E+01  0.35637252456E+02  0.41800000000E+01 0.  1.
         -5    1    4    4    0  501 -0.20671471721E+02 -0.15682005507E+03  0.14859874905E+03  0.21706888316E+03  0.41800000000E+01 0.  1.
</event>
<event>
11    1  0.9238666E-009  0.1334885E+03  0.7561462E-02  0.1115056E+00
         22   -1    0    0    0    0  0.00000000000E+00  0.00000000000E+00  0.34640656306E+03  0.34640656306E+03  0.00000000000E+00 0. -1.
         22   -1    0    0    0    0 -0.00000000000E+00 -0.00000000000E+00 -0.21163997867E+03  0.21163997867E+03  0.00000000000E+00 0.  1.
        -24    2    1    2    0    0 -0.58974005883E+02 -0.27348238378E+02  0.35745110671E+02  0.11609112110E+03  0.89294881993E+02 0.  0.
         25    2    1    2    0    0  0.32139582208E+02  0.24813341326E+02 -0.13746429716E+03  0.19023655191E+03  0.12507940692E+03 0.  0.
         24    2    1    2    0    0  0.26834423674E+02  0.25348970523E+01  0.23648577088E+03  0.25171886872E+03  0.81916769017E+02 0.  0.
        -11    1    5    5    0    0  0.40970464481E+01 -0.16060980081E+02  0.35663696040E+01  0.16954641338E+02  0.00000000000E+00 0.  1.
         12    1    5    5    0    0  0.22737377226E+02  0.18595877133E+02  0.23291940127E+03  0.23476422738E+03  0.00000000000E+00 0. -1.
         13    1    3    3    0    0 -0.22590843576E+00 -0.13955012484E+02  0.51870416795E+02  0.53715300861E+02  0.00000000000E+00 0. -1.
        -14    1    3    3    0    0 -0.58748097447E+02 -0.13393225894E+02 -0.16125306124E+02  0.62375820244E+02  0.00000000000E+00 0.  1.
          5    1    4    4  501    0 -0.19564081196E+02  0.13204042398E+02  0.15334703350E+02  0.28455676684E+02  0.41800000000E+01 0.  1.
         -5    1    4    4    0  501  0.51703663405E+02  0.11609298928E+02 -0.15279900051E+03  0.16178087522E+03  0.41800000000E+01 0.  1.
</event>
<event>
11    1  0.9238666E-009  0.1667023E+03  0.7561462E-02  0.1080938E+00
         22   -1    0    0    0    0  0.00000000000E+00  0.00000000000E+00  0.22666944686E+04  0.22666944686E+04  0.00000000000E+00 0.  1.
         22   -1    0    0    0    0 -0.00000000000E+00 -0.00000000000E+00 -0.15796792444E+04  0.15796792444E+04  0.00000000000E+00 0.  1.
         24    2    1    2    0    0  0.50764683635E+02  0.63615016623E+01 -0.15620254406E+04  0.15648807115E+04  0.79439550881E+02 0.  0.
         25    2    1    2    0    0 -0.14736273604E+03 -0.38381959462E+02  0.70546039224E+03  0.73246765182E+03  0.12508215363E+03 0.  0.
        -24    2    1    2    0    0  0.96598052409E+02  0.32020457800E+02  0.15435802726E+04  0.15490253497E+04  0.80516970666E+02 0.  0.
        -13    1    3    3    0    0  0.39083538913E+02  0.42867127078E+01 -0.15332691538E+04  0.15337731895E+04  0.00000000000E+00 0.  1.
         14    1    3    3    0    0  0.11681144722E+02  0.20747889544E+01 -0.28756286868E+02  0.31107522011E+02  0.00000000000E+00 0. -1.
         11    1    5    5    0    0 -0.37227852286E+01  0.23834015255E+02  0.50589987447E+03  0.50647468091E+03  0.00000000000E+00 0. -1.
        -12    1    5    5    0    0  0.10032083764E+03  0.81864425453E+01  0.10376803981E+04  0.10425506688E+04  0.00000000000E+00 0.  1.
          5    1    4    4  501    0 -0.66090028936E+02  0.10071749000E+02  0.10474431376E+03  0.12433091216E+03  0.41800000000E+01 0. -1.
         -5    1    4    4    0  501 -0.81272707108E+02 -0.48453708463E+02  0.60071607848E+03  0.60813673966E+03  0.41800000000E+01 0. -1.
</event>
<event>
11    1  0.9238666E-009  0.1456521E+03  0.7561462E-02  0.1101406E+00
         22   -1    0    0    0    0  0.00000000000E+00  0.00000000000E+00  0.34564227945E+03  0.34564227945E+03  0.00000000000E+00 0. -1.
         22   -1    0    0    0    0 -0.00000000000E+00 -0.00000000000E+00 -0.14799134929E+03  0.14799134929E+03  0.00000000000E+00 0. -1.
        -24    2    1    2    0    0  0.43499970952E+02 -0.10500914429E+01 -0.58902920841E+02  0.10914420749E+03  0.80929313476E+02 0.  0.
         25    2    1    2    0    0 -0.10053916820E+03  0.32851746006E+02  0.88847944292E+02  0.18635372103E+03  0.12508553304E+03 0.  0.
         24    2    1    2    0    0  0.57039197249E+02 -0.31801654563E+02  0.16770590671E+03  0.19813570022E+03  0.82871402189E+02 0.  0.
        -11    1    5    5    0    0  0.53251711726E+02 -0.18305356656E+02  0.38597542496E+02  0.68268595787E+02  0.00000000000E+00 0.  1.
         12    1    5    5    0    0  0.37874855228E+01 -0.13496297907E+02  0.12910836422E+03  0.12986710443E+03  0.00000000000E+00 0. -1.
         13    1    3    3    0    0  0.60951515677E+01 -0.13287490371E+02 -0.67327980128E+02  0.68896771921E+02  0.00000000000E+00 0. -1.
        -14    1    3    3    0    0  0.37404819385E+02  0.12237398928E+02  0.84250592873E+01  0.40247435567E+02  0.00000000000E+00 0.  1.
          5    1    4    4  501    0 -0.12880155928E+03  0.28064481310E+02  0.58132530565E+02  0.14413299516E+03  0.41800000000E+01 0. -1.
         -5    1    4    4    0  501  0.28262391074E+02  0.47872646959E+01  0.30715413727E+02  0.42220725869E+02  0.41800000000E+01 0. -1.
</event>
<event>
11    1  0.9238666E-009  0.1430372E+03  0.7561462E-02  0.1104213E+00
         22   -1    0    0    0    0  0.00000000000E+00  0.00000000000E+00  0.61718493921E+02  0.61718493921E+02  0.00000000000E+00 0. -1.
         22   -1    0    0    0    0 -0.00000000000E+00 -0.00000000000E+00 -0.14457342962E+04  0.14457342962E+04  0.00000000000E+00 0.  1.
         24    2    1    2    0    0 -0.27554836804E+01 -0.32426306637E+02 -0.10231923220E+04  0.10269756525E+04  0.81837673772E+02 0.  0.
         25    2    1    2    0    0  0.68317793569E+02  0.61696449214E+01 -0.34386440374E+03  0.37228490627E+03  0.12509171771E+03 0.  0.
        -24    2    1    2    0    0 -0.65562309889E+02  0.26256661716E+02 -0.16959076498E+02  0.10819223137E+03  0.80188028353E+02 0.  0.
        -13    1    3    3    0    0 -0.11896185543E+02 -0.31658780458E+02 -0.10117287481E+04  0.10122938591E+04  0.00000000000E+00 0.  1.
         14    1    3    3    0    0  0.91407018624E+01 -0.76752617919E+00 -0.11463573961E+02  0.14681793315E+02  0.00000000000E+00 0. -1.
         13    1    5    5    0    0 -0.51346827697E+02  0.62045246461E+01  0.26612724171E+02  0.58165539011E+02  0.00000000000E+00 0. -1.
        -14    1    5    5    0    0 -0.14215482192E+02  0.20052137070E+02 -0.43571800669E+02  0.50026692361E+02  0.00000000000E+00 0.  1.
          5    1    4    4  501    0  0.90292432866E+02 -0.23118247953E+02 -0.16397715264E+03  0.18866148470E+03  0.41800000000E+01 0. -1.
         -5    1    4    4    0  501 -0.21974639297E+02  0.29287892874E+02 -0.17988725109E+03  0.18362342156E+03  0.41800000000E+01 0. -1.
</event>
<event>
11    1  0.9238666E-009  0.1524750E+03  0.7561462E-02  0.1094376E+00
         22   -1    0    0    0    0  0.00000000000E+00  0.00000000000E+00  0.10620266115E+04  0.10620266115E+04  0.00000000000E+00 0.  1.
         22   -1    0    0    0    0 -0.00000000000E+00 -0.00000000000E+00 -0.24029231719E+03  0.24029231719E+03  0.00000000000E+00 0. -1.
        -24    2    1    2    0    0 -0.78590945809E+02 -0.40278824619E+02 -0.18607415712E+03  0.22106858415E+03  0.80304461107E+02 0.  0.
         25    2    1    2    0    0  0.96897728932E+02 -0.30060951799E+02  0.16145030853E+03  0.22804110091E+03  0.12507482114E+03 0.  0.
         24    2    1    2    0    0 -0.18306783124E+02  0.70339776418E+02  0.84635814286E+03  0.85320924360E+03  0.79756409948E+02 0.  0.
        -11    1    5    5    0    0 -0.46724686922E+02  0.62378231952E+02  0.64734984587E+03  0.65202458784E+03  0.00000000000E+00 0.  1.
         12    1    5    5    0    0  0.28417903798E+02  0.79615444666E+01  0.19900829698E+03  0.20118465576E+03  0.00000000000E+00 0. -1.
         13    1    3    3    0    0 -0.73654979647E+02 -0.60614169731E+02 -0.16899444880E+03  0.19405735576E+03  0.00000000000E+00 0. -1.
        -14    1    3    3    0    0 -0.49359661615E+01  0.20335345112E+02 -0.17079708316E+02  0.27011228386E+02  0.00000000000E+00 0.  1.
          5    1    4    4  501    0  0.15646404531E+02  0.43545580531E+02  0.75581811431E+02  0.88719277374E+02  0.41800000000E+01 0.  1.
         -5    1    4    4    0  501  0.81251324402E+02 -0.73606532330E+02  0.85868497101E+02  0.13932182353E+03  0.41800000000E+01 0.  1.
</event>
<event>
11    1  0.9238666E-009  0.1261319E+03  0.7561462E-02  0.1124115E+00
         22   -1    0    0    0    0  0.00000000000E+00  0.00000000000E+00  0.39421040802E+03  0.39421040802E+03  0.00000000000E+00 0. -1.
         22   -1    0    0    0    0 -0.00000000000E+00 -0.00000000000E+00 -0.69082877473E+03  0.69082877473E+03  0.00000000000E+00 0. -1.
         24    2    1    2    0    0 -0.94823155561E+01  0.14674867783E+02 -0.57990840319E+03  0.58592318959E+03  0.81896043564E+02 0.  0.
         25    2    1    2    0    0 -0.19790749409E+02 -0.10825052252E+02 -0.64057530216E+02  0.14233568576E+03  0.12508886739E+03 0.  0.
        -24    2    1    2    0    0  0.29273064965E+02 -0.38498155311E+01  0.34734756670E+03  0.35678030741E+03  0.75961320726E+02 0.  0.
        -11    1    3    3    0    0 -0.23947802314E+02 -0.26027061372E+02 -0.16357811749E+03  0.16735801648E+03  0.00000000000E+00 0.  1.
         12    1    3    3    0    0  0.14465486758E+02  0.40701929155E+02 -0.41633028571E+03  0.41856517311E+03  0.00000000000E+00 0. -1.
         13    1    5    5    0    0  0.36689106050E+02 -0.26833896282E+02  0.12288817832E+03  0.13102539015E+03  0.00000000000E+00 0. -1.
        -14    1    5    5    0    0 -0.74160410855E+01  0.22984080751E+02  0.22445938838E+03  0.22575491726E+03  0.00000000000E+00 0.  1.
          5    1    4    4  501    0 -0.64850767117E+02 -0.20175956425E+02 -0.67695052301E+02  0.95983247076E+02  0.41800000000E+01 0. -1.
         -5    1    4    4    0  501  0.45060017708E+02  0.93509041733E+01  0.36375220848E+01  0.46352438681E+02  0.41800000000E+01 0. -1.
</event>
<event>
11    1  0.9238666E-009  0.1740141E+03  0.7561462E-02  0.1074590E+00
         22   -1    0    0    0    0  0.00000000000E+00  0.00000000000E+00  0.26532505450E+03  0.26532505450E+03  0.00000000000E+00 0.  1.
         22   -1    0    0    0    0 -0.00000000000E+00 -0.00000000000E+00 -0.76735993683E+03  0.76735993683E+03  0.00000000000E+00 0. -1.
        -24    2    1    2    0    0  0.52898625494E+02  0.99397673626E+02 -0.52368725146E+03  0.54172197956E+03  0.80846791542E+02 0.  0.
         25    2    1    2    0    0 -0.99495884310E+02 -0.13574603188E+03 -0.17259677954E+03  0.27159278451E+03  0.12508627472E+03 0.  0.
         24    2    1    2    0    0  0.46597258816E+02  0.36348358258E+02  0.19424914867E+03  0.21937022727E+03  0.83054543374E+02 0.  0.
        -11    1    5    5    0    0  0.26681816090E+02  0.31072414356E+02  0.19450092120E+03  0.19876625113E+03  0.00000000000E+00 0.  1.
         12    1    5    5    0    0  0.19915442726E+02  0.52759439023E+01 -0.25177252780E+00  0.20603976132E+02  0.00000000000E+00 0. -1.
         11    1    3    3    0    0  0.70318202995E+02  0.93381308846E+02 -0.48472274587E+03  0.49861895158E+03  0.00000000000E+00 0. -1.
        -12    1    3    3    0    0 -0.17419577501E+02  0.60163647798E+01 -0.38964505588E+02  0.43103027982E+02  0.00000000000E+00 0.  1.
          5    1    4    4  501    0 -0.28846099785E+02 -0.71640603245E+02 -0.15675531404E+03  0.17479752397E+03  0.41800000000E+01 0. -1.
         -5    1    4    4    0  501 -0.70649784525E+02 -0.64105428639E+02 -0.15841465504E+02  0.96795260544E+02  0.41800000000E+01 0. -1.
</event>
<event>
11    1  0.9238666E-009  0.1705507E+03  0.7561462E-02  0.1077553E+00
         22   -1    0    0    0    0  0.00000000000E+00  0.00000000000E+00  0.45048543975E+03  0.45048543975E+03  0.00000000000E+00 0. -1.
         22   -1    0    0    0    0 -0.00000000000E+00 -0.00000000000E+00 -0.15790697210E+04  0.15790697210E+04  0.00000000000E+00 0.  1.
        -24    2    1    2    0    0  0.87994047480E+02  0.93287898949E+02 -0.11057898497E+04  0.11160809882E+04  0.80124876915E+02 0.  0.
         25    2    1    2    0    0 -0.77776203323E+02 -0.42904017111E+02 -0.44991689934E+03  0.47535594631E+03  0.12509263322E+03 0.  0.
         24    2    1    2    0    0 -0.10217844157E+02 -0.50383881838E+02  0.42712246778E+03  0.43811822633E+03  0.82891723773E+02 0.  0.
        -13    1    5    5    0    0  0.34708121217E+02 -0.29211337040E+02  0.15506195934E+03  0.16156165115E+03  0.00000000000E+00 0.  1.
         14    1    5    5    0    0 -0.44925965374E+02 -0.21172544799E+02  0.27206050844E+03  0.27655657517E+03  0.00000000000E+00 0. -1.
         13    1    3    3    0    0  0.19304107204E+02  0.54846153274E+02 -0.24971514505E+03  0.25639501312E+03  0.00000000000E+00 0. -1.
        -14    1    3    3    0    0  0.68689940276E+02  0.38441745675E+02 -0.85607470466E+03  0.85968597503E+03  0.00000000000E+00 0.  1.
          5    1    4    4  501    0  0.11000770914E+02 -0.58870910935E+02 -0.22798756080E+03  0.23575962630E+03  0.41800000000E+01 0.  1.
         -5    1    4    4    0  501 -0.88776974236E+02  0.15966893824E+02 -0.22192933855E+03  0.23959632001E+03  0.41800000000E+01 0.  1.
</event>
<event>
11    1  0.9238666E-009  0.1272147E+03  0.7561462E-02  0.1122739E+00
         22   -1    0    0    0    0  0.00000000000E+00  0.00000000000E+00  0.42741048389E+02  0.42741048389E+02  0.00000000000E+00 0. -1.
         22   -1    0    0    0    0 -0.00000000000E+00 -0.00000000000E+00 -0.13788470615E+04  0.13788470615E+04  0.00000000000E+00 0. -1.
         24    2    1    2    0    0 -0.84208914993E+01 -0.10583487748E+02 -0.10663901207E+04  0.10694495055E+04  0.79695882718E+02 0.  0.
         25    2    1    2    0    0  0.24566381972E+02 -0.63067974497E+01 -0.21744827936E+03  0.25214014770E+03  0.12509043557E+03 0.  0.
        -24    2    1    2    0    0 -0.16145490473E+02  0.16890285198E+02 -0.52267613063E+02  0.99998456665E+02  0.81986763342E+02 0.  0.
        -13    1    3    3    0    0 -0.59899931314E+01  0.29861757176E+02 -0.22097904969E+03  0.22306802765E+03  0.00000000000E+00 0.  1.
         14    1    3    3    0    0 -0.24308983679E+01 -0.40445244923E+02 -0.84541107099E+03  0.84638147785E+03  0.00000000000E+00 0. -1.
         13    1    5    5    0    0 -0.30709626241E+02 -0.12267669158E+01  0.10962651216E+02  0.32630749648E+02  0.00000000000E+00 0. -1.
        -14    1    5    5    0    0  0.14564135768E+02  0.18117052113E+02 -0.63230264279E+02  0.67367707017E+02  0.00000000000E+00 0.  1.
          5    1    4    4  501    0  0.85637415245E+01 -0.52847169884E+02 -0.37400002994E+02  0.65440000440E+02  0.41800000000E+01 0. -1.
         -5    1    4    4    0  501  0.16002640448E+02  0.46540372434E+02 -0.18004827636E+03  0.18670014726E+03  0.41800000000E+01 0. -1.
</event>
<event>
11    1  0.9238666E-009  0.1908972E+03  0.7561462E-02  0.1061154E+00
         22   -1    0    0    0    0  0.00000000000E+00  0.00000000000E+00  0.75886732655E+03  0.75886732655E+03  0.00000000000E+00 0.  1.
         22   -1    0    0    0    0 -0.00000000000E+00 -0.00000000000E+00 -0.66958649960E+03  0.66958649960E+03  0.00000000000E+00 0. -1.
         24    2    1    2    0    0  0.16582259419E+02  0.70592142658E+02 -0.60321635941E+03  0.61276552088E+03  0.79708126263E+02 0.  0.
         25    2    1    2    0    0 -0.14187628068E+03  0.88629668711E+01  0.13352563677E+03  0.23169807076E+03  0.12508984418E+03 0.  0.
        -24    2    1    2    0    0  0.12529402126E+03 -0.79455109529E+02  0.55897154958E+03  0.58399023452E+03  0.81139969023E+02 0.  0.
        -13    1    3    3    0    0  0.41240539913E+02  0.22897616826E+02 -0.17688852278E+03  0.18307002070E+03  0.00000000000E+00 0.  1.
         14    1    3    3    0    0 -0.24658280494E+02  0.47694525832E+02 -0.42632783663E+03  0.42969550018E+03  0.00000000000E+00 0. -1.
         11    1    5    5    0    0  0.24463324095E+02 -0.41273154878E+01  0.23696421523E+03  0.23825937181E+03  0.00000000000E+00 0. -1.
        -12    1    5    5    0    0  0.10083069716E+03 -0.75327794041E+02  0.32200733436E+03  0.34573086270E+03  0.00000000000E+00 0.  1.
          5    1    4    4  501    0 -0.11803385365E+03  0.27599195162E+02  0.15313184704E+03  0.19534723227E+03  0.41800000000E+01 0. -1.
         -5    1    4    4    0  501 -0.23842427029E+02 -0.18736228291E+02 -0.19606210268E+02  0.36350838481E+02  0.41800000000E+01 0. -1.
</event>
<event>
11    1  0.9238666E-009  0.2339156E+03  0.7561462E-02  0.1032834E+00
         22   -1    0    0    0    0  0.00000000000E+00  0.00000000000E+00  0.34641590924E+04  0.34641590924E+04  0.00000000000E+00 0. -1.
         22   -1    0    0    0    0 -0.00000000000E+00 -0.00000000000E+00 -0.40019047186E+03  0.40019047186E+03  0.00000000000E+00 0. -1.
         24    2    1    2    0    0  0.15554346516E+03 -0.12549765457E+03 -0.32279638350E+03  0.38700151763E+03  0.75028251958E+02 0.  0.
         25    2    1    2    0    0 -0.12064645036E+03  0.13526383806E+03  0.22651501336E+03  0.31592532354E+03  0.12509151413E+03 0.  0.
        -24    2    1    2    0    0 -0.34897014803E+02 -0.97661834913E+01  0.31602499906E+04  0.31614227230E+04  0.78105380624E+02 0.  0.
        -11    1    3    3    0    0  0.91755292426E+02 -0.28824377319E+02 -0.16929470533E+03  0.19470638323E+03  0.00000000000E+00 0.  1.
         12    1    3    3    0    0  0.63788172738E+02 -0.96673277252E+02 -0.15350167816E+03  0.19229513440E+03  0.00000000000E+00 0. -1.
         11    1    5    5    0    0 -0.24930237345E+02 -0.39563163678E+02  0.24874106625E+04  0.24878501893E+04  0.00000000000E+00 0. -1.
        -12    1    5    5    0    0 -0.99667774579E+01  0.29796980186E+02  0.67283932815E+03  0.67357253372E+03  0.00000000000E+00 0.  1.
          5    1    4    4  501    0 -0.45865352638E+02 -0.15436460960E+02  0.75728435733E+02  0.89967679075E+02  0.41800000000E+01 0. -1.
         -5    1    4    4    0  501 -0.74781097724E+02  0.15070029902E+03  0.15078657762E+03  0.22595764447E+03  0.41800000000E+01 0. -1.
</event>
<event>
11    1  0.9238666E-009  0.1793694E+03  0.7561462E-02  0.1070154E+00
         22   -1    0    0    0    0  0.00000000000E+00  0.00000000000E+00  0.12809366085E+04  0.12809366085E+04  0.00000000000E+00 0.  1.
         22   -1    0    0    0    0 -0.00000000000E+00 -0.00000000000E+00 -0.88436417252E+03  0.88436417252E+03  0.00000000000E+00 0. -1.
         24    2    1    2    0    0 -0.11339030331E+02  0.25949499996E+02 -0.84719917995E+03  0.85147855764E+03  0.80419732942E+02 0.  0.
         25    2    1    2    0    0  0.72552278799E+02 -0.13366522504E+03  0.30239590247E+03  0.36086160865E+03  0.12509034024E+03 0.  0.
        -24    2    1    2    0    0 -0.61213248467E+02  0.10771572505E+03  0.94137571349E+03  0.95296061475E+03  0.81215516375E+02 0.  0.
        -11    1    3    3    0    0  0.10289295849E+02 -0.26276720826E+02 -0.32779527110E+03  0.32900771331E+03  0.00000000000E+00 0.  1.
         12    1    3    3    0    0 -0.21628326180E+02  0.52226220822E+02 -0.51940390886E+03  0.52247084433E+03  0.00000000000E+00 0. -1.
         13    1    5    5    0    0 -0.10301009552E+02  0.17113915317E+02  0.32396555988E+02  0.38059607659E+02  0.00000000000E+00 0. -1.
        -14    1    5    5    0    0 -0.50912238915E+02  0.90601809731E+02  0.90897915750E+03  0.91490100709E+03  0.00000000000E+00 0.  1.
          5    1    4    4  501    0  0.92010560240E+02 -0.99864114154E+02  0.28912570459E+03  0.31945254726E+03  0.41800000000E+01 0.  1.
         -5    1    4    4    0  501 -0.19458281441E+02 -0.33801110890E+02  0.13270197878E+02  0.41409061397E+02  0.41800000000E+01 0.  1.
</event>
<event>
11    1  0.9238666E-009  0.1388728E+03  0.7561462E-02  0.1108824E+00
         22   -1    0    0    0    0  0.00000000000E+00  0.00000000000E+00  0.99762621812E+03  0.99762621812E+03  0.00000000000E+00 0.  1.
         22   -1    0    0    0    0 -0.00000000000E+00 -0.00000000000E+00 -0.12650857271E+03  0.12650857271E+03  0.00000000000E+00 0.  1.
        -24    2    1    2    0    0  0.17032756283E+02  0.38358822005E+02 -0.56984081005E+02  0.10660934622E+03  0.79729876468E+02 0.  0.
         25    2    1    2    0    0 -0.12078160872E+02 -0.96007511569E+02  0.10805173120E+03  0.19153564395E+03  0.12508957605E+03 0.  0.
         24    2    1    2    0    0 -0.49545954117E+01  0.57648689564E+02  0.82004999521E+03  0.82598980066E+03  0.80182521329E+02 0.  0.
        -13    1    5    5    0    0  0.11073304742E+02  0.70775238900E+02  0.48075203387E+03  0.48605994547E+03  0.00000000000E+00 0.  1.
         14    1    5    5    0    0 -0.16027900154E+02 -0.13126549336E+02  0.33929796134E+03  0.33992985519E+03  0.00000000000E+00 0. -1.
         13    1    3    3    0    0  0.19360582777E+01 -0.25290796642E+01  0.18863381040E+02  0.19130387081E+02  0.00000000000E+00 0. -1.
        -14    1    3    3    0    0  0.15096698006E+02  0.40887901669E+02 -0.75847462045E+02  0.87478959140E+02  0.00000000000E+00 0.  1.
          5    1    4    4  501    0  0.96277248917E+01 -0.11959133289E+03  0.61567902297E+02  0.13491797131E+03  0.41800000000E+01 0.  1.
         -5    1    4    4    0  501 -0.21705885763E+02  0.23583821321E+02  0.46483828908E+02  0.56617672637E+02  0.41800000000E+01 0.  1.
</event>
<event>
11    1  0.9238666E-009  0.1774162E+03  0.7561462E-02  0.1071752E+00
         22   -1    0    0    0    0  0.00000000000E+00  0.00000000000E+00  0.41374399274E+03  0.41374399274E+03  0.00000000000E+00 0. -1.
         22   -1    0    0    0    0 -0.00000000000E+00 -0.00000000000E+00 -0.12946405789E+03  0.12946405789E+03  0.00000000000E+00 0.  1.
        -24    2    1    2    0    0  0.29300301548E+02  0.17507461388E+02  0.59451664972E+02  0.10586055531E+03  0.80665592586E+02 0.  0.
         25    2    1    2    0    0 -0.12701370641E+03  0.37201290479E+02  0.10250833163E+02  0.18239916119E+03  0.12509179346E+03 0.  0.
         24    2    1    2    0    0  0.97713404860E+02 -0.54708751868E+02  0.21457743671E+03  0.25494833413E+03  0.80088823881E+02 0.  0.
        -13    1    5    5    0    0  0.10547199666E+03 -0.63854081664E+02  0.20643683561E+03  0.24045343192E+03  0.00000000000E+00 0.  1.
         14    1    5    5    0    0 -0.77585918035E+01  0.91453297967E+01  0.81406011042E+01  0.14494902214E+02  0.00000000000E+00 0. -1.
         11    1    3    3    0    0 -0.17316323311E+02  0.29942406803E+02  0.42332763800E+02  0.54666860794E+02  0.00000000000E+00 0. -1.
        -12    1    3    3    0    0  0.46616624859E+02 -0.12434945415E+02  0.17118901173E+02  0.51193694515E+02  0.00000000000E+00 0.  1.
          5    1    4    4  501    0 -0.20776183745E+02 -0.27537674112E+02 -0.35597047150E+02  0.49745306033E+02  0.41800000000E+01 0.  1.
         -5    1    4    4    0  501 -0.10623752266E+03  0.64738964591E+02  0.45847880313E+02  0.13265385515E+03  0.41800000000E+01 0.  1.
</event>
<event>
11    1  0.9238666E-009  0.1260983E+03  0.7561462E-02  0.1124158E+00
         22   -1    0    0    0    0  0.00000000000E+00  0.00000000000E+00  0.70401507666E+03  0.70401507666E+03  0.00000000000E+00 0. -1.
         22   -1    0    0    0    0 -0.00000000000E+00 -0.00000000000E+00 -0.23905782411E+04  0.23905782411E+04  0.00000000000E+00 0.  1.
         24    2    1    2    0    0 -0.95612956728E+01  0.11763163964E+02 -0.22030782414E+04  0.22046039383E+04  0.80591543982E+02 0.  0.
         25    2    1    2    0    0  0.14260193762E+02 -0.37863878296E+02 -0.16094429882E+03  0.20781771804E+03  0.12509240666E+03 0.  0.
        -24    2    1    2    0    0 -0.46988980890E+01  0.26100714332E+02  0.67745937575E+03  0.68217166138E+03  0.75522466004E+02 0.  0.
        -11    1    3    3    0    0  0.35451784700E+02  0.47607621724E+01 -0.11118779274E+04  0.11124531538E+04  0.00000000000E+00 0.  1.
         12    1    3    3    0    0 -0.45013080373E+02  0.70024017913E+01 -0.10912003140E+04  0.10921507846E+04  0.00000000000E+00 0. -1.
         11    1    5    5    0    0 -0.47205890065E+01  0.11517088897E+02  0.65661028749E+03  0.65672825197E+03  0.00000000000E+00 0. -1.
        -12    1    5    5    0    0  0.21690917439E-01  0.14583625435E+02  0.20849088258E+02  0.25443409412E+02  0.00000000000E+00 0.  1.
          5    1    4    4  501    0  0.37098969499E+02 -0.57208162094E+02 -0.32103053919E+02  0.75479704683E+02  0.41800000000E+01 0. -1.
         -5    1    4    4    0  501 -0.22838775737E+02  0.19344283799E+02 -0.12884124490E+03  0.13233801336E+03  0.41800000000E+01 0. -1.
</event>
<event>
11    1  0.9238666E-009  0.1474617E+03  0.7561462E-02  0.1099501E+00
         22   -1    0    0    0    0  0.00000000000E+00  0.00000000000E+00  0.25632806436E+04  0.25632806436E+04  0.00000000000E+00 0.  1.
         22   -1    0    0    0    0 -0.00000000000E+00 -0.00000000000E+00 -0.10851948174E+04  0.10851948174E+04  0.00000000000E+00 0.  1.
         24    2    1    2    0    0 -0.65677565743E+02 -0.41960396269E+02 -0.10583740901E+04  0.10643988084E+04  0.81944439655E+02 0.  0.
         25    2    1    2    0    0  0.10755681138E+03  0.51612648570E+01  0.27647422646E+03  0.32199297005E+03  0.12508544493E+03 0.  0.
        -24    2    1    2    0    0 -0.41879245642E+02  0.36799131412E+02  0.22599856899E+04  0.22620836825E+04  0.79870025049E+02 0.  0.
        -13    1    3    3    0    0 -0.62202570882E+02 -0.63937045127E+02 -0.76524636281E+03  0.77042786902E+03  0.00000000000E+00 0.  1.
         14    1    3    3    0    0 -0.34749948611E+01  0.21976648858E+02 -0.29312772729E+03  0.29397093937E+03  0.00000000000E+00 0. -1.
         11    1    5    5    0    0  0.37667991928E+01  0.76867287648E+01  0.24678060145E+02  0.26120513544E+02  0.00000000000E+00 0. -1.
        -12    1    5    5    0    0 -0.45646044835E+02  0.29112402647E+02  0.22353076297E+04  0.22359631690E+04  0.00000000000E+00 0.  1.
          5    1    4    4  501    0  0.11502503191E+02 -0.19550234177E+01  0.19605678101E+03  0.19644811904E+03  0.41800000000E+01 0.  1.
         -5    1    4    4    0  501  0.96054308194E+02  0.71162882747E+01  0.80417445455E+02  0.12554485101E+03  0.41800000000E+01 0.  1.
</event>
<event>
11    1  0.9238666E-009  0.1756885E+03  0.7561462E-02  0.1073185E+00
         22   -1    0    0    0    0  0.00000000000E+00  0.00000000000E+00  0.23552736254E+03  0.23552736254E+03  0.00000000000E+00 0. -1.
         22   -1    0    0    0    0 -0.00000000000E+00 -0.00000000000E+00 -0.27275259174E+03  0.27275259174E+03  0.00000000000E+00 0. -1.
        -24    2    1    2    0    0  0.23847413075E+02  0.22614918033E+02 -0.13099852206E+03  0.15970342539E+03  0.85231670588E+02 0.  0.
         25    2    1    2    0    0 -0.13813977644E+03  0.11241534264E+01  0.18036614547E+02  0.18723450630E+03  0.12509028472E+03 0.  0.
         24    2    1    2    0    0  0.11429236336E+03 -0.23739071460E+02  0.75736678313E+02  0.16134202259E+03  0.81663431081E+02 0.  0.
        -13    1    5    5    0    0  0.88766847582E+02 -0.51324544909E+02  0.41887026185E+02  0.11076229098E+03  0.00000000000E+00 0.  1.
         14    1    5    5    0    0  0.25525515782E+02  0.27585473449E+02  0.33849652128E+02  0.50579731618E+02  0.00000000000E+00 0. -1.
         13    1    3    3    0    0 -0.16555923558E+02  0.29067811731E+02 -0.10735887247E+03  0.11244982785E+03  0.00000000000E+00 0. -1.
        -14    1    3    3    0    0  0.40403336633E+02 -0.64528936976E+01 -0.23639649581E+02  0.47253597540E+02  0.00000000000E+00 0.  1.
          5    1    4    4  501    0 -0.12294448405E+03  0.25512963266E+02  0.57559480202E+02  0.13819125737E+03  0.41800000000E+01 0. -1.
         -5    1    4    4    0  501 -0.15195292390E+02 -0.24388809840E+02 -0.39522865656E+02  0.49043248933E+02  0.41800000000E+01 0. -1.
</event>
<event>
11    1  0.9238666E-009  0.1842780E+03  0.7561462E-02  0.1066234E+00
         22   -1    0    0    0    0  0.00000000000E+00  0.00000000000E+00  0.40556335207E+03  0.40556335207E+03  0.00000000000E+00 0. -1.
         22   -1    0    0    0    0 -0.00000000000E+00 -0.00000000000E+00 -0.63871520244E+03  0.63871520244E+03  0.00000000000E+00 0. -1.
         24    2    1    2    0    0 -0.68186811913E+02  0.10734932585E+03 -0.39596960979E+03  0.42331189268E+03  0.78915825605E+02 0.  0.
         25    2    1    2    0    0  0.60921493684E+02 -0.15504519551E+03 -0.17382942921E+03  0.27132007870E+03  0.12508986211E+03 0.  0.
        -24    2    1    2    0    0  0.72653182285E+01  0.47695869653E+02  0.33664718862E+03  0.34964658313E+03  0.81201740494E+02 0.  0.
        -11    1    3    3    0    0 -0.39286968531E+02  0.83711790248E+00 -0.10619634553E+03  0.11323352183E+03  0.00000000000E+00 0.  1.
         12    1    3    3    0    0 -0.28899843381E+02  0.10651220795E+03 -0.28977326426E+03  0.31007837085E+03  0.00000000000E+00 0. -1.
         11    1    5    5    0    0  0.12004999665E+02 -0.96975618670E+01  0.20947526494E+03  0.21004297023E+03  0.00000000000E+00 0. -1.
        -12    1    5    5    0    0 -0.47396814364E+01  0.57393431520E+02  0.12717192368E+03  0.13960361290E+03  0.00000000000E+00 0.  1.
          5    1    4    4  501    0 -0.30673300109E+01 -0.34568594942E+02  0.15244087879E+02  0.38134641533E+02  0.41800000000E+01 0. -1.
         -5    1    4    4    0  501  0.63988823695E+02 -0.12047660056E+03 -0.18907351709E+03  0.23318543717E+03  0.41800000000E+01 0. -1.
</event>
<event>
11    1  0.9238666E-009  0.1489301E+03  0.7561462E-02  0.1097977E+00
         22   -1    0    0    0    0  0.00000000000E+00  0.00000000000E+00  0.28096609711E+03  0.28096609711E+03  0.00000000000E+00 0.  1.
         22   -1    0    0    0    0 -0.00000000000E+00 -0.00000000000E+00 -0.12787842441E+03  0.12787842441E+03  0.00000000000E+00 0.  1.
         24    2    1    2    0    0 -0.45497210741E+01 -0.36774656945E+02 -0.13271063015E+02  0.90944677382E+02  0.81986205397E+02 0.  0.
         25    2    1    2    0    0  0.19142527140E+02  0.10282602269E+03  0.87708283107E+02  0.18514880075E+03  0.12509079985E+03 0.  0.
        -24    2    1    2    0    0 -0.14592806066E+02 -0.66051365743E+02  0.78650452612E+02  0.13275104338E+03  0.82832438799E+02 0.  0.
        -13    1    3    3    0    0  0.11229623147E+02 -0.59410999407E+02 -0.17694730634E+02  0.62999006173E+02  0.00000000000E+00 0.  1.
         14    1    3    3    0    0 -0.15779344221E+02  0.22636342463E+02  0.44236676193E+01  0.27945671209E+02  0.00000000000E+00 0. -1.
         13    1    5    5    0    0  0.12150862160E+02  0.10174561168E+02 -0.48467357858E+01  0.16572748533E+02  0.00000000000E+00 0. -1.
        -14    1    5    5    0    0 -0.26743668225E+02 -0.76225926911E+02  0.83497188397E+02  0.11617829485E+03  0.00000000000E+00 0.  1.
          5    1    4    4  501    0  0.30118800826E+02  0.12313216849E+03  0.97250222544E+02  0.15982412604E+03  0.41800000000E+01 0.  1.
         -5    1    4    4    0  501 -0.10976273687E+02 -0.20306145798E+02 -0.95419394372E+01  0.25324674715E+02  0.41800000000E+01 0.  1.
</event>
<event>
11    1  0.9238666E-009  0.1570237E+03  0.7561462E-02  0.1089910E+00
         22   -1    0    0    0    0  0.00000000000E+00  0.00000000000E+00  0.10464217676E+04  0.10464217676E+04  0.00000000000E+00 0.  1.
         22   -1    0    0    0    0 -0.00000000000E+00 -0.00000000000E+00 -0.98226300264E+03  0.98226300264E+03  0.00000000000E+00 0. -1.
        -24    2    1    2    0    0  0.21088046475E+02 -0.45757227354E+02 -0.66780607485E+03  0.67459405219E+03  0.81078678354E+02 0.  0.
         25    2    1    2    0    0 -0.35066159988E+02 -0.48644331929E+02 -0.29158177496E+03  0.32289903528E+03  0.12509176187E+03 0.  0.
         24    2    1    2    0    0  0.13978113513E+02  0.94401559283E+02  0.10235466148E+04  0.10311916828E+04  0.81250058092E+02 0.  0.
        -13    1    5    5    0    0 -0.45407898321E+01  0.89060288243E+02  0.97327749021E+03  0.97735429946E+03  0.00000000000E+00 0.  1.
         14    1    5    5    0    0  0.18518903345E+02  0.53412710399E+01  0.50269124568E+02  0.53837383316E+02  0.00000000000E+00 0. -1.
         11    1    3    3    0    0  0.22295058793E+02 -0.65521820052E+02 -0.39081766295E+03  0.39689875815E+03  0.00000000000E+00 0. -1.
        -12    1    3    3    0    0 -0.12070123180E+01  0.19764592698E+02 -0.27698841190E+03  0.27769529404E+03  0.00000000000E+00 0.  1.
          5    1    4    4  501    0  0.14645292777E+02  0.31645980037E+02 -0.13934664096E+03  0.14370424976E+03  0.41800000000E+01 0. -1.
         -5    1    4    4    0  501 -0.49711452765E+02 -0.80290311966E+02 -0.15223513401E+03  0.17919478552E+03  0.41800000000E+01 0. -1.
</event>
<event>
11    1  0.9238666E-009  0.1605493E+03  0.7561462E-02  0.1086562E+00
         22   -1    0    0    0    0  0.00000000000E+00  0.00000000000E+00  0.23952100564E+03  0.23952100564E+03  0.00000000000E+00 0. -1.
         22   -1    0    0    0    0 -0.00000000000E+00 -0.00000000000E+00 -0.77683741943E+03  0.77683741943E+03  0.00000000000E+00 0.  1.
         24    2    1    2    0    0  0.89280278772E+02  0.59520083207E+02 -0.55134808577E+03  0.56721818425E+03  0.78981949716E+02 0.  0.
         25    2    1    2    0    0 -0.70933484779E+02 -0.34875191253E+02 -0.18086179143E+03  0.23367853693E+03  0.12508730070E+03 0.  0.
        -24    2    1    2    0    0 -0.18346793993E+02 -0.24644891954E+02  0.19489346340E+03  0.21546170389E+03  0.86581223226E+02 0.  0.
        -13    1    3    3    0    0  0.30550658209E+02  0.31543812906E+02 -0.40103624411E+03  0.40343329552E+03  0.00000000000E+00 0.  1.
         14    1    3    3    0    0  0.58729620563E+02  0.27976270300E+02 -0.15031184166E+03  0.16378488872E+03  0.00000000000E+00 0. -1.
         11    1    5    5    0    0 -0.45384139941E+02 -0.22775091416E+02  0.17395181205E+03  0.18121163832E+03  0.00000000000E+00 0. -1.
        -12    1    5    5    0    0  0.27037345948E+02 -0.18698005379E+01  0.20941651354E+02  0.34250065568E+02  0.00000000000E+00 0.  1.
          5    1    4    4  501    0  0.23156400055E+02  0.11409759612E+02 -0.93637519092E+02  0.97220670948E+02  0.41800000000E+01 0.  1.
         -5    1    4    4    0  501 -0.94089884834E+02 -0.46284950865E+02 -0.87224272336E+02  0.13645786598E+03  0.41800000000E+01 0.  1.
</event>
<event>
11    1  0.9238666E-009  0.1772083E+03  0.7561462E-02  0.1071924E+00
         22   -1    0    0    0    0  0.00000000000E+00  0.00000000000E+00  0.48973065801E+03  0.48973065801E+03  0.00000000000E+00 0.  1.
         22   -1    0    0    0    0 -0.00000000000E+00 -0.00000000000E+00 -0.74026583088E+03  0.74026583088E+03  0.00000000000E+00 0. -1.
         24    2    1    2    0    0 -0.48949757910E+02 -0.11457008862E+03 -0.63204034684E+03  0.64915474617E+03  0.80028122793E+02 0.  0.
         25    2    1    2    0    0  0.84938251684E+01  0.14349824695E+03  0.30949071256E+01  0.19058059022E+03  0.12508993154E+03 0.  0.
        -24    2    1    2    0    0  0.40455932741E+02 -0.28928158336E+02  0.37841026684E+03  0.39026115251E+03  0.81461133456E+02 0.  0.
        -11    1    3    3    0    0  0.21956098248E+01  0.29527773484E+01  0.54130345299E+00  0.37192211550E+01  0.00000000000E+00 0.  1.
         12    1    3    3    0    0 -0.51145367734E+02 -0.11752286597E+03 -0.63258165029E+03  0.64543552502E+03  0.00000000000E+00 0. -1.
         13    1    5    5    0    0 -0.14393393713E+02  0.12137524050E+02  0.31903948457E+02  0.37045258804E+02  0.00000000000E+00 0. -1.
        -14    1    5    5    0    0  0.54849326455E+02 -0.41065682386E+02  0.34650631839E+03  0.35321589370E+03  0.00000000000E+00 0.  1.
          5    1    4    4  501    0 -0.54383484923E+02  0.34482506720E+02  0.40763418011E+01  0.64658299270E+02  0.41800000000E+01 0.  1.
         -5    1    4    4    0  501  0.62877310091E+02  0.10901574023E+03 -0.98143467558E+00  0.12592229095E+03  0.41800000000E+01 0.  1.
</event>
<event>
11    1  0.9238666E-009  0.1793167E+03  0.7561462E-02  0.1070197E+00
         22   -1    0    0    0    0  0.00000000000E+00  0.00000000000E+00  0.22626595801E+04  0.22626595801E+04  0.00000000000E+00 0.  1.
         22   -1    0    0    0    0 -0.00000000000E+00 -0.00000000000E+00 -0.20377843315E+03  0.20377843315E+03  0.00000000000E+00 0.  1.
        -24    2    1    2    0    0  0.24843318117E+02 -0.12677878878E+03 -0.16787981025E+03  0.22610222875E+03  0.79047678120E+02 0.  0.
         25    2    1    2    0    0 -0.36897698361E+02  0.87234102588E+02  0.14861633832E+04  0.14944220518E+04  0.12507772978E+03 0.  0.
         24    2    1    2    0    0  0.12054380244E+02  0.39544686191E+02  0.74059757402E+03  0.74591373274E+03  0.78698410163E+02 0.  0.
        -11    1    5    5    0    0 -0.41025057548E+01  0.17148485715E+02  0.66812904310E+03  0.66836166807E+03  0.00000000000E+00 0.  1.
         12    1    5    5    0    0  0.16156885999E+02  0.22396200475E+02  0.72468530914E+02  0.77552064665E+02  0.00000000000E+00 0. -1.
         11    1    3    3    0    0  0.28452087509E+02 -0.24306919693E+02 -0.11581088774E+02  0.39172302022E+02  0.00000000000E+00 0. -1.
        -12    1    3    3    0    0 -0.36087693916E+01 -0.10247186909E+03 -0.15629872148E+03  0.18692992673E+03  0.00000000000E+00 0.  1.
          5    1    4    4  501    0 -0.11179320577E+02  0.57325478640E+02  0.13775185726E+04  0.13787625169E+04  0.41800000000E+01 0. -1.
         -5    1    4    4    0  501 -0.25718377784E+02  0.29908623948E+02  0.10864481062E+03  0.11565953492E+03  0.41800000000E+01 0. -1.
</event>
<event>
11    1  0.9238666E-009  0.1818854E+03  0.7561462E-02  0.1068128E+00
         22   -1    0    0    0    0  0.00000000000E+00  0.00000000000E+00  0.17115903099E+04  0.17115903099E+04  0.00000000000E+00 0.  1.
         22   -1    0    0    0    0 -0.00000000000E+00 -0.00000000000E+00 -0.18146118836E+03  0.18146118836E+03  0.00000000000E+00 0.  1.
        -24    2    1    2    0    0 -0.15868520656E+02  0.66961415895E+02 -0.12244166762E+03  0.15931690315E+03  0.75194896715E+02 0.  0.
         25    2    1    2    0    0  0.10681954237E+03  0.34023110005E+02  0.15708696215E+03  0.22998110580E+03  0.12508800384E+03 0.  0.
         24    2    1    2    0    0 -0.90951021712E+02 -0.10098452590E+03  0.14954838270E+04  0.15037534893E+04  0.79578369561E+02 0.  0.
        -11    1    5    5    0    0 -0.58947700453E+02 -0.24042529126E+02  0.92832782625E+03  0.93050815557E+03  0.00000000000E+00 0.  1.
         12    1    5    5    0    0 -0.32003321259E+02 -0.76941996774E+02  0.56715600072E+03  0.57324533369E+03  0.00000000000E+00 0. -1.
         11    1    3    3    0    0 -0.43289116132E+02  0.20531185956E+02 -0.61083942139E+02  0.77631985415E+02  0.00000000000E+00 0. -1.
        -12    1    3    3    0    0  0.27420595476E+02  0.46430229939E+02 -0.61357725484E+02  0.81684917733E+02  0.00000000000E+00 0.  1.
          5    1    4    4  501    0  0.56005820253E+02  0.34941881052E+02  0.14036585516E+01  0.66159123415E+02  0.41800000000E+01 0.  1.
         -5    1    4    4    0  501  0.50813722114E+02 -0.91877104655E+00  0.15568330360E+03  0.16382198239E+03  0.41800000000E+01 0.  1.
</event>
<event>
11    1  0.9238666E-009  0.2328354E+03  0.7561462E-02  0.1033462E+00
         22   -1    0    0    0    0  0.00000000000E+00  0.00000000000E+00  0.15746946518E+04  0.15746946518E+04  0.00000000000E+00 0. -1.
         22   -1    0    0    0    0 -0.00000000000E+00 -0.00000000000E+00 -0.62174095282E+03  0.62174095282E+03  0.00000000000E+00 0. -1.
        -24    2    1    2    0    0 -0.23081520883E+02  0.19422823612E+03 -0.57348579715E+03  0.61287999019E+03  0.92079088480E+02 0.  0.
         25    2    1    2    0    0  0.65003747130E+02 -0.21611458726E+03  0.62352535526E+03  0.67480405122E+03  0.12508252041E+03 0.  0.
         24    2    1    2    0    0 -0.41922226247E+02  0.21886351146E+02  0.90291414088E+03  0.90875156322E+03  0.91317974288E+02 0.  0.
        -11    1    5    5    0    0 -0.25616673956E+02  0.13612008845E+02  0.71831929266E+02  0.77468231111E+02  0.00000000000E+00 0.  1.
         12    1    5    5    0    0 -0.16305552291E+02  0.82743423012E+01  0.83108221161E+03  0.83128333211E+03  0.00000000000E+00 0. -1.
         13    1    3    3    0    0 -0.37778488923E+02  0.15485344792E+03 -0.52525016269E+03  0.54890303148E+03  0.00000000000E+00 0. -1.
        -14    1    3    3    0    0  0.14696968040E+02  0.39374788194E+02 -0.48235634462E+02  0.63976958718E+02  0.00000000000E+00 0.  1.
          5    1    4    4  501    0  0.76112544780E+02 -0.16076030268E+03  0.32082992041E+03  0.36686006135E+03  0.41800000000E+01 0. -1.
         -5    1    4    4    0  501 -0.11108797650E+02 -0.55354284585E+02  0.30269543486E+03  0.30794398986E+03  0.41800000000E+01 0. -1.
</event>
<event>
11    1  0.9238666E-009  0.1352329E+03  0.7561462E-02  0.1113002E+00
         22   -1    0    0    0    0  0.00000000000E+00  0.00000000000E+00  0.10836352064E+04  0.10836352064E+04  0.00000000000E+00 0. -1.
         22   -1    0    0    0    0 -0.00000000000E+00 -0.00000000000E+00 -0.22837923508E+03  0.22837923508E+03  0.00000000000E+00 0.  1.
         24    2    1    2    0    0 -0.27415434585E+01  0.50572832648E+02 -0.17913890913E+03  0.20308277667E+03  0.81158720730E+02 0.  0.
         25    2    1    2    0    0 -0.12724970863E+01 -0.59819260750E+02  0.99902681224E+02  0.17090481968E+03  0.12509176020E+03 0.  0.
        -24    2    1    2    0    0  0.40140405448E+01  0.92464281021E+01  0.93449219920E+03  0.93802684509E+03  0.80728451021E+02 0.  0.
        -11    1    3    3    0    0  0.15700120333E+02  0.31293367014E+02 -0.17191333862E+03  0.17544219730E+03  0.00000000000E+00 0.  1.
         12    1    3    3    0    0 -0.18441663792E+02  0.19279465635E+02 -0.72255705131E+01  0.27640579368E+02  0.00000000000E+00 0. -1.
         13    1    5    5    0    0  0.38382115499E+02 -0.87493033696E+01  0.60053143794E+03  0.60182035946E+03  0.00000000000E+00 0. -1.
        -14    1    5    5    0    0 -0.34368074954E+02  0.17995731472E+02  0.33396076125E+03  0.33620648564E+03  0.00000000000E+00 0.  1.
          5    1    4    4  501    0  0.26376972992E+02 -0.39610114644E+02 -0.15682304840E+02  0.50280343788E+02  0.41800000000E+01 0.  1.
         -5    1    4    4    0  501 -0.27649470078E+02 -0.20209146106E+02  0.11558498606E+03  0.12062447590E+03  0.41800000000E+01 0.  1.
</event>
<event>
11    1  0.9238666E-009  0.1348509E+03  0.7561462E-02  0.1113448E+00
         22   -1    0    0    0    0  0.00000000000E+00  0.00000000000E+00  0.33269916037E+03  0.33269916037E+03  0.00000000000E+00 0.  1.
         22   -1    0    0    0    0 -0.00000000000E+00 -0.00000000000E+00 -0.77429808763E+03  0.77429808763E+03  0.00000000000E+00 0.  1.
         24    2    1    2    0    0 -0.39983247572E+01 -0.13021665375E+02 -0.54203392385E+03  0.54821669408E+03  0.80964305050E+02 0.  0.
         25    2    1    2    0    0  0.39068798389E+02 -0.23424293285E+02 -0.20204699268E+03  0.24196136807E+03  0.12508895980E+03 0.  0.
        -24    2    1    2    0    0 -0.35070473632E+02  0.36445958661E+02  0.30248198926E+03  0.31681918586E+03  0.79503438123E+02 0.  0.
        -13    1    3    3    0    0  0.28492019985E+02  0.14898190922E+02 -0.12815457719E+03  0.13212625382E+03  0.00000000000E+00 0.  1.
         14    1    3    3    0    0 -0.32490344742E+02 -0.27919856298E+02 -0.41387934666E+03  0.41609044025E+03  0.00000000000E+00 0. -1.
         11    1    5    5    0    0  0.10951592167E+02 -0.55437404241E+01  0.56369749373E+01  0.13507254174E+02  0.00000000000E+00 0. -1.
        -12    1    5    5    0    0 -0.46022065799E+02  0.41989699085E+02  0.29684501433E+03  0.30331193168E+03  0.00000000000E+00 0.  1.
          5    1    4    4  501    0  0.30510738404E+02  0.42901924335E+02 -0.14375291005E+03  0.15314650443E+03  0.41800000000E+01 0. -1.
         -5    1    4    4    0  501  0.85580599846E+01 -0.66326217620E+02 -0.58294082624E+02  0.88814863641E+02  0.41800000000E+01 0. -1.
</event>
<event>
11    1  0.9238666E-009  0.1995911E+03  0.7561462E-02  0.1054813E+00
         22   -1    0    0    0    0  0.00000000000E+00  0.00000000000E+00  0.65117493311E+03  0.65117493311E+03  0.00000000000E+00 0.  1.
         22   -1    0    0    0    0 -0.00000000000E+00 -0.00000000000E+00 -0.50740905339E+03  0.50740905339E+03  0.00000000000E+00 0.  1.
        -24    2    1    2    0    0  0.27935152109E+01 -0.15640181261E+03 -0.41560295500E+03  0.45128117206E+03  0.80371321640E+02 0.  0.
         25    2    1    2    0    0  0.73239932126E+02  0.14688129967E+03  0.95691933990E+02  0.22747023331E+03  0.12509019530E+03 0.  0.
         24    2    1    2    0    0 -0.76033447337E+02  0.95205129379E+01  0.46367690073E+03  0.47983258112E+03  0.96805538858E+02 0.  0.
        -13    1    5    5    0    0 -0.76496335843E+01  0.38635760417E+01  0.32495396643E+03  0.32506695373E+03  0.00000000000E+00 0.  1.
         14    1    5    5    0    0 -0.68383813752E+02  0.56569368962E+01  0.13872293430E+03  0.15476562738E+03  0.00000000000E+00 0. -1.
         11    1    3    3    0    0  0.39568462477E+02 -0.66861847760E+02 -0.15740426282E+03  0.17553424698E+03  0.00000000000E+00 0. -1.
        -12    1    3    3    0    0 -0.36774947266E+02 -0.89539964852E+02 -0.25819869218E+03  0.27574692508E+03  0.00000000000E+00 0.  1.
          5    1    4    4  501    0  0.10000799652E+03  0.77647132592E+02  0.84521852973E+02  0.15228950258E+03  0.41800000000E+01 0. -1.
         -5    1    4    4    0  501 -0.26768064392E+02  0.69234167082E+02  0.11170081017E+02  0.75180730728E+02  0.41800000000E+01 0. -1.
</event>
<event>
11    1  0.9238666E-009  0.1600511E+03  0.7561462E-02  0.1087029E+00
         22   -1    0    0    0    0  0.00000000000E+00  0.00000000000E+00  0.14541772181E+04  0.14541772181E+04  0.00000000000E+00 0. -1.
         22   -1    0    0    0    0 -0.00000000000E+00 -0.00000000000E+00 -0.57892605324E+03  0.57892605324E+03  0.00000000000E+00 0. -1.
         24    2    1    2    0    0  0.81427386780E+02  0.10387715495E+02 -0.50314126056E+03  0.51609546209E+03  0.80405683651E+02 0.  0.
         25    2    1    2    0    0 -0.11944845420E+03 -0.10064347647E+03  0.85072758977E+02  0.21744428804E+03  0.12509037339E+03 0.  0.
        -24    2    1    2    0    0  0.38021067420E+02  0.90255760970E+02  0.12933196664E+04  0.12995635212E+04  0.81227347962E+02 0.  0.
        -13    1    3    3    0    0  0.87763476883E+02 -0.11908984654E+02 -0.34138245332E+03  0.35268432234E+03  0.00000000000E+00 0.  1.
         14    1    3    3    0    0 -0.63360901029E+01  0.22296700148E+02 -0.16175880724E+03  0.16341113975E+03  0.00000000000E+00 0. -1.
         11    1    5    5    0    0  0.57072672140E+02  0.31246325265E+02  0.62927672794E+03  0.63263166462E+03  0.00000000000E+00 0. -1.
        -12    1    5    5    0    0 -0.19051604720E+02  0.59009435705E+02  0.66404293850E+03  0.66693185658E+03  0.00000000000E+00 0.  1.
          5    1    4    4  501    0 -0.20710960472E+02 -0.97167893420E+02  0.28159152446E+02  0.10334869937E+03  0.41800000000E+01 0. -1.
         -5    1    4    4    0  501 -0.98737493729E+02 -0.34755830451E+01  0.56913606531E+02  0.11409558867E+03  0.41800000000E+01 0. -1.
</event>
<event>
11    1  0.9238666E-009  0.1638653E+03  0.7561462E-02  0.1083497E+00
         22   -1    0    0    0    0  0.00000000000E+00  0.00000000000E+00  0.33751013222E+03  0.33751013222E+03  0.00000000000E+00 0.  1.
         22   -1    0    0    0    0 -0.00000000000E+00 -0.00000000000E+00 -0.94639959658E+03  0.94639959658E+03  0.00000000000E+00 0.  1.
         24    2    1    2    0    0  0.81870711661E+02 -0.70428980630E+02 -0.88470793949E+03  0.89497625290E+03  0.81309902984E+02 0.  0.
         25    2    1    2    0    0 -0.38754023912E+02  0.49834759449E+02  0.58617210780E+02  0.15188314724E+03  0.12508851025E+03 0.  0.
        -24    2    1    2    0    0 -0.43116687750E+02  0.20594221181E+02  0.21720126435E+03  0.23705032866E+03  0.82056677794E+02 0.  0.
        -13    1    3    3    0    0  0.60417164071E+02 -0.87498224119E+02 -0.75066832732E+03  0.75816166520E+03  0.00000000000E+00 0.  1.
         14    1    3    3    0    0  0.21453547591E+02  0.17069243489E+02 -0.13403961217E+03  0.13681458770E+03  0.00000000000E+00 0. -1.
         11    1    5    5    0    0 -0.15507973243E+02  0.72225334412E+01 -0.58190391708E+00  0.17117267177E+02  0.00000000000E+00 0. -1.
        -12    1    5    5    0    0 -0.27608714506E+02  0.13371687740E+02  0.21778316827E+03  0.21993306148E+03  0.00000000000E+00 0.  1.
          5    1    4    4  501    0 -0.28000543357E+02 -0.39599184154E+02  0.10991621183E+02  0.49904047433E+02  0.41800000000E+01 0.  1.
         -5    1    4    4    0  501 -0.10753480555E+02  0.89433943603E+02  0.47625589596E+02  0.10197909980E+03  0.41800000000E+01 0.  1.
</event>
<event>
11    1  0.9238666E-009  0.1278044E+03  0.7561462E-02  0.1121996E+00
         22   -1    0    0    0    0  0.00000000000E+00  0.00000000000E+00  0.65322023208E+03  0.65322023208E+03  0.00000000000E+00 0.  1.
         22   -1    0    0    0    0 -0.00000000000E+00 -0.00000000000E+00 -0.37067041175E+03  0.37067041175E+03  0.00000000000E+00 0.  1.
        -24    2    1    2    0    0 -0.60891423297E+01  0.17457374437E+02 -0.34393011289E+03  0.35353394986E+03  0.79727621169E+02 0.  0.
         25    2    1    2    0    0  0.30494450138E+02 -0.19465601046E+02  0.22400446221E+03  0.25910222552E+03  0.12508854091E+03 0.  0.
         24    2    1    2    0    0 -0.24405307809E+02  0.20082266088E+01  0.40247547100E+03  0.41125446845E+03  0.80895494580E+02 0.  0.
        -13    1    5    5    0    0 -0.43680525877E+02  0.13471836202E+02  0.36289054431E+03  0.36575815215E+03  0.00000000000E+00 0.  1.
         14    1    5    5    0    0  0.19275218068E+02 -0.11463609594E+02  0.39584926686E+02  0.45496316304E+02  0.00000000000E+00 0. -1.
         11    1    3    3    0    0  0.23212156202E+02  0.14490263462E+02 -0.41726321046E+02  0.49898474914E+02  0.00000000000E+00 0. -1.
        -12    1    3    3    0    0 -0.29301298531E+02  0.29671109750E+01 -0.30220379184E+03  0.30363547494E+03  0.00000000000E+00 0.  1.
          5    1    4    4  501    0 -0.87145460221E+01  0.40836951948E+02  0.28457719900E+02  0.50704183049E+02  0.41800000000E+01 0. -1.
         -5    1    4    4    0  501  0.39208996161E+02 -0.60302552994E+02  0.19554674231E+03  0.20839804247E+03  0.41800000000E+01 0. -1.
</event>
<event>
11    1  0.9238666E-009  0.1783513E+03  0.7561462E-02  0.1070984E+00
         22   -1    0    0    0    0  0.00000000000E+00  0.00000000000E+00  0.16839212616E+03  0.16839212616E+03  0.00000000000E+00 0.  1.
         22   -1    0    0    0    0 -0.00000000000E+00 -0.00000000000E+00 -0.49236041758E+03  0.49236041758E+03  0.00000000000E+00 0.  1.
         24    2    1    2    0    0 -0.60193016173E+02 -0.11998362282E+03 -0.37917083829E+03  0.41033583768E+03  0.81152363705E+02 0.  0.
         25    2    1    2    0    0  0.36976003450E+02  0.74394864224E+02  0.38273898685E+02  0.15496330496E+03  0.12508762493E+03 0.  0.
        -24    2    1    2    0    0  0.23217012722E+02  0.45588758601E+02  0.16928648177E+02  0.95453401099E+02  0.78787105935E+02 0.  0.
        -11    1    3    3    0    0 -0.31518290193E+02 -0.11699771963E+03 -0.34482269026E+03  0.36549221159E+03  0.00000000000E+00 0.  1.
         12    1    3    3    0    0 -0.28674725980E+02 -0.29859031926E+01 -0.34348148030E+02  0.44843626091E+02  0.00000000000E+00 0. -1.
         13    1    5    5    0    0 -0.11834901904E+02  0.15763786919E+02  0.39535660126E+02  0.44177260018E+02  0.00000000000E+00 0. -1.
        -14    1    5    5    0    0  0.35051914627E+02  0.29824971682E+02 -0.22607011948E+02  0.51276141080E+02  0.00000000000E+00 0.  1.
          5    1    4    4  501    0 -0.19047477618E+02 -0.12732861551E+02  0.45425187709E+02  0.51047548866E+02  0.41800000000E+01 0.  1.
         -5    1    4    4    0  501  0.56023481068E+02  0.87127725775E+02 -0.71512890242E+01  0.10391575609E+03  0.41800000000E+01 0.  1.
</event>
<event>
11    1  0.9238666E-009  0.1645354E+03  0.7561462E-02  0.1082887E+00
         22   -1    0    0    0    0  0.00000000000E+00  0.00000000000E+00  0.89144790548E+03  0.89144790548E+03  0.00000000000E+00 0.  1.
         22   -1    0    0    0    0 -0.00000000000E+00 -0.00000000000E+00 -0.35135414389E+03  0.35135414389E+03  0.00000000000E+00 0. -1.
        -24    2    1    2    0    0 -0.57458536284E+02 -0.91124617827E+02 -0.30998087405E+03  0.33769184431E+03  0.79639563450E+02 0.  0.
         25    2    1    2    0    0  0.35350418999E+02  0.86480201434E+02  0.21886755040E+03  0.26884724039E+03  0.12508939477E+03 0.  0.
         24    2    1    2    0    0  0.22108117286E+02  0.46444163937E+01  0.63120708525E+03  0.63626296468E+03  0.76797371649E+02 0.  0.
        -13    1    5    5    0    0 -0.23174056587E+00  0.32221764625E+02  0.47424955197E+03  0.47534296394E+03  0.00000000000E+00 0.  1.
         14    1    5    5    0    0  0.22339857852E+02 -0.27577348231E+02  0.15695753328E+03  0.16092000074E+03  0.00000000000E+00 0. -1.
         13    1    3    3    0    0 -0.28587869441E+02 -0.81433481902E+02 -0.28655665171E+03  0.29927143682E+03  0.00000000000E+00 0. -1.
        -14    1    3    3    0    0 -0.28870666843E+02 -0.96911359258E+01 -0.23424222344E+02  0.38420407493E+02  0.00000000000E+00 0.  1.
          5    1    4    4  501    0 -0.97684236176E+01 -0.18848454281E+01  0.14419769622E+03  0.14460090849E+03  0.41800000000E+01 0.  1.
         -5    1    4    4    0  501  0.45118842616E+02  0.88365046862E+02  0.74669854176E+02  0.12424633189E+03  0.41800000000E+01 0.  1.
</event>
<event>
11    1  0.9238666E-009  0.1405027E+03  0.7561462E-02  0.1106998E+00
         22   -1    0    0    0    0  0.00000000000E+00  0.00000000000E+00  0.85354697562E+03  0.85354697562E+03  0.00000000000E+00 0. -1.
         22   -1    0    0    0    0 -0.00000000000E+00 -0.00000000000E+00 -0.47318879905E+03  0.47318879905E+03  0.00000000000E+00 0. -1.
         24    2    1    2    0    0 -0.39148337409E+02  0.66823347504E+02 -0.24989886583E+03  0.27368537909E+03  0.80351051599E+02 0.  0.
         25    2    1    2    0    0  0.40528082809E+02 -0.20560860756E+02 -0.18759639617E+03  0.23001483513E+03  0.12509653085E+03 0.  0.
        -24    2    1    2    0    0 -0.13797454002E+01 -0.46262486748E+02  0.81785343858E+03  0.82303556045E+03  0.79756914419E+02 0.  0.
        -13    1    3    3    0    0 -0.56430844857E+02  0.71640234266E+02 -0.18359876177E+03  0.20500065546E+03  0.00000000000E+00 0.  1.
         14    1    3    3    0    0  0.17282507448E+02 -0.48168867625E+01 -0.66300104058E+02  0.68684723628E+02  0.00000000000E+00 0. -1.
         11    1    5    5    0    0  0.24706120966E+02 -0.30941454412E+02  0.70760082222E+03  0.70870776038E+03  0.00000000000E+00 0. -1.
        -12    1    5    5    0    0 -0.26085866366E+02 -0.15321032336E+02  0.11025261636E+03  0.11432780007E+03  0.00000000000E+00 0.  1.
          5    1    4    4  501    0 -0.21271602189E+02  0.19930001459E+02 -0.12066459458E+01  0.29472265137E+02  0.41800000000E+01 0.  1.
         -5    1    4    4    0  501  0.61799684998E+02 -0.40490862215E+02 -0.18638975023E+03  0.20054256999E+03  0.41800000000E+01 0.  1.
</event>
<event>
11    1  0.9238666E-009  0.1457607E+03  0.7561462E-02  0.1101291E+00
         22   -1    0    0    0    0  0.00000000000E+00  0.00000000000E+00  0.48129397106E+03  0.48129397106E+03  0.00000000000E+00 0.  1.
         22   -1    0    0    0    0 -0.00000000000E+00 -0.00000000000E+00 -0.32389521862E+03  0.32389521862E+03  0.00000000000E+00 0.  1.
         24    2    1    2    0    0  0.27553703591E+02  0.23050971698E+02 -0.17998955304E+03  0.20038164629E+03  0.80411510921E+02 0.  0.
         25    2    1    2    0    0 -0.22779731863E+02 -0.96631340759E+02 -0.76220737968E+02  0.17693173164E+03  0.12505480624E+03 0.  0.
        -24    2    1    2    0    0 -0.47739717283E+01  0.73580369061E+02  0.41360904344E+03  0.42787581175E+03  0.81045715143E+02 0.  0.
        -13    1    3    3    0    0  0.38974197616E+02 -0.19749986955E+02 -0.85099868391E+02  0.95661056155E+02  0.00000000000E+00 0.  1.
         14    1    3    3    0    0 -0.11420494025E+02  0.42800958653E+02 -0.94889684654E+02  0.10472059014E+03  0.00000000000E+00 0. -1.
         11    1    5    5    0    0 -0.16069850694E+02 -0.11829935547E+02  0.12830443697E+03  0.12984689454E+03  0.00000000000E+00 0. -1.
        -12    1    5    5    0    0  0.11295878966E+02  0.85410304608E+02  0.28530460648E+03  0.29802891721E+03  0.00000000000E+00 0.  1.
          5    1    4    4  501    0 -0.26011061020E+02 -0.15973080022E+02  0.30301572716E+02  0.43213103219E+02  0.41800000000E+01 0. -1.
         -5    1    4    4    0  501  0.32313291572E+01 -0.80658260737E+02 -0.10652231068E+03  0.13371862842E+03  0.41800000000E+01 0. -1.
</event>
<event>
11    1  0.9238666E-009  0.1307414E+03  0.7561462E-02  0.1118361E+00
         22   -1    0    0    0    0  0.00000000000E+00  0.00000000000E+00  0.92583494910E+03  0.92583494910E+03  0.00000000000E+00 0.  1.
         22   -1    0    0    0    0 -0.00000000000E+00 -0.00000000000E+00 -0.31932574932E+03  0.31932574932E+03  0.00000000000E+00 0. -1.
        -24    2    1    2    0    0 -0.21216521662E+01 -0.44243647198E+02 -0.23582481560E+03  0.25320818191E+03  0.80864318509E+02 0.  0.
         25    2    1    2    0    0  0.71664590317E+01  0.50942147366E+01 -0.17966465149E+02  0.12667891173E+03  0.12508974237E+03 0.  0.
         24    2    1    2    0    0 -0.50448068655E+01  0.39149432461E+02  0.86030048053E+03  0.86527360478E+03  0.83805526062E+02 0.  0.
        -11    1    5    5    0    0  0.10542126127E+02  0.59945219402E+02  0.44259904916E+03  0.44676446152E+03  0.00000000000E+00 0.  1.
         12    1    5    5    0    0 -0.15586932993E+02 -0.20795786941E+02  0.41770143136E+03  0.41850914327E+03  0.00000000000E+00 0. -1.
         11    1    3    3    0    0  0.11919677257E+02 -0.48532437498E+02 -0.23294671038E+03  0.23824702741E+03  0.00000000000E+00 0. -1.
        -12    1    3    3    0    0 -0.14041329423E+02  0.42887902999E+01 -0.28781052230E+01  0.14961154497E+02  0.00000000000E+00 0.  1.
          5    1    4    4  501    0  0.41357954394E+02 -0.25839509303E+02 -0.50319555607E+02  0.70197512130E+02  0.41800000000E+01 0.  1.
         -5    1    4    4    0  501 -0.34191495362E+02  0.30933724040E+02  0.32353090459E+02  0.56481399596E+02  0.41800000000E+01 0.  1.
</event>
<event>
11    1  0.9238666E-009  0.2118429E+03  0.7561462E-02  0.1046451E+00
         22   -1    0    0    0    0  0.00000000000E+00  0.00000000000E+00  0.19603064587E+04  0.19603064587E+04  0.00000000000E+00 0.  1.
         22   -1    0    0    0    0 -0.00000000000E+00 -0.00000000000E+00 -0.11400512615E+04  0.11400512615E+04  0.00000000000E+00 0. -1.
         24    2    1    2    0    0 -0.13783659262E+03  0.10126920843E+03 -0.11161503306E+04  0.11321546369E+04  0.82025498588E+02 0.  0.
         25    2    1    2    0    0  0.10836924695E+03 -0.12833749786E+03  0.75753429930E+03  0.78595330768E+03  0.12509988088E+03 0.  0.
        -24    2    1    2    0    0  0.29467345675E+02  0.27068289432E+02  0.11788712285E+04  0.11822497756E+04  0.79850746342E+02 0.  0.
        -11    1    3    3    0    0 -0.11060776303E+03  0.76176066367E+02 -0.60796619123E+03  0.62262328901E+03  0.00000000000E+00 0.  1.
         12    1    3    3    0    0 -0.27228829592E+02  0.25093142062E+02 -0.50818413941E+03  0.50953134790E+03  0.00000000000E+00 0. -1.
         11    1    5    5    0    0  0.30470783327E+02 -0.19631103912E+02  0.30777272538E+03  0.30989982150E+03  0.00000000000E+00 0. -1.
        -12    1    5    5    0    0 -0.10034376527E+01  0.46699393344E+02  0.87109850312E+03  0.87234995407E+03  0.00000000000E+00 0.  1.
          5    1    4    4  501    0  0.10941467698E+03 -0.94785861660E+02  0.37605853029E+03  0.40298067163E+03  0.41800000000E+01 0. -1.
         -5    1    4    4    0  501 -0.10454300322E+01 -0.33551636201E+02  0.38147576901E+03  0.38297263605E+03  0.41800000000E+01 0. -1.
</event>
<event>
11    1  0.9238666E-009  0.2395863E+03  0.7561462E-02  0.1029598E+00
         22   -1    0    0    0    0  0.00000000000E+00  0.00000000000E+00  0.18665197265E+04  0.18665197265E+04  0.00000000000E+00 0. -1.
         22   -1    0    0    0    0 -0.00000000000E+00 -0.00000000000E+00 -0.28716969469E+03  0.28716969469E+03  0.00000000000E+00 0.  1.
        -24    2    1    2    0    0 -0.16754307066E+01  0.22439886320E+03 -0.17255305895E+03  0.29330868391E+03  0.76796933751E+02 0.  0.
         25    2    1    2    0    0  0.14747061572E+03 -0.10757157272E+03  0.21013497947E+03  0.30516112530E+03  0.12508947612E+03 0.  0.
         24    2    1    2    0    0 -0.14579518501E+03 -0.11682729047E+03  0.15417681113E+04  0.15552196120E+04  0.82184431291E+02 0.  0.
        -13    1    5    5    0    0 -0.34017716290E+02 -0.35408641291E+02  0.73886531375E+03  0.74049505654E+03  0.00000000000E+00 0.  1.
         14    1    5    5    0    0 -0.11177746872E+03 -0.81418649183E+02  0.80290279755E+03  0.81472455545E+03  0.00000000000E+00 0. -1.
         11    1    3    3    0    0  0.28120325887E+02  0.10633767484E+03 -0.50941036640E+02  0.12121651304E+03  0.00000000000E+00 0. -1.
        -12    1    3    3    0    0 -0.29795756593E+02  0.11806118836E+03 -0.12161202231E+03  0.17209217087E+03  0.00000000000E+00 0.  1.
          5    1    4    4  501    0 -0.53573020998E+01  0.34179562150E+01 -0.11590100159E+02  0.13863114086E+02  0.41800000000E+01 0. -1.
         -5    1    4    4    0  501  0.15282791782E+03 -0.11098952894E+03  0.22172507963E+03  0.29129801121E+03  0.41800000000E+01 0. -1.
</event>
<event>
11    1  0.9238666E-009  0.1278909E+03  0.7561462E-02  0.1121888E+00
         22   -1    0    0    0    0  0.00000000000E+00  0.00000000000E+00  0.67202618552E+03  0.67202618552E+03  0.00000000000E+00 0.  1.
         22   -1    0    0    0    0 -0.00000000000E+00 -0.00000000000E+00 -0.45206646063E+03  0.45206646063E+03  0.00000000000E+00 0. -1.
         24    2    1    2    0    0 -0.21191283754E+02  0.52990423775E+01 -0.25275338656E+03  0.26742842028E+03  0.84596307238E+02 0.  0.
         25    2    1    2    0    0  0.44149971862E+02  0.18354934597E+02 -0.16531978465E+03  0.21275418817E+03  0.12509032634E+03 0.  0.
        -24    2    1    2    0    0 -0.22958688108E+02 -0.23653976974E+02  0.63803289610E+03  0.64391003771E+03  0.80296626091E+02 0.  0.
        -11    1    3    3    0    0 -0.44474651344E+01 -0.34438422700E+02 -0.55123649434E+02  0.65149072373E+02  0.00000000000E+00 0.  1.
         12    1    3    3    0    0 -0.16743818620E+02  0.39737465077E+02 -0.19762973713E+03  0.20227934791E+03  0.00000000000E+00 0. -1.
         13    1    5    5    0    0 -0.74400353833E+01 -0.10619597957E+02  0.12375094020E+02  0.17924088241E+02  0.00000000000E+00 0. -1.
        -14    1    5    5    0    0 -0.15518652725E+02 -0.13034379017E+02  0.62565780208E+03  0.62598594947E+03  0.00000000000E+00 0.  1.
          5    1    4    4  501    0 -0.31893732337E+02 -0.17077293598E+02 -0.12742318147E+02  0.38583457476E+02  0.41800000000E+01 0.  1.
         -5    1    4    4    0  501  0.76043704199E+02  0.35432228195E+02 -0.15257746651E+03  0.17417073069E+03  0.41800000000E+01 0.  1.
</event>
<event>
11    1  0.9238666E-009  0.2053871E+03  0.7561462E-02  0.1050778E+00
         22   -1    0    0    0    0  0.00000000000E+00  0.00000000000E+00  0.11567241031E+04  0.11567241031E+04  0.00000000000E+00 0.  1.
         22   -1    0    0    0    0 -0.00000000000E+00 -0.00000000000E+00 -0.84713767681E+03  0.84713767681E+03  0.00000000000E+00 0. -1.
        -24    2    1    2    0    0  0.10326397314E+03  0.51504696757E+02 -0.74079372365E+03  0.75403841754E+03  0.80513428645E+02 0.  0.
         25    2    1    2    0    0 -0.77813573563E+02  0.11477412064E+03  0.38369742626E+01  0.18678896677E+03  0.12508934701E+03 0.  0.
         24    2    1    2    0    0 -0.25450399579E+02 -0.16627881740E+03  0.10465431757E+04  0.10630343956E+04  0.80580020538E+02 0.  0.
        -13    1    5    5    0    0  0.12317337508E+02 -0.56227004942E+02  0.55178327296E+03  0.55477740870E+03  0.00000000000E+00 0.  1.
         14    1    5    5    0    0 -0.37767737087E+02 -0.11005181246E+03  0.49475990274E+03  0.50825698692E+03  0.00000000000E+00 0. -1.
         11    1    3    3    0    0  0.11551360727E+03  0.52517616333E+02 -0.63668797892E+03  0.64920957786E+03  0.00000000000E+00 0. -1.
        -12    1    3    3    0    0 -0.12249634126E+02 -0.10129195756E+01 -0.10410574473E+03  0.10482883968E+03  0.00000000000E+00 0.  1.
          5    1    4    4  501    0  0.84873547419E+01 -0.22446086527E+02 -0.26544065589E+01  0.24502658327E+02  0.41800000000E+01 0. -1.
         -5    1    4    4    0  501 -0.86300928305E+02  0.13722020717E+03  0.64913808215E+01  0.16228630844E+03  0.41800000000E+01 0. -1.
</event>
<event>
11    1  0.9238666E-009  0.1370758E+03  0.7561462E-02  0.1110868E+00
         22   -1    0    0    0    0  0.00000000000E+00  0.00000000000E+00  0.11198166482E+04  0.11198166482E+04  0.00000000000E+00 0. -1.
         22   -1    0    0    0    0 -0.00000000000E+00 -0.00000000000E+00 -0.20171548460E+03  0.20171548460E+03  0.00000000000E+00 0.  1.
        -24    2    1    2    0    0  0.29290534813E+02  0.31106485158E+02 -0.16617926194E+03  0.18914712296E+03  0.79596093969E+02 0.  0.
         25    2    1    2    0    0 -0.80981817070E+02 -0.16963170283E+02  0.24276185528E+03  0.28535366942E+03  0.12509034507E+03 0.  0.
         24    2    1    2    0    0  0.51691282258E+02 -0.14143314875E+02  0.84151857022E+03  0.84703134038E+03  0.80228209172E+02 0.  0.
        -11    1    5    5    0    0  0.81489777327E+01  0.30269856775E+02  0.19206891019E+03  0.19461021640E+03  0.00000000000E+00 0.  1.
         12    1    5    5    0    0  0.43542304525E+02 -0.44413171650E+02  0.64944966003E+03  0.65242112398E+03  0.00000000000E+00 0. -1.
         13    1    3    3    0    0  0.71740158268E+01 -0.20220544176E+02 -0.10796710567E+02  0.24018864855E+02  0.00000000000E+00 0. -1.
        -14    1    3    3    0    0  0.22116518986E+02  0.51327029334E+02 -0.15538255137E+03  0.16512825810E+03  0.00000000000E+00 0.  1.
          5    1    4    4  501    0 -0.10137641514E+03 -0.46314358530E+02  0.20375305302E+03  0.23228210514E+03  0.41800000000E+01 0. -1.
         -5    1    4    4    0  501  0.20394598066E+02  0.29351188247E+02  0.39008802266E+02  0.53071564288E+02  0.41800000000E+01 0. -1.
</event>
<event>
11    1  0.9238666E-009  0.1416651E+03  0.7561462E-02  0.1105713E+00
         22   -1    0    0    0    0  0.00000000000E+00  0.00000000000E+00  0.10650164130E+04  0.10650164130E+04  0.00000000000E+00 0.  1.
         22   -1    0    0    0    0 -0.00000000000E+00 -0.00000000000E+00 -0.26503114501E+03  0.26503114501E+03  0.00000000000E+00 0.  1.
        -24    2    1    2    0    0  0.47145652616E+02  0.40802513566E+02 -0.22499116071E+03  0.24601941381E+03  0.77569142696E+02 0.  0.
         25    2    1    2    0    0 -0.64266366069E+02  0.26194010131E+02  0.16707083435E+03  0.21994708680E+03  0.12509102816E+03 0.  0.
         24    2    1    2    0    0  0.17120713453E+02 -0.66996523697E+02  0.85790559433E+03  0.86408105739E+03  0.76501058355E+02 0.  0.
        -11    1    5    5    0    0 -0.36665507103E+01 -0.78748733880E+02  0.62414671206E+03  0.62910565477E+03  0.00000000000E+00 0.  1.
         12    1    5    5    0    0  0.20787264164E+02  0.11752210184E+02  0.23375888227E+03  0.23497540262E+03  0.00000000000E+00 0. -1.
         11    1    3    3    0    0  0.61625566062E+01  0.52366785844E+02 -0.88263036001E+02  0.10281352483E+03  0.00000000000E+00 0. -1.
        -12    1    3    3    0    0  0.40983096010E+02 -0.11564272278E+02 -0.13672812471E+03  0.14320588898E+03  0.00000000000E+00 0.  1.
          5    1    4    4  501    0 -0.79075127519E+02 -0.25811305653E+02  0.12950160856E+03  0.15397155033E+03  0.41800000000E+01 0.  1.
         -5    1    4    4    0  501  0.14808761450E+02  0.52005315784E+02  0.37569225793E+02  0.65975536467E+02  0.41800000000E+01 0.  1.
</event>
<event>
11    1  0.9238666E-009  0.1333518E+03  0.7561462E-02  0.1115218E+00
         22   -1    0    0    0    0  0.00000000000E+00  0.00000000000E+00  0.24175364650E+04  0.24175364650E+04  0.00000000000E+00 0.  1.
         22   -1    0    0    0    0 -0.00000000000E+00 -0.00000000000E+00 -0.15390100200E+03  0.15390100200E+03  0.00000000000E+00 0. -1.
        -24    2    1    2    0    0  0.51755838036E+02  0.45859030316E+00 -0.11455178335E+03  0.14946908138E+03  0.80870378652E+02 0.  0.
         25    2    1    2    0    0 -0.25614042936E+02  0.39302302664E+02  0.19358625268E+03  0.23520937328E+03  0.12508821632E+03 0.  0.
         24    2    1    2    0    0 -0.26141795100E+02 -0.39760892968E+02  0.21846009937E+04  0.21867590124E+04  0.84670859412E+02 0.  0.
        -11    1    5    5    0    0 -0.28133655980E+02 -0.92614414580E+01  0.19438483025E+04  0.19440739441E+04  0.00000000000E+00 0.  1.
         12    1    5    5    0    0  0.19918608802E+01 -0.30499451510E+02  0.24075269117E+03  0.24268506826E+03  0.00000000000E+00 0. -1.
         13    1    3    3    0    0  0.46151681942E+01  0.30898437212E+02 -0.73734097821E+02  0.80079525355E+02  0.00000000000E+00 0. -1.
        -14    1    3    3    0    0  0.47140669842E+02 -0.30439846909E+02 -0.40817685528E+02  0.69389556021E+02  0.00000000000E+00 0.  1.
          5    1    4    4  501    0  0.37066240955E+02  0.55593567761E+02  0.11723105233E+03  0.13500052972E+03  0.41800000000E+01 0. -1.
         -5    1    4    4    0  501 -0.62680283890E+02 -0.16291265096E+02  0.76355200356E+02  0.10020884356E+03  0.41800000000E+01 0. -1.
</event>
<event>
11    1  0.9238666E-009  0.1706849E+03  0.7561462E-02  0.1077437E+00
         22   -1    0    0    0    0  0.00000000000E+00  0.00000000000E+00  0.55895273156E+03  0.55895273156E+03  0.00000000000E+00 0. -1.
         22   -1    0    0    0    0 -0.00000000000E+00 -0.00000000000E+00 -0.26173181003E+03  0.26173181003E+03  0.00000000000E+00 0. -1.
         24    2    1    2    0    0  0.16366667156E+02 -0.11571078814E+01 -0.16028355734E+03  0.17996883065E+03  0.80179514573E+02 0.  0.
         25    2    1    2    0    0 -0.62066174386E+02 -0.10488459413E+03  0.13782053319E+02  0.17518655836E+03  0.12508955650E+03 0.  0.
        -24    2    1    2    0    0  0.45699507231E+02  0.10604170201E+03  0.44372242555E+03  0.46552915260E+03  0.80588544172E+02 0.  0.
        -13    1    3    3    0    0  0.20145568205E+02 -0.10428377128E+02 -0.36033703005E+01  0.22969093263E+02  0.00000000000E+00 0.  1.
         14    1    3    3    0    0 -0.37789010494E+01  0.92712692462E+01 -0.15668018704E+03  0.15699973738E+03  0.00000000000E+00 0. -1.
         11    1    5    5    0    0  0.27317753732E+02  0.12472113589E+01  0.16383980622E+03  0.16610628317E+03  0.00000000000E+00 0. -1.
        -12    1    5    5    0    0  0.18381753499E+02  0.10479449065E+03  0.27988261933E+03  0.29942286943E+03  0.00000000000E+00 0.  1.
          5    1    4    4  501    0  0.28403549927E+02 -0.50022843230E+02 -0.24401226116E+02  0.62625384065E+02  0.41800000000E+01 0.  1.
         -5    1    4    4    0  501 -0.90469724314E+02 -0.54861750900E+02  0.38183279435E+02  0.11256117429E+03  0.41800000000E+01 0.  1.
</event>
<event>
11    1  0.9238666E-009  0.1334677E+03  0.7561462E-02  0.1115080E+00
         22   -1    0    0    0    0  0.00000000000E+00  0.00000000000E+00  0.48300717836E+03  0.48300717836E+03  0.00000000000E+00 0. -1.
         22   -1    0    0    0    0 -0.00000000000E+00 -0.00000000000E+00 -0.57047356563E+03  0.57047356563E+03  0.00000000000E+00 0. -1.
         24    2    1    2    0    0  0.11723666810E+02  0.42902465892E+02 -0.39884648155E+03  0.40923278360E+03  0.80093004580E+02 0.  0.
         25    2    1    2    0    0  0.24345036762E+01 -0.60653879325E+02 -0.13260130969E+03  0.19213317981E+03  0.12508889465E+03 0.  0.
        -24    2    1    2    0    0 -0.14158170486E+02  0.17751413433E+02  0.44398140397E+03  0.45211478058E+03  0.82296544746E+02 0.  0.
        -11    1    3    3    0    0 -0.14016148811E+01 -0.74401526868E+01 -0.59156249746E+00  0.75940991873E+01  0.00000000000E+00 0.  1.
         12    1    3    3    0    0  0.13125281691E+02  0.50342618579E+02 -0.39825491905E+03  0.40163868441E+03  0.00000000000E+00 0. -1.
         11    1    5    5    0    0 -0.22147126542E+01  0.30124280348E+02  0.42658549243E+03  0.42765355087E+03  0.00000000000E+00 0. -1.
        -12    1    5    5    0    0 -0.11943457832E+02 -0.12372866915E+02  0.17395911539E+02  0.24461229711E+02  0.00000000000E+00 0.  1.
          5    1    4    4  501    0  0.14993058072E+02 -0.93760770684E+02 -0.63288296658E+02  0.11418736709E+03  0.41800000000E+01 0.  1.
         -5    1    4    4    0  501 -0.12558554395E+02  0.33106891358E+02 -0.69313013035E+02  0.77945812716E+02  0.41800000000E+01 0.  1.
</event>
<event>
11    1  0.9238666E-009  0.1299279E+03  0.7561462E-02  0.1119358E+00
         22   -1    0    0    0    0  0.00000000000E+00  0.00000000000E+00  0.10007665959E+03  0.10007665959E+03  0.00000000000E+00 0.  1.
         22   -1    0    0    0    0 -0.00000000000E+00 -0.00000000000E+00 -0.35852281774E+04  0.35852281774E+04  0.00000000000E+00 0. -1.
        -24    2    1    2    0    0 -0.36862417866E+02 -0.29643667637E+01 -0.26155867147E+04  0.26170867513E+04  0.80508238478E+02 0.  0.
         25    2    1    2    0    0  0.25313937654E+02 -0.16307023795E+02 -0.94626946386E+03  0.95497501090E+03  0.12507861025E+03 0.  0.
         24    2    1    2    0    0  0.11548480212E+02  0.19271390559E+02  0.76704660787E+02  0.11324307474E+03  0.80222410217E+02 0.  0.
        -13    1    5    5    0    0  0.15164388180E+02  0.50055412550E+02  0.47257991269E+02  0.70489862627E+02  0.00000000000E+00 0.  1.
         14    1    5    5    0    0 -0.36159079676E+01 -0.30784021991E+02  0.29446669517E+02  0.42753212113E+02  0.00000000000E+00 0. -1.
         13    1    3    3    0    0 -0.21954630850E+02 -0.19387759075E+02 -0.24303962171E+04  0.24305727027E+04  0.00000000000E+00 0. -1.
        -14    1    3    3    0    0 -0.14907787016E+02  0.16423392312E+02 -0.18519049763E+03  0.18651404865E+03  0.00000000000E+00 0.  1.
          5    1    4    4  501    0  0.87739786790E+01  0.18585108590E+02 -0.23937099558E+02  0.31825243100E+02  0.41800000000E+01 0.  1.
         -5    1    4    4    0  501  0.16539958975E+02 -0.34892132385E+02 -0.92233236430E+03  0.92314976780E+03  0.41800000000E+01 0.  1.
</event>
<event>
11    1  0.9238666E-009  0.2477678E+03  0.7561462E-02  0.1025095E+00
         22   -1    0    0    0    0  0.00000000000E+00  0.00000000000E+00  0.19899715177E+03  0.19899715177E+03  0.00000000000E+00 0.  1.
         22   -1    0    0    0    0 -0.00000000000E+00 -0.00000000000E+00 -0.26119020828E+04  0.26119020828E+04  0.00000000000E+00 0. -1.
         24    2    1    2    0    0 -0.50124984547E+02  0.54678355863E+02 -0.20902591973E+04  0.20931419019E+04  0.80976990295E+02 0.  0.
         25    2    1    2    0    0 -0.56747521187E+02 -0.23566766792E+03 -0.39602688942E+03  0.48087870804E+03  0.12508998297E+03 0.  0.
        -24    2    1    2    0    0  0.10687250573E+03  0.18098931205E+03  0.73381155683E+02  0.23687862462E+03  0.80918633418E+02 0.  0.
        -13    1    3    3    0    0 -0.17823660578E+02  0.66165078060E+02 -0.10006359431E+04  0.10029794569E+04  0.00000000000E+00 0.  1.
         14    1    3    3    0    0 -0.32301323968E+02 -0.11486722197E+02 -0.10896232542E+04  0.10901624449E+04  0.00000000000E+00 0. -1.
         13    1    5    5    0    0 -0.59455956327E+01  0.48404485716E+02  0.30727605537E+02  0.57641392131E+02  0.00000000000E+00 0. -1.
        -14    1    5    5    0    0  0.11281810137E+03  0.13258482634E+03  0.42653550147E+02  0.17923723249E+03  0.00000000000E+00 0.  1.
          5    1    4    4  501    0 -0.40916962469E+02 -0.23511005620E+03 -0.29950975906E+03  0.38298107592E+03  0.41800000000E+01 0.  1.
         -5    1    4    4    0  501 -0.15830558718E+02 -0.55761171428E+00 -0.96517130365E+02  0.97897632116E+02  0.41800000000E+01 0.  1.
</event>
<event>
11    1  0.9238666E-009  0.1969068E+03  0.7561462E-02  0.1056733E+00
         22   -1    0    0    0    0  0.00000000000E+00  0.00000000000E+00  0.17085924163E+04  0.17085924163E+04  0.00000000000E+00 0.  1.
         22   -1    0    0    0    0 -0.00000000000E+00 -0.00000000000E+00 -0.32543406268E+03  0.32543406268E+03  0.00000000000E+00 0. -1.
         24    2    1    2    0    0  0.36921970054E+02 -0.15259814729E+03 -0.28024691244E+03  0.33134074104E+03  0.81233788011E+02 0.  0.
         25    2    1    2    0    0 -0.14372855766E+02  0.86759296213E+02  0.31577469813E+03  0.35084856814E+03  0.12508918148E+03 0.  0.
        -24    2    1    2    0    0 -0.22549114288E+02  0.65838851077E+02  0.13476305680E+04  0.13518371698E+04  0.80699251505E+02 0.  0.
        -11    1    3    3    0    0  0.21635107661E+02 -0.38113277971E+01 -0.14278461607E+02  0.26200736039E+02  0.00000000000E+00 0.  1.
         12    1    3    3    0    0  0.15286862393E+02 -0.14878681949E+03 -0.26596845083E+03  0.30514000500E+03  0.00000000000E+00 0. -1.
         13    1    5    5    0    0  0.48676297818E+01 -0.17126586533E+02  0.15747037632E+03  0.15847376188E+03  0.00000000000E+00 0. -1.
        -14    1    5    5    0    0 -0.27416744070E+02  0.82965437610E+02  0.11901601916E+04  0.11933634080E+04  0.00000000000E+00 0.  1.
          5    1    4    4  501    0 -0.31004419797E+00  0.47488768859E+02  0.30342295249E+03  0.30714530730E+03  0.41800000000E+01 0.  1.
         -5    1    4    4    0  501 -0.14062811568E+02  0.39270527354E+02  0.12351745637E+02  0.43703260841E+02  0.41800000000E+01 0.  1.
</event>
<event>
11    1  0.9238666E-009  0.1803500E+03  0.7561462E-02  0.1069360E+00
         22   -1    0    0    0    0  0.00000000000E+00  0.00000000000E+00  0.59679939052E+02  0.59679939052E+02  0.00000000000E+00 0.  1.
         22   -1    0    0    0    0 -0.00000000000E+00 -0.00000000000E+00 -0.15116932884E+04  0.15116932884E+04  0.00000000000E+00 0.  1.
         24    2    1    2    0    0 -0.18398572115E+02  0.20251827538E+02 -0.93175869715E+03  0.93491346213E+03  0.71695662274E+02 0.  0.
         25    2    1    2    0    0  0.24545211310E+02  0.11427342323E+03 -0.41741284170E+03  0.45115428615E+03  0.12508327964E+03 0.  0.
        -24    2    1    2    0    0 -0.61466391944E+01 -0.13452525077E+03 -0.10284181048E+03  0.18530547915E+03  0.75012387988E+02 0.  0.
        -13    1    3    3    0    0 -0.43913495894E+02 -0.24109254914E+00 -0.51018589648E+03  0.51207236033E+03  0.00000000000E+00 0.  1.
         14    1    3    3    0    0  0.25514923779E+02  0.20492920087E+02 -0.42157280067E+03  0.42284110180E+03  0.00000000000E+00 0. -1.
         13    1    5    5    0    0  0.28322209825E+02 -0.92531917896E+02 -0.47664936493E+02  0.10787144928E+03  0.00000000000E+00 0. -1.
        -14    1    5    5    0    0 -0.34468849019E+02 -0.41993332872E+02 -0.55176873991E+02  0.77434029869E+02  0.00000000000E+00 0.  1.
          5    1    4    4  501    0  0.22976068443E+02  0.98283977790E+02 -0.13683147099E+03  0.17008222677E+03  0.41800000000E+01 0.  1.
         -5    1    4    4    0  501  0.15691428662E+01  0.15989445439E+02 -0.28058137071E+03  0.28107205938E+03  0.41800000000E+01 0.  1.
</event>
<event>
11    1  0.9238666E-009  0.1335087E+03  0.7561462E-02  0.1115031E+00
         22   -1    0    0    0    0  0.00000000000E+00  0.00000000000E+00  0.20921286431E+04  0.20921286431E+04  0.00000000000E+00 0. -1.
         22   -1    0    0    0    0 -0.00000000000E+00 -0.00000000000E+00 -0.41168313304E+03  0.41168313304E+03  0.00000000000E+00 0.  1.
        -24    2    1    2    0    0 -0.55506562480E+01  0.14716346013E+02 -0.39662441010E+03  0.40490741260E+03  0.79948167387E+02 0.  0.
         25    2    1    2    0    0  0.13935526788E+02 -0.58793238989E+02  0.48998107893E+03  0.50929354093E+03  0.12509040436E+03 0.  0.
         24    2    1    2    0    0 -0.83848705400E+01  0.44076892977E+02  0.15870888412E+04  0.15896108226E+04  0.77449976617E+02 0.  0.
        -11    1    5    5    0    0  0.10051176382E+01 -0.13329596630E+02  0.62539268694E+02  0.63951923635E+02  0.00000000000E+00 0.  1.
         12    1    5    5    0    0 -0.93899881782E+01  0.57406489606E+02  0.15245495725E+04  0.15256588989E+04  0.00000000000E+00 0. -1.
         13    1    3    3    0    0 -0.27775333442E+02  0.28092740781E+02 -0.10591011515E+03  0.11303815163E+03  0.00000000000E+00 0. -1.
        -14    1    3    3    0    0  0.22224677194E+02 -0.13376394768E+02 -0.29071429495E+03  0.29186926097E+03  0.00000000000E+00 0.  1.
          5    1    4    4  501    0 -0.14061325448E+02 -0.83717073885E+02  0.20638661443E+03  0.22320209755E+03  0.41800000000E+01 0.  1.
         -5    1    4    4    0  501  0.27996852236E+02  0.24923834895E+02  0.28359446450E+03  0.28609144338E+03  0.41800000000E+01 0.  1.
</event>
<event>
11    1  0.9238666E-009  0.1464797E+03  0.7561462E-02  0.1100531E+00
         22   -1    0    0    0    0  0.00000000000E+00  0.00000000000E+00  0.41277365321E+03  0.41277365321E+03  0.00000000000E+00 0. -1.
         22   -1    0    0    0    0 -0.00000000000E+00 -0.00000000000E+00 -0.19185499248E+03  0.19185499248E+03  0.00000000000E+00 0. -1.
        -24    2    1    2    0    0  0.37718401515E+02  0.85927510997E+01 -0.12963468022E+03  0.15506255287E+03  0.75780814207E+02 0.  0.
         25    2    1    2    0    0 -0.61424678310E+02 -0.75208085788E+02  0.13041264884E+03  0.20514408802E+03  0.12508953033E+03 0.  0.
         24    2    1    2    0    0  0.23706276795E+02  0.66615334688E+02  0.22014069211E+03  0.24442200480E+03  0.79250247512E+02 0.  0.
        -13    1    5    5    0    0 -0.26200171610E+02  0.43041001381E+02  0.11835215206E+03  0.12863206711E+03  0.00000000000E+00 0.  1.
         14    1    5    5    0    0  0.49906448405E+02  0.23574333307E+02  0.10178854005E+03  0.11578993768E+03  0.00000000000E+00 0. -1.
         11    1    3    3    0    0  0.55012636953E+02 -0.73916682456E+01 -0.60875728750E+02  0.82382530520E+02  0.00000000000E+00 0. -1.
        -12    1    3    3    0    0 -0.17294235438E+02  0.15984419345E+02 -0.68758951473E+02  0.72680022350E+02  0.00000000000E+00 0.  1.
          5    1    4    4  501    0  0.27902071532E+02 -0.52607345486E+02  0.80653060996E+02  0.10034165159E+03  0.41800000000E+01 0. -1.
         -5    1    4    4    0  501 -0.89326749842E+02 -0.22600740302E+02  0.49759587846E+02  0.10480243643E+03  0.41800000000E+01 0. -1.
</event>
<event>
11    1  0.9238666E-009  0.1437919E+03  0.7561462E-02  0.1103397E+00
         22   -1    0    0    0    0  0.00000000000E+00  0.00000000000E+00  0.16919412923E+04  0.16919412923E+04  0.00000000000E+00 0. -1.
         22   -1    0    0    0    0 -0.00000000000E+00 -0.00000000000E+00 -0.21873173960E+03  0.21873173960E+03  0.00000000000E+00 0.  1.
        -24    2    1    2    0    0  0.35785119279E+02 -0.37424828458E+02 -0.19103844794E+03  0.21393926372E+03  0.81198075243E+02 0.  0.
         25    2    1    2    0    0  0.81809910376E+01 -0.27216252218E+02  0.28134585167E+03  0.30920840774E+03  0.12508676255E+03 0.  0.
         24    2    1    2    0    0 -0.43966110317E+02  0.64641080676E+02  0.13829021490E+04  0.13875253605E+04  0.81833881065E+02 0.  0.
        -11    1    5    5    0    0 -0.21218981775E+02 -0.11047046309E+02  0.13352797547E+03  0.13565398134E+03  0.00000000000E+00 0.  1.
         12    1    5    5    0    0 -0.22747128541E+02  0.75688126985E+02  0.12493741735E+04  0.12518713791E+04  0.00000000000E+00 0. -1.
         11    1    3    3    0    0  0.36057332468E+02  0.17289885690E+02 -0.10034125742E+03  0.10801592157E+03  0.00000000000E+00 0. -1.
        -12    1    3    3    0    0 -0.27221318900E+00 -0.54714714148E+02 -0.90697190519E+02  0.10592334215E+03  0.00000000000E+00 0.  1.
          5    1    4    4  501    0 -0.23964394510E+02  0.41630677088E+02  0.73831240777E+02  0.88181233795E+02  0.41800000000E+01 0. -1.
         -5    1    4    4    0  501  0.32145385548E+02 -0.68846929306E+02  0.20751461089E+03  0.22102717394E+03  0.41800000000E+01 0. -1.
</event>
<event>
11    1  0.9238666E-009  0.1485405E+03  0.7561462E-02  0.1098380E+00
         22   -1    0    0    0    0  0.00000000000E+00  0.00000000000E+00  0.19379278026E+03  0.19379278026E+03  0.00000000000E+00 0.  1.
         22   -1    0    0    0    0 -0.00000000000E+00 -0.00000000000E+00 -0.21174064263E+04  0.21174064263E+04  0.00000000000E+00 0.  1.
         24    2    1    2    0    0 -0.75667005959E+02 -0.16612360168E+02 -0.18731471286E+04  0.18764459200E+04  0.79797613840E+02 0.  0.
         25    2    1    2    0    0  0.14094934439E+03  0.45238313251E+02 -0.18056351795E+03  0.26488536162E+03  0.12509135909E+03 0.  0.
        -24    2    1    2    0    0 -0.65282338431E+02 -0.28625953083E+02  0.13009700050E+03  0.16986792491E+03  0.82756591719E+02 0.  0.
        -11    1    3    3    0    0 -0.75536129010E+02 -0.25204117080E+02 -0.18506694418E+04  0.18523818012E+04  0.00000000000E+00 0.  1.
         12    1    3    3    0    0 -0.13087694860E+00  0.85917569124E+01 -0.22477686717E+02  0.24064118844E+02  0.00000000000E+00 0. -1.
         13    1    5    5    0    0 -0.43243434865E+01 -0.39771527500E+02  0.23030956297E+02  0.46161664768E+02  0.00000000000E+00 0. -1.
        -14    1    5    5    0    0 -0.60957994945E+02  0.11145574416E+02  0.10706604420E+03  0.12370626014E+03  0.00000000000E+00 0.  1.
          5    1    4    4  501    0 -0.89494549537E+01 -0.16078617122E+02  0.40142578630E+01  0.19292520279E+02  0.41800000000E+01 0. -1.
         -5    1    4    4    0  501  0.14989879934E+03  0.61316930373E+02 -0.18457777581E+03  0.24559284134E+03  0.41800000000E+01 0. -1.
</event>
<event>
11    1  0.9238666E-009  0.1388391E+03  0.7561462E-02  0.1108862E+00
         22   -1    0    0    0    0  0.00000000000E+00  0.00000000000E+00  0.67923902140E+03  0.67923902140E+03  0.00000000000E+00 0.  1.
         22   -1    0    0    0    0 -0.00000000000E+00 -0.00000000000E+00 -0.66464478735E+03  0.66464478735E+03  0.00000000000E+00 0.  1.
         24    2    1    2    0    0 -0.19010449368E+02  0.46513556127E+02 -0.57484154622E+03  0.58303313793E+03  0.83426186420E+02 0.  0.
         25    2    1    2    0    0  0.65302865705E+02 -0.68810802401E+01 -0.20608815093E+02  0.14277213262E+03  0.12508934830E+03 0.  0.
        -24    2    1    2    0    0 -0.46292416337E+02 -0.39632475887E+02  0.61004459536E+03  0.61807853819E+03  0.78440742560E+02 0.  0.
        -11    1    3    3    0    0 -0.23540286089E+02  0.13199242109E+02 -0.50289447046E+03  0.50361812267E+03  0.00000000000E+00 0.  1.
         12    1    3    3    0    0  0.45298367210E+01  0.33314314018E+02 -0.71947075760E+02  0.79415015266E+02  0.00000000000E+00 0. -1.
         11    1    5    5    0    0 -0.33377555678E+02 -0.15740420836E+02  0.89278638411E+02  0.96604851574E+02  0.00000000000E+00 0. -1.
        -12    1    5    5    0    0 -0.12914860659E+02 -0.23892055051E+02  0.52076595695E+03  0.52147368662E+03  0.00000000000E+00 0.  1.
          5    1    4    4  501    0 -0.34141148809E+02 -0.18571255762E+02  0.48060077601E+01  0.39383749099E+02  0.41800000000E+01 0.  1.
         -5    1    4    4    0  501  0.99444014513E+02  0.11690175522E+02 -0.25414822853E+02  0.10338838352E+03  0.41800000000E+01 0.  1.
</event>
<event>
11    1  0.9238666E-009  0.1379188E+03  0.7561462E-02  0.1109905E+00
         22   -1    0    0    0    0  0.00000000000E+00  0.00000000000E+00  0.75837019274E+03  0.75837019274E+03  0.00000000000E+00 0. -1.
         22   -1    0    0    0    0 -0.00000000000E+00 -0.00000000000E+00 -0.71293669127E+03  0.71293669127E+03  0.00000000000E+00 0. -1.
        -24    2    1    2    0    0  0.45929371038E+02  0.36361002731E+02 -0.68147385518E+03  0.68868069008E+03  0.80267353006E+02 0.  0.
         25    2    1    2    0    0 -0.49144205034E+02  0.10156948220E+02  0.16486875092E+03  0.21294838178E+03  0.12508793621E+03 0.  0.
         24    2    1    2    0    0  0.32148339958E+01 -0.46517950951E+02  0.56203860573E+03  0.56967781216E+03  0.80443523161E+02 0.  0.
        -11    1    5    5    0    0  0.37577218664E+02 -0.23028224662E+02  0.39832328956E+03  0.40075402618E+03  0.00000000000E+00 0.  1.
         12    1    5    5    0    0 -0.34362384669E+02 -0.23489726289E+02  0.16371531617E+03  0.16892378598E+03  0.00000000000E+00 0. -1.
         11    1    3    3    0    0  0.16926906968E+02  0.28801021399E+02 -0.61330290816E+03  0.61421207752E+03  0.00000000000E+00 0. -1.
        -12    1    3    3    0    0  0.29002464070E+02  0.75599813315E+01 -0.68170947020E+02  0.74468612565E+02  0.00000000000E+00 0.  1.
          5    1    4    4  501    0 -0.48471069248E+02  0.64116664340E+02  0.10374847394E+03  0.13130730918E+03  0.41800000000E+01 0. -1.
         -5    1    4    4    0  501 -0.67313578580E+00 -0.53959716120E+02  0.61120276980E+02  0.81641072590E+02  0.41800000000E+01 0. -1.
</event>
<event>
11    1  0.9238666E-009  0.1281378E+03  0.7561462E-02  0.1121578E+00
         22   -1    0    0    0    0  0.00000000000E+00  0.00000000000E+00  0.19874251940E+03  0.19874251940E+03  0.00000000000E+00 0. -1.
         22   -1    0    0    0    0 -0.00000000000E+00 -0.00000000000E+00 -0.30327167239E+04  0.30327167239E+04  0.00000000000E+00 0. -1.
         24    2    1    2    0    0 -0.70715297773E+01  0.48965914854E+02 -0.28174936079E+04  0.28186402039E+04  0.63361669027E+02 0.  0.
         25    2    1    2    0    0 -0.11679793397E+02 -0.25792678161E+02 -0.18414417120E+03  0.22440635972E+03  0.12508980244E+03 0.  0.
        -24    2    1    2    0    0  0.18751323174E+02 -0.23173236693E+02  0.16766357465E+03  0.18841267963E+03  0.80620422725E+02 0.  0.
        -13    1    3    3    0    0 -0.11340676407E+02 -0.13566563747E+02 -0.65163755508E+03  0.65187741622E+03  0.00000000000E+00 0.  1.
         14    1    3    3    0    0  0.42691466301E+01  0.62532478601E+02 -0.21658560529E+04  0.21667627877E+04  0.00000000000E+00 0. -1.
         13    1    5    5    0    0  0.33497870487E+02 -0.43176763278E+02  0.77109627314E+02  0.94510501209E+02  0.00000000000E+00 0. -1.
        -14    1    5    5    0    0 -0.14746547313E+02  0.20003526585E+02  0.90553947339E+02  0.93902178421E+02  0.00000000000E+00 0.  1.
          5    1    4    4  501    0  0.32798930288E+02  0.35438763431E+02 -0.45933148082E+02  0.66775761129E+02  0.41800000000E+01 0.  1.
         -5    1    4    4    0  501 -0.44478723685E+02 -0.61231441593E+02 -0.13821102312E+03  0.15763059859E+03  0.41800000000E+01 0.  1.
</event>
<event>
11    1  0.9238666E-009  0.1401014E+03  0.7561462E-02  0.1107445E+00
         22   -1    0    0    0    0  0.00000000000E+00  0.00000000000E+00  0.18310924229E+04  0.18310924229E+04  0.00000000000E+00 0. -1.
         22   -1    0    0    0    0 -0.00000000000E+00 -0.00000000000E+00 -0.11225189747E+04  0.11225189747E+04  0.00000000000E+00 0.  1.
        -24    2    1    2    0    0 -0.63025634987E+00 -0.42177945714E+02 -0.11122795635E+04  0.11159844928E+04  0.80474744540E+02 0.  0.
         25    2    1    2    0    0  0.51134364022E+02  0.60564042716E+02  0.11883977378E+04  0.11975883956E+04  0.12508419423E+03 0.  0.
         24    2    1    2    0    0 -0.50504107672E+02 -0.18386097002E+02  0.63245527396E+03  0.64003850920E+03  0.82224730125E+02 0.  0.
        -13    1    5    5    0    0 -0.25452138885E+02  0.12649368607E+02  0.62154273993E+02  0.68344507282E+02  0.00000000000E+00 0.  1.
         14    1    5    5    0    0 -0.25051968786E+02 -0.31035465609E+02  0.57030099996E+03  0.57169400191E+03  0.00000000000E+00 0. -1.
         13    1    3    3    0    0 -0.33125069793E+02 -0.65059001070E+01 -0.23894160330E+03  0.24131449764E+03  0.00000000000E+00 0. -1.
        -14    1    3    3    0    0  0.32494813443E+02 -0.35672045607E+02 -0.87333796018E+03  0.87466999516E+03  0.00000000000E+00 0.  1.
          5    1    4    4  501    0  0.10974526719E+02  0.54893580448E+02  0.18421530200E+03  0.19257854320E+03  0.41800000000E+01 0.  1.
         -5    1    4    4    0  501  0.40159837302E+02  0.56704622679E+01  0.10041824358E+04  0.10050098524E+04  0.41800000000E+01 0.  1.
</event>
<event>
11    1  0.9238666E-009  0.2138403E+03  0.7561462E-02  0.1045146E+00
         22   -1    0    0    0    0  0.00000000000E+00  0.00000000000E+00  0.45951805351E+03  0.45951805351E+03  0.00000000000E+00 0.  1.
         22   -1    0    0    0    0 -0.00000000000E+00 -0.00000000000E+00 -0.15170075797E+04  0.15170075797E+04  0.00000000000E+00 0.  1.
         24    2    1    2    0    0 -0.53509235117E+02  0.14434377271E+01 -0.11899918836E+04  0.11937794308E+04  0.78506845224E+02 0.  0.
         25    2    1    2    0    0 -0.12286204613E+03  0.13531188926E+02 -0.27793135091E+03  0.32889370761E+03  0.12508820741E+03 0.  0.
        -24    2    1    2    0    0  0.17637128124E+03 -0.14974626653E+02  0.41043370829E+03  0.45385249478E+03  0.78709528176E+02 0.  0.
        -11    1    3    3    0    0 -0.55359509296E+02  0.31970911863E+02 -0.74499003423E+03  0.74772786866E+03  0.00000000000E+00 0.  1.
         12    1    3    3    0    0  0.18502741790E+01 -0.30527474136E+02 -0.44500184933E+03  0.44605156216E+03  0.00000000000E+00 0. -1.
         13    1    5    5    0    0  0.12152296704E+03 -0.39606196666E+02  0.22324564988E+03  0.25724521865E+03  0.00000000000E+00 0. -1.
        -14    1    5    5    0    0  0.54848314206E+02  0.24631570013E+02  0.18718805841E+03  0.19660727612E+03  0.00000000000E+00 0.  1.
          5    1    4    4  501    0 -0.55703098433E+02  0.68906359988E+02 -0.13872941900E+03  0.16466403893E+03  0.41800000000E+01 0. -1.
         -5    1    4    4    0  501 -0.67158947693E+02 -0.55375171063E+02 -0.13920193191E+03  0.16422966868E+03  0.41800000000E+01 0. -1.
</event>
<event>
11    1  0.9238666E-009  0.1302620E+03  0.7561462E-02  0.1118947E+00
         22   -1    0    0    0    0  0.00000000000E+00  0.00000000000E+00  0.29908202712E+03  0.29908202712E+03  0.00000000000E+00 0. -1.
         22   -1    0    0    0    0 -0.00000000000E+00 -0.00000000000E+00 -0.17225980372E+03  0.17225980372E+03  0.00000000000E+00 0. -1.
        -24    2    1    2    0    0 -0.61581185442E+01 -0.29643905053E+02 -0.99577044953E+02  0.13014175004E+03  0.78131963319E+02 0.  0.
         25    2    1    2    0    0 -0.31025151445E+02  0.19942617535E+02  0.43191942384E+02  0.13737992578E+03  0.12508969624E+03 0.  0.
         24    2    1    2    0    0  0.37183269989E+02  0.97012875183E+01  0.18320732598E+03  0.20382015502E+03  0.80628907681E+02 0.  0.
        -13    1    5    5    0    0 -0.67795683750E+01  0.86085766824E+00 -0.61692909241E+01  0.92067243785E+01  0.00000000000E+00 0.  1.
         14    1    5    5    0    0  0.43962838364E+02  0.88404298501E+01  0.18937661690E+03  0.19461343064E+03  0.00000000000E+00 0. -1.
         13    1    3    3    0    0 -0.11454454682E+02 -0.33103562909E+02 -0.11137553036E+03  0.11675426832E+03  0.00000000000E+00 0. -1.
        -14    1    3    3    0    0  0.52963361377E+01  0.34596578562E+01  0.11798485405E+02  0.13387481720E+02  0.00000000000E+00 0.  1.
          5    1    4    4  501    0 -0.22917596641E+01 -0.51243151748E+02  0.29408667952E+02  0.59274403533E+02  0.41800000000E+01 0. -1.
         -5    1    4    4    0  501 -0.28733391780E+02  0.71185769283E+02  0.13783274432E+02  0.78105522248E+02  0.41800000000E+01 0. -1.
</event>
<event>
11    1  0.9238666E-009  0.1436152E+03  0.7561462E-02  0.1103587E+00
         22   -1    0    0    0    0  0.00000000000E+00  0.00000000000E+00  0.38766950346E+02  0.38766950346E+02  0.00000000000E+00 0. -1.
         22   -1    0    0    0    0 -0.00000000000E+00 -0.00000000000E+00 -0.86928731984E+03  0.86928731984E+03  0.00000000000E+00 0. -1.
        -24    2    1    2    0    0  0.16993833599E+02 -0.22107933616E+02 -0.20984462376E+03  0.22809361962E+03  0.84937518680E+02 0.  0.
         25    2    1    2    0    0 -0.83373647887E+02  0.21033928528E+02 -0.48375944476E+03  0.50701515429E+03  0.12509026731E+03 0.  0.
         24    2    1    2    0    0  0.66379814288E+02  0.10740050877E+01 -0.13691630097E+03  0.17294549628E+03  0.82198771147E+02 0.  0.
        -13    1    5    5    0    0 -0.19238969274E+02  0.51895571029E+01 -0.27012784288E+02  0.33567245294E+02  0.00000000000E+00 0.  1.
         14    1    5    5    0    0  0.85618783562E+02 -0.41155520152E+01 -0.10990351669E+03  0.13937825098E+03  0.00000000000E+00 0. -1.
         13    1    3    3    0    0  0.24289090834E+02 -0.15054820367E+02 -0.21487572367E+03  0.21676758100E+03  0.00000000000E+00 0. -1.
        -14    1    3    3    0    0 -0.72952572342E+01 -0.70531132482E+01  0.50310999048E+01  0.11326038622E+02  0.00000000000E+00 0.  1.
          5    1    4    4  501    0 -0.53709165203E+02  0.11327839745E+02 -0.46903077781E+03  0.47225029096E+03  0.41800000000E+01 0.  1.
         -5    1    4    4    0  501 -0.29664482684E+02  0.97060887825E+01 -0.14728666950E+02  0.34764863332E+02  0.41800000000E+01 0.  1.
</event>
<event>
11    1  0.9238666E-009  0.1374755E+03  0.7561462E-02  0.1110411E+00
         22   -1    0    0    0    0  0.00000000000E+00  0.00000000000E+00  0.73592464365E+02  0.73592464365E+02  0.00000000000E+00 0.  1.
         22   -1    0    0    0    0 -0.00000000000E+00 -0.00000000000E+00 -0.16033607880E+04  0.16033607880E+04  0.00000000000E+00 0.  1.
         24    2    1    2    0    0  0.45896771552E+02 -0.47704656459E+02 -0.12015236489E+04  0.12060549219E+04  0.80790766064E+02 0.  0.
         25    2    1    2    0    0  0.58857207284E+01  0.20906911244E+02 -0.34649954396E+03  0.36902548287E+03  0.12508450103E+03 0.  0.
        -24    2    1    2    0    0 -0.51782492280E+02  0.26797745215E+02  0.18254869203E+02  0.10187284762E+03  0.81518655390E+02 0.  0.
        -11    1    3    3    0    0  0.42599948121E+02  0.11260035482E+02 -0.42074385948E+03  0.42304484309E+03  0.00000000000E+00 0.  1.
         12    1    3    3    0    0  0.32968234314E+01 -0.58964691941E+02 -0.78077978944E+03  0.78301007882E+03  0.00000000000E+00 0. -1.
         11    1    5    5    0    0  0.20475552733E+02  0.11430931221E+02  0.15180437156E+02  0.27934926536E+02  0.00000000000E+00 0. -1.
        -12    1    5    5    0    0 -0.72258045013E+02  0.15366813994E+02  0.30744320464E+01  0.73937921082E+02  0.00000000000E+00 0.  1.
          5    1    4    4  501    0 -0.59786953878E+01 -0.13296300278E+02 -0.32764146086E+03  0.32799227990E+03  0.41800000000E+01 0.  1.
         -5    1    4    4    0  501  0.11864416116E+02  0.34203211522E+02 -0.18858083107E+02  0.41033202978E+02  0.41800000000E+01 0.  1.
</event>
<event>
11    1  0.9238666E-009  0.1845517E+03  0.7561462E-02  0.1066019E+00
         22   -1    0    0    0    0  0.00000000000E+00  0.00000000000E+00  0.13999825658E+04  0.13999825658E+04  0.00000000000E+00 0.  1.
         22   -1    0    0    0    0 -0.00000000000E+00 -0.00000000000E+00 -0.92079369694E+02  0.92079369694E+02  0.00000000000E+00 0.  1.
        -24    2    1    2    0    0 -0.21715604130E+02 -0.40388268156E+02 -0.26961233630E+02  0.93592695014E+02  0.77005874930E+02 0.  0.
         25    2    1    2    0    0 -0.11529821743E+03  0.48636300880E+01  0.25649159607E+03  0.30782095923E+03  0.12509384575E+03 0.  0.
         24    2    1    2    0    0  0.13701382157E+03  0.35524638068E+02  0.10783728337E+04  0.10906482813E+04  0.81184467702E+02 0.  0.
        -11    1    5    5    0    0  0.96360671257E+02  0.36547904658E+02  0.95935738802E+03  0.96487705240E+03  0.00000000000E+00 0.  1.
         12    1    5    5    0    0  0.40653150308E+02 -0.10232665903E+01  0.11901544567E+03  0.12577122888E+03  0.00000000000E+00 0. -1.
         13    1    3    3    0    0 -0.76303397259E+01  0.16146466900E+02  0.13730333811E+02  0.22526707355E+02  0.00000000000E+00 0. -1.
        -14    1    3    3    0    0 -0.14085264404E+02 -0.56534735056E+02 -0.40691567441E+02  0.71065987659E+02  0.00000000000E+00 0.  1.
          5    1    4    4  501    0 -0.32024870359E+02  0.61327074215E+02  0.11165716409E+03  0.13142068728E+03  0.41800000000E+01 0.  1.
         -5    1    4    4    0  501 -0.83273347076E+02 -0.56463444127E+02  0.14483443198E+03  0.17640027195E+03  0.41800000000E+01 0.  1.
</event>
<event>
11    1  0.9238666E-009  0.2254874E+03  0.7561462E-02  0.1037833E+00
         22   -1    0    0    0    0  0.00000000000E+00  0.00000000000E+00  0.19648239074E+03  0.19648239074E+03  0.00000000000E+00 0. -1.
         22   -1    0    0    0    0 -0.00000000000E+00 -0.00000000000E+00 -0.13932049313E+04  0.13932049313E+04  0.00000000000E+00 0.  1.
        -24    2    1    2    0    0 -0.72764106325E+02  0.14059815882E+02 -0.10879759163E+04  0.10930359869E+04  0.74456568632E+02 0.  0.
         25    2    1    2    0    0  0.14396913156E+03  0.15412515440E+03 -0.15665525050E+03  0.29098091017E+03  0.12508936212E+03 0.  0.
         24    2    1    2    0    0 -0.71205025235E+02 -0.16818497028E+03  0.47908626273E+02  0.20567042493E+03  0.81539851439E+02 0.  0.
        -11    1    5    5    0    0 -0.19875064885E+02 -0.90021010598E+02 -0.14392767105E+02  0.93305692743E+02  0.00000000000E+00 0.  1.
         12    1    5    5    0    0 -0.51329960350E+02 -0.78163959684E+02  0.62301393378E+02  0.11236473219E+03  0.00000000000E+00 0. -1.
         13    1    3    3    0    0 -0.38365008008E+02  0.16378566547E+02 -0.19580852211E+03  0.20020266884E+03  0.00000000000E+00 0. -1.
        -14    1    3    3    0    0 -0.34399098316E+02 -0.23187506648E+01 -0.89216739419E+03  0.89283331805E+03  0.00000000000E+00 0.  1.
          5    1    4    4  501    0  0.21124700184E+02  0.76034365106E+02 -0.27097230248E+01  0.79071440064E+02  0.41800000000E+01 0.  1.
         -5    1    4    4    0  501  0.12284443138E+03  0.78090789294E+02 -0.15394552747E+03  0.21190947011E+03  0.41800000000E+01 0.  1.
</event>
<event>
11    1  0.9238666E-009  0.1602296E+03  0.7561462E-02  0.1086862E+00
         22   -1    0    0    0    0  0.00000000000E+00  0.00000000000E+00  0.73251651193E+03  0.73251651193E+03  0.00000000000E+00 0. -1.
         22   -1    0    0    0    0 -0.00000000000E+00 -0.00000000000E+00 -0.56669020381E+03  0.56669020381E+03  0.00000000000E+00 0.  1.
        -24    2    1    2    0    0 -0.78228367911E+02  0.68399688427E+02 -0.41316670720E+03  0.43342565554E+03  0.79704930929E+02 0.  0.
         25    2    1    2    0    0  0.60278949180E+02 -0.60075203132E+02 -0.10019180900E+03  0.18146163736E+03  0.12508935006E+03 0.  0.
         24    2    1    2    0    0  0.17949418730E+02 -0.83244852952E+01  0.67918482432E+03  0.68431942284E+03  0.81299250897E+02 0.  0.
        -11    1    5    5    0    0  0.33438248082E+02  0.28206167310E+02  0.32977171746E+03  0.33266062278E+03  0.00000000000E+00 0.  1.
         12    1    5    5    0    0 -0.15488829351E+02 -0.36530652606E+02  0.34941310686E+03  0.35165880006E+03  0.00000000000E+00 0. -1.
         11    1    3    3    0    0 -0.72211077742E+01 -0.16233397373E+02 -0.94412664940E+02  0.96069864623E+02  0.00000000000E+00 0. -1.
        -12    1    3    3    0    0 -0.71007260136E+02  0.84633085800E+02 -0.31875404226E+03  0.33735579091E+03  0.00000000000E+00 0.  1.
          5    1    4    4  501    0  0.53096055044E+02 -0.43830034775E+02  0.10063438204E+02  0.69706586475E+02  0.41800000000E+01 0.  1.
         -5    1    4    4    0  501  0.71828941363E+01 -0.16245168357E+02 -0.11025524720E+03  0.11175505089E+03  0.41800000000E+01 0.  1.
</event>
<event>
11    1  0.9238666E-009  0.2064110E+03  0.7561462E-02  0.1050080E+00
         22   -1    0    0    0    0  0.00000000000E+00  0.00000000000E+00  0.13185377893E+04  0.13185377893E+04  0.00000000000E+00 0. -1.
         22   -1    0    0    0    0 -0.00000000000E+00 -0.00000000000E+00 -0.10134324159E+03  0.10134324159E+03  0.00000000000E+00 0. -1.
        -24    2    1    2    0    0  0.30270886603E+01  0.34632990692E+02 -0.41337515882E+02  0.97600047195E+02  0.81291891866E+02 0.  0.
         25    2    1    2    0    0 -0.90383477267E+02 -0.16128215434E+03  0.57011923906E+03  0.61225764313E+03  0.12506945495E+03 0.  0.
         24    2    1    2    0    0  0.87356388607E+02  0.12664916365E+03  0.68841282458E+03  0.71002334061E+03  0.80930698025E+02 0.  0.
        -13    1    5    5    0    0  0.53730871069E+02  0.13712969406E+02  0.24748642546E+03  0.25362291462E+03  0.00000000000E+00 0.  1.
         14    1    5    5    0    0  0.33625517538E+02  0.11293619424E+03  0.44092639912E+03  0.45640042598E+03  0.00000000000E+00 0. -1.
         11    1    3    3    0    0  0.39132790202E+02  0.53788279686E+01 -0.77269312530E+01  0.40249379199E+02  0.00000000000E+00 0. -1.
        -12    1    3    3    0    0 -0.36105701542E+02  0.29254162723E+02 -0.33610584629E+02  0.57350667996E+02  0.00000000000E+00 0.  1.
          5    1    4    4  501    0 -0.46328838805E+02 -0.17085035955E+03  0.47447273239E+03  0.50643662273E+03  0.41800000000E+01 0. -1.
         -5    1    4    4    0  501 -0.44054638463E+02  0.95682052097E+01  0.95646506670E+02  0.10582102040E+03  0.41800000000E+01 0. -1.
</event>
<event>
11    1  0.9238666E-009  0.1264719E+03  0.7561462E-02  0.1123681E+00
         22   -1    0    0    0    0  0.00000000000E+00  0.00000000000E+00  0.54079501682E+03  0.54079501682E+03  0.00000000000E+00 0.  1.
         22   -1    0    0    0    0 -0.00000000000E+00 -0.00000000000E+00 -0.66886635247E+03  0.66886635247E+03  0.00000000000E+00 0.  1.
        -24    2    1    2    0    0  0.98080029272E+01 -0.15402074564E+02 -0.61298267354E+03  0.61863732997E+03  0.81430750687E+02 0.  0.
         25    2    1    2    0    0 -0.15664757012E+02  0.26744274413E+02  0.34477472617E+02  0.13340075002E+03  0.12508566329E+03 0.  0.
         24    2    1    2    0    0  0.58567540843E+01 -0.11342199848E+02  0.45043386527E+03  0.45762328931E+03  0.79783838402E+02 0.  0.
        -11    1    5    5    0    0 -0.84597640461E+01 -0.34420950944E+02  0.38700295217E+03  0.38862276627E+03  0.00000000000E+00 0.  1.
         12    1    5    5    0    0  0.14316518130E+02  0.23078751095E+02  0.63430913093E+02  0.69000523036E+02  0.00000000000E+00 0. -1.
         13    1    3    3    0    0  0.84985840718E+00 -0.48829002285E+02 -0.36347391979E+03  0.36674007702E+03  0.00000000000E+00 0. -1.
        -14    1    3    3    0    0  0.89581445200E+01  0.33426927721E+02 -0.24950875374E+03  0.25189725295E+03  0.00000000000E+00 0.  1.
          5    1    4    4  501    0  0.11614994490E+02  0.26481524428E+02 -0.42528808962E+02  0.51597976944E+02  0.41800000000E+01 0.  1.
         -5    1    4    4    0  501 -0.27279751501E+02  0.26274998474E+00  0.77006281579E+02  0.81802773071E+02  0.41800000000E+01 0.  1.
</event>
<event>
11    1  0.9238666E-009  0.1678625E+03  0.7561462E-02  0.1079907E+00
         22   -1    0    0    0    0  0.00000000000E+00  0.00000000000E+00  0.11637952964E+04  0.11637952964E+04  0.00000000000E+00 0. -1.
         22   -1    0    0    0    0 -0.00000000000E+00 -0.00000000000E+00 -0.14916716156E+04  0.14916716156E+04  0.00000000000E+00 0. -1.
         24    2    1    2    0    0 -0.10554139987E+03 -0.43692408511E+02 -0.14509478118E+04  0.14582143578E+04  0.89953026224E+02 0.  0.
         25    2    1    2    0    0  0.38182766810E+02 -0.12862114129E+02  0.96091025445E+02  0.16280046880E+03  0.12508856786E+03 0.  0.
        -24    2    1    2    0    0  0.67358633060E+02  0.56554522641E+02  0.10269804672E+04  0.10344520855E+04  0.87559338063E+02 0.  0.
        -13    1    3    3    0    0 -0.35771287145E+02 -0.28604438591E+02 -0.19773728566E+03  0.20297249329E+03  0.00000000000E+00 0.  1.
         14    1    3    3    0    0 -0.69770112726E+02 -0.15087969920E+02 -0.12532105262E+04  0.12552418645E+04  0.00000000000E+00 0. -1.
         13    1    5    5    0    0  0.34918839025E+02  0.63464192877E+02  0.90948194761E+03  0.91236201265E+03  0.00000000000E+00 0. -1.
        -14    1    5    5    0    0  0.32439794035E+02 -0.69096702366E+01  0.11749851955E+03  0.12209007280E+03  0.00000000000E+00 0.  1.
          5    1    4    4  501    0 -0.36452590928E+01 -0.63744217969E+02  0.35334552607E+02  0.73093202463E+02  0.41800000000E+01 0. -1.
         -5    1    4    4    0  501  0.41828025903E+02  0.50882103840E+02  0.60756472838E+02  0.89707266338E+02  0.41800000000E+01 0. -1.
</event>
<event>
11    1  0.9613881E-009  0.1619702E+03  0.7561462E-02  0.1085239E+00
         22   -1    0    0    0    0  0.00000000000E+00  0.00000000000E+00  0.26456034182E+03  0.26456034182E+03  0.00000000000E+00 0.  1.
         22   -1    0    0    0    0 -0.00000000000E+00 -0.00000000000E+00 -0.80914788953E+03  0.80914788953E+03  0.00000000000E+00 0.  1.
        -24    2    1    2    0    0 -0.81718173962E+02  0.75007336941E+02 -0.60791006967E+03  0.62335906355E+03  0.81962849831E+02 0.  0.
         25    2    1    2    0    0  0.10398234733E+03  0.33335745531E+02 -0.13165151110E+03  0.21190471836E+03  0.12509152172E+03 0.  0.
         24    2    1    2    0    0 -0.22264173365E+02 -0.10834308247E+03  0.19497403305E+03  0.23844444944E+03  0.81283239155E+02 0.  0.
        -13    1    5    5    0    0 -0.44334864178E+02 -0.78282131785E+02  0.17343004798E+03  0.19537567372E+03  0.00000000000E+00 0.  1.
         14    1    5    5    0    0  0.22070690813E+02 -0.30060950687E+02  0.21543985073E+02  0.43068775720E+02  0.00000000000E+00 0. -1.
         11    1    3    3    0    0 -0.33132219909E+02  0.14262473417E+02 -0.60402438992E+02  0.70353512920E+02  0.00000000000E+00 0. -1.
        -12    1    3    3    0    0 -0.48585954053E+02  0.60744863524E+02 -0.54750763068E+03  0.55300555063E+03  0.00000000000E+00 0.  1.
          5    1    4    4  501    0  0.12855050004E+03  0.47783181545E+02 -0.11038712915E+03  0.17610012544E+03  0.41800000000E+01 0. -1.
         -5    1    4    4    0  501 -0.24568152709E+02 -0.14447436014E+02 -0.21264381946E+02  0.35804592924E+02  0.41800000000E+01 0. -1.
</event>
<event>
11    1  0.9238666E-009  0.1903091E+03  0.7561462E-02  0.1061596E+00
         22   -1    0    0    0    0  0.00000000000E+00  0.00000000000E+00  0.56682847405E+03  0.56682847405E+03  0.00000000000E+00 0.  1.
         22   -1    0    0    0    0 -0.00000000000E+00 -0.00000000000E+00 -0.26448928603E+04  0.26448928603E+04  0.00000000000E+00 0. -1.
         24    2    1    2    0    0 -0.39330025880E+02  0.56460510001E+02 -0.23253849094E+04  0.23279406183E+04  0.84604405442E+02 0.  0.
         25    2    1    2    0    0 -0.10062570703E+03 -0.91864995255E+02 -0.27759307557E+03  0.33357194867E+03  0.12509044355E+03 0.  0.
        -24    2    1    2    0    0  0.13995573291E+03  0.35404485254E+02  0.52491359868E+03  0.55020876740E+03  0.79713969265E+02 0.  0.
        -13    1    3    3    0    0 -0.74197015854E+01 -0.22545532957E+02 -0.46460662878E+03  0.46521250256E+03  0.00000000000E+00 0.  1.
         14    1    3    3    0    0 -0.31910324295E+02  0.79006042958E+02 -0.18607782806E+04  0.18627281157E+04  0.00000000000E+00 0. -1.
         11    1    5    5    0    0  0.13575029612E+02 -0.16427511108E+02  0.30053881630E+02  0.36842643108E+02  0.00000000000E+00 0. -1.
        -12    1    5    5    0    0  0.12638070330E+03  0.51831996363E+02  0.49485971705E+03  0.51336612429E+03  0.00000000000E+00 0.  1.
          5    1    4    4  501    0 -0.85109024637E+01  0.30315706362E+02 -0.43099546043E+02  0.53539898973E+02  0.41800000000E+01 0.  1.
         -5    1    4    4    0  501 -0.92114804571E+02 -0.12218070162E+03 -0.23449352952E+03  0.28003204970E+03  0.41800000000E+01 0.  1.
</event>
<event>
11    1  0.9238666E-009  0.1314590E+03  0.7561462E-02  0.1117489E+00
         22   -1    0    0    0    0  0.00000000000E+00  0.00000000000E+00  0.34995597440E+04  0.34995597440E+04  0.00000000000E+00 0. -1.
         22   -1    0    0    0    0 -0.00000000000E+00 -0.00000000000E+00 -0.26636721675E+03  0.26636721675E+03  0.00000000000E+00 0.  1.
        -24    2    1    2    0    0  0.31495173331E+02 -0.15951534676E+02 -0.22220654683E+03  0.23927726252E+03  0.81433786010E+02 0.  0.
         25    2    1    2    0    0 -0.69868587400E+02  0.26659864117E+02  0.11654995580E+03  0.18661236803E+03  0.12509162979E+03 0.  0.
         24    2    1    2    0    0  0.38373414068E+02 -0.10708329442E+02  0.33388491183E+04  0.33400373302E+04  0.79679013956E+02 0.  0.
        -13    1    5    5    0    0 -0.16587129505E+02 -0.63037347969E+01  0.22450023798E+03  0.22520041472E+03  0.00000000000E+00 0.  1.
         14    1    5    5    0    0  0.54960543573E+02 -0.44045946448E+01  0.31143488803E+04  0.31148369155E+04  0.00000000000E+00 0. -1.
         11    1    3    3    0    0  0.84927710220E+01 -0.67880205861E+01  0.41004757874E+01  0.11619736864E+02  0.00000000000E+00 0. -1.
        -12    1    3    3    0    0  0.23002402310E+02 -0.91635140896E+01 -0.22630702262E+03  0.22765752566E+03  0.00000000000E+00 0.  1.
          5    1    4    4  501    0 -0.75752976629E+02 -0.34768376239E+02  0.59771323284E+02  0.10265201869E+03  0.41800000000E+01 0. -1.
         -5    1    4    4    0  501  0.58843892295E+01  0.61428240357E+02  0.56778632518E+02  0.83960349335E+02  0.41800000000E+01 0. -1.
</event>
<event>
11    1  0.9238666E-009  0.2311211E+03  0.7561462E-02  0.1034466E+00
         22   -1    0    0    0    0  0.00000000000E+00  0.00000000000E+00  0.19768321160E+04  0.19768321160E+04  0.00000000000E+00 0. -1.
         22   -1    0    0    0    0 -0.00000000000E+00 -0.00000000000E+00 -0.63560801393E+02  0.63560801393E+02  0.00000000000E+00 0. -1.
        -24    2    1    2    0    0  0.55751516775E+02  0.27508697795E+02  0.41638920532E+02  0.11018371680E+03  0.80880724945E+02 0.  0.
         25    2    1    2    0    0 -0.23199101792E+03 -0.20121918141E+01  0.84107328434E+03  0.88140574918E+03  0.12509174129E+03 0.  0.
         24    2    1    2    0    0  0.17623950115E+03 -0.25496505981E+02  0.10305591098E+04  0.10488034515E+04  0.78906067342E+02 0.  0.
        -13    1    5    5    0    0  0.15754820408E+03 -0.40769581033E+02  0.76323102374E+03  0.78038784649E+03  0.00000000000E+00 0.  1.
         14    1    5    5    0    0  0.18691297072E+02  0.15273075052E+02  0.26732808603E+03  0.26841560497E+03  0.00000000000E+00 0. -1.
         11    1    3    3    0    0  0.50067126252E+02  0.39416992479E+02 -0.28440701971E+01  0.63784834894E+02  0.00000000000E+00 0. -1.
        -12    1    3    3    0    0  0.56843905230E+01 -0.11908294684E+02  0.44482990729E+02  0.46398881906E+02  0.00000000000E+00 0.  1.
          5    1    4    4  501    0 -0.62402105326E+02 -0.42439723457E+02  0.14146802486E+03  0.16039272843E+03  0.41800000000E+01 0.  1.
         -5    1    4    4    0  501 -0.16958891260E+03  0.40427531643E+02  0.69960525949E+03  0.72101302075E+03  0.41800000000E+01 0.  1.
</event>
<event>
11    1  0.9238666E-009  0.1397001E+03  0.7561462E-02  0.1107894E+00
         22   -1    0    0    0    0  0.00000000000E+00  0.00000000000E+00  0.10629956212E+03  0.10629956212E+03  0.00000000000E+00 0.  1.
         22   -1    0    0    0    0 -0.00000000000E+00 -0.00000000000E+00 -0.59248279186E+03  0.59248279186E+03  0.00000000000E+00 0. -1.
        -24    2    1    2    0    0  0.21611055967E+02  0.20014690582E+02 -0.41120610283E+03  0.42002568808E+03  0.80395858506E+02 0.  0.
         25    2    1    2    0    0 -0.39274250573E+02 -0.73341122956E+02 -0.94759116709E+02  0.17761949559E+03  0.12509199790E+03 0.  0.
         24    2    1    2    0    0  0.17663194606E+02  0.53326432374E+02  0.19781989805E+02  0.10113717031E+03  0.81741686209E+02 0.  0.
        -13    1    5    5    0    0  0.31923803408E+02  0.13605157448E+02  0.41152907529E+02  0.53831137191E+02  0.00000000000E+00 0.  1.
         14    1    5    5    0    0 -0.14260608802E+02  0.39721274926E+02 -0.21370917723E+02  0.47306033120E+02  0.00000000000E+00 0. -1.
         11    1    3    3    0    0  0.12652640484E+02 -0.31131573991E+02 -0.15212236160E+03  0.15578984918E+03  0.00000000000E+00 0. -1.
        -12    1    3    3    0    0  0.89584154833E+01  0.51146264573E+02 -0.25908374124E+03  0.26423583890E+03  0.00000000000E+00 0.  1.
          5    1    4    4  501    0 -0.72200210871E+02 -0.84969950987E+02 -0.54552376571E+02  0.12420224318E+03  0.41800000000E+01 0.  1.
         -5    1    4    4    0  501  0.32925960297E+02  0.11628828031E+02 -0.40206740138E+02  0.53417252413E+02  0.41800000000E+01 0.  1.
</event>
<event>
11    1  0.9238666E-009  0.1951787E+03  0.7561462E-02  0.1057986E+00
         22   -1    0    0    0    0  0.00000000000E+00  0.00000000000E+00  0.14395582514E+04  0.14395582514E+04  0.00000000000E+00 0. -1.
         22   -1    0    0    0    0 -0.00000000000E+00 -0.00000000000E+00 -0.54836989330E+03  0.54836989330E+03  0.00000000000E+00 0. -1.
        -24    2    1    2    0    0  0.14853303245E+03  0.53829809918E+01 -0.46649984807E+03  0.49630595529E+03  0.81280100873E+02 0.  0.
         25    2    1    2    0    0 -0.16214745319E+03 -0.12336051877E+02  0.94741453269E+02  0.22599043504E+03  0.12510699025E+03 0.  0.
         24    2    1    2    0    0  0.13614420739E+02  0.69530708850E+01  0.12629467529E+04  0.12656317543E+04  0.80966285255E+02 0.  0.
        -13    1    5    5    0    0  0.17044838462E+02 -0.10121809714E+02  0.75556328715E+02  0.78113611868E+02  0.00000000000E+00 0.  1.
         14    1    5    5    0    0 -0.34304177236E+01  0.17074880599E+02  0.11873904241E+04  0.11875181425E+04  0.00000000000E+00 0. -1.
         11    1    3    3    0    0  0.99884483217E+02 -0.30856717652E+02 -0.34519930638E+03  0.36068214280E+03  0.00000000000E+00 0. -1.
        -12    1    3    3    0    0  0.48648549236E+02  0.36239698644E+02 -0.12130054169E+03  0.13562381249E+03  0.00000000000E+00 0.  1.
          5    1    4    4  501    0  0.96470007832E+01 -0.30044824498E+02  0.87250067602E+01  0.33005366930E+02  0.41800000000E+01 0. -1.
         -5    1    4    4    0  501 -0.17179445398E+03  0.17708772621E+02  0.86016446509E+02  0.19298506811E+03  0.41800000000E+01 0. -1.
</event>
<event>
11    1  0.9238666E-009  0.2289979E+03  0.7561462E-02  0.1035723E+00
         22   -1    0    0    0    0  0.00000000000E+00  0.00000000000E+00  0.13723071022E+03  0.13723071022E+03  0.00000000000E+00 0. -1.
         22   -1    0    0    0    0 -0.00000000000E+00 -0.00000000000E+00 -0.10848251366E+04  0.10848251366E+04  0.00000000000E+00 0.  1.
        -24    2    1    2    0    0 -0.85382935874E+02  0.10083829353E+03 -0.66370983885E+03  0.68147540103E+03  0.80245653156E+02 0.  0.
         25    2    1    2    0    0 -0.13375938703E+03 -0.90789640594E+01 -0.21254008511E+03  0.28070424038E+03  0.12509029372E+03 0.  0.
         24    2    1    2    0    0  0.21914232290E+03 -0.91759329470E+02 -0.71344502451E+02  0.25987620543E+03  0.77475621242E+02 0.  0.
        -13    1    5    5    0    0  0.22086740755E+02 -0.40400777914E+02 -0.90727865819E+01  0.46929334425E+02  0.00000000000E+00 0.  1.
         14    1    5    5    0    0  0.19705558215E+03 -0.51358551556E+02 -0.62271715869E+02  0.21294687101E+03  0.00000000000E+00 0. -1.
         13    1    3    3    0    0 -0.58353688391E+02  0.28769657316E+02 -0.44249313253E+03  0.44725050975E+03  0.00000000000E+00 0. -1.
        -14    1    3    3    0    0 -0.27029247484E+02  0.72068636213E+02 -0.22121670631E+03  0.23422489129E+03  0.00000000000E+00 0.  1.
          5    1    4    4  501    0 -0.61158818917E+02  0.51107523662E+02 -0.54585861230E+02  0.96692650974E+02  0.41800000000E+01 0.  1.
         -5    1    4    4    0  501 -0.72600568113E+02 -0.60186487721E+02 -0.15795422388E+03  0.18401158940E+03  0.41800000000E+01 0.  1.
</event>
<event>
11    1  0.9238666E-009  0.1565041E+03  0.7561462E-02  0.1090412E+00
         22   -1    0    0    0    0  0.00000000000E+00  0.00000000000E+00  0.25446928580E+03  0.25446928580E+03  0.00000000000E+00 0.  1.
         22   -1    0    0    0    0 -0.00000000000E+00 -0.00000000000E+00 -0.79971041931E+03  0.79971041931E+03  0.00000000000E+00 0.  1.
        -24    2    1    2    0    0  0.13632553774E+01  0.11590838958E+02 -0.69608818601E+03  0.70076677895E+03  0.79994435833E+02 0.  0.
         25    2    1    2    0    0  0.36899175828E+02 -0.95129092510E+02  0.27698115001E+01  0.16145066162E+03  0.12509017093E+03 0.  0.
         24    2    1    2    0    0 -0.38262431206E+02  0.83538253551E+02  0.14807724101E+03  0.19196226454E+03  0.80498374237E+02 0.  0.
        -11    1    5    5    0    0 -0.49363211311E+02  0.51144550275E+02  0.13964764453E+03  0.15669702063E+03  0.00000000000E+00 0.  1.
         12    1    5    5    0    0  0.11100780105E+02  0.32393703276E+02  0.84295964805E+01  0.35265243906E+02  0.00000000000E+00 0. -1.
         11    1    3    3    0    0  0.30560089198E+02 -0.10200850109E+02 -0.51741140257E+03  0.51841347968E+03  0.00000000000E+00 0. -1.
        -12    1    3    3    0    0 -0.29196833821E+02  0.21791689067E+02 -0.17867678344E+03  0.18235329928E+03  0.00000000000E+00 0.  1.
          5    1    4    4  501    0  0.14945374233E+02 -0.80303239571E+02 -0.54451114765E+02  0.98256657768E+02  0.41800000000E+01 0.  1.
         -5    1    4    4    0  501  0.21953801595E+02 -0.14825852939E+02  0.57220926266E+02  0.63194003850E+02  0.41800000000E+01 0.  1.
</event>
<event>
11    1  0.9238666E-009  0.1378877E+03  0.7561462E-02  0.1109940E+00
         22   -1    0    0    0    0  0.00000000000E+00  0.00000000000E+00  0.32099116972E+03  0.32099116972E+03  0.00000000000E+00 0.  1.
         22   -1    0    0    0    0 -0.00000000000E+00 -0.00000000000E+00 -0.79353296562E+03  0.79353296562E+03  0.00000000000E+00 0.  1.
         24    2    1    2    0    0  0.45719223271E+01 -0.57062326484E+02 -0.73597245588E+03  0.74239599923E+03  0.78862870115E+02 0.  0.
         25    2    1    2    0    0 -0.40185665249E+02  0.97058645029E+02  0.13595037700E+03  0.21251902346E+03  0.12508621850E+03 0.  0.
        -24    2    1    2    0    0  0.35613742922E+02 -0.39996318545E+02  0.12748028298E+03  0.15960911265E+03  0.79723284619E+02 0.  0.
        -11    1    3    3    0    0  0.97096707498E+01  0.12791947388E+02 -0.33259724673E+03  0.33298474463E+03  0.00000000000E+00 0.  1.
         12    1    3    3    0    0 -0.51377484227E+01 -0.69854273873E+02 -0.40337520915E+03  0.40941125460E+03  0.00000000000E+00 0. -1.
         13    1    5    5    0    0 -0.14400372156E+02  0.11177833885E+02  0.70913965456E+01  0.19560229896E+02  0.00000000000E+00 0. -1.
        -14    1    5    5    0    0  0.50014115078E+02 -0.51174152430E+02  0.12038888644E+03  0.14004888276E+03  0.00000000000E+00 0.  1.
          5    1    4    4  501    0  0.35465537664E+01 -0.29032580913E+02  0.20024616934E+02  0.35692106711E+02  0.41800000000E+01 0. -1.
         -5    1    4    4    0  501 -0.43732219015E+02  0.12609122594E+03  0.11592576006E+03  0.17682691675E+03  0.41800000000E+01 0. -1.
</event>
<event>
11    1  0.9238666E-009  0.1540001E+03  0.7561462E-02  0.1092860E+00
         22   -1    0    0    0    0  0.00000000000E+00  0.00000000000E+00  0.20223776640E+04  0.20223776640E+04  0.00000000000E+00 0. -1.
         22   -1    0    0    0    0 -0.00000000000E+00 -0.00000000000E+00 -0.13101625661E+03  0.13101625661E+03  0.00000000000E+00 0. -1.
         24    2    1    2    0    0  0.75933380749E+02 -0.34742043921E+02 -0.15208365172E+02  0.11638248529E+03  0.79628516140E+02 0.  0.
         25    2    1    2    0    0 -0.11283620273E+03 -0.10958960589E+02  0.47589584277E+02  0.17540202768E+03  0.12509594446E+03 0.  0.
        -24    2    1    2    0    0  0.36902821985E+02  0.45701004510E+02  0.18589801883E+04  0.18616094076E+04  0.79572897959E+02 0.  0.
        -11    1    3    3    0    0  0.65189855635E+02  0.99483382089E+01  0.50808470458E+01  0.66140016008E+02  0.00000000000E+00 0.  1.
         12    1    3    3    0    0  0.10743525114E+02 -0.44690382130E+02 -0.20289212218E+02  0.50242469279E+02  0.00000000000E+00 0. -1.
         13    1    5    5    0    0  0.12548926621E+02  0.20463667339E+02  0.16091965280E+04  0.16093755630E+04  0.00000000000E+00 0. -1.
        -14    1    5    5    0    0  0.24353895364E+02  0.25237337170E+02  0.24978366030E+03  0.25223384460E+03  0.00000000000E+00 0.  1.
          5    1    4    4  501    0 -0.26797756020E+02  0.46603161313E+02  0.47409898380E+02  0.71799340084E+02  0.41800000000E+01 0.  1.
         -5    1    4    4    0  501 -0.86038446714E+02 -0.57562121902E+02  0.17968589672E+00  0.10360268760E+03  0.41800000000E+01 0.  1.
</event>
<event>
11    1  0.9238666E-009  0.2610744E+03  0.7561462E-02  0.1018160E+00
         22   -1    0    0    0    0  0.00000000000E+00  0.00000000000E+00  0.27217577573E+03  0.27217577573E+03  0.00000000000E+00 0. -1.
         22   -1    0    0    0    0 -0.00000000000E+00 -0.00000000000E+00 -0.14969026563E+04  0.14969026563E+04  0.00000000000E+00 0. -1.
         24    2    1    2    0    0  0.90753640456E+01 -0.22986215617E+03 -0.12678398312E+04  0.12910325610E+04  0.80176449087E+02 0.  0.
         25    2    1    2    0    0  0.49952008826E+02  0.22397761880E+03 -0.11997956719E+03  0.28758339015E+03  0.12509169772E+03 0.  0.
        -24    2    1    2    0    0 -0.59027372872E+02  0.58845373657E+01  0.16309251779E+03  0.19046248087E+03  0.78472471162E+02 0.  0.
        -11    1    3    3    0    0 -0.14976921910E+02 -0.65146235324E+01 -0.48594360927E+02  0.51265587128E+02  0.00000000000E+00 0.  1.
         12    1    3    3    0    0  0.24052285955E+02 -0.22334753264E+03 -0.12192454702E+04  0.12397669739E+04  0.00000000000E+00 0. -1.
         13    1    5    5    0    0 -0.53003599503E+02  0.32219407432E+02  0.14564439039E+03  0.15830274864E+03  0.00000000000E+00 0. -1.
        -14    1    5    5    0    0 -0.60237733686E+01 -0.26334870066E+02  0.17448127403E+02  0.32159732226E+02  0.00000000000E+00 0.  1.
          5    1    4    4  501    0 -0.90420874483E+01  0.19193855168E+03 -0.10366064161E+03  0.21836933848E+03  0.41800000000E+01 0.  1.
         -5    1    4    4    0  501  0.58994096275E+02  0.32039067123E+02 -0.16318925576E+02  0.69214051675E+02  0.41800000000E+01 0.  1.
</event>
<event>
11    1  0.9238666E-009  0.2340205E+03  0.7561462E-02  0.1032774E+00
         22   -1    0    0    0    0  0.00000000000E+00  0.00000000000E+00  0.38224715556E+04  0.38224715556E+04  0.00000000000E+00 0. -1.
         22   -1    0    0    0    0 -0.00000000000E+00 -0.00000000000E+00 -0.30647728480E+03  0.30647728480E+03  0.00000000000E+00 0.  1.
        -24    2    1    2    0    0  0.80887285955E+02  0.62160098657E+02 -0.26379019752E+03  0.29170827261E+03  0.71427005438E+02 0.  0.
         25    2    1    2    0    0 -0.17263051797E+03 -0.22389303078E+03  0.92566191223E+03  0.97592702062E+03  0.12511670095E+03 0.  0.
         24    2    1    2    0    0  0.91743232013E+02  0.16173293212E+03  0.28541225561E+04  0.28613135472E+04  0.80779255777E+02 0.  0.
        -11    1    5    5    0    0  0.15981979450E+02  0.12552231734E+02  0.84240485911E+03  0.84264994442E+03  0.00000000000E+00 0.  1.
         12    1    5    5    0    0  0.75761252563E+02  0.14918070039E+03  0.20117176970E+04  0.20186636027E+04  0.00000000000E+00 0. -1.
         13    1    3    3    0    0  0.67507249985E+01  0.58341037425E-01  0.33967772810E+01  0.75573664447E+01  0.00000000000E+00 0. -1.
        -14    1    3    3    0    0  0.74136560957E+02  0.62101757620E+02 -0.26718697480E+03  0.28415090616E+03  0.00000000000E+00 0.  1.
          5    1    4    4  501    0 -0.48539260999E+02  0.29378037367E+01  0.11228506166E+03  0.12243405581E+03  0.41800000000E+01 0.  1.
         -5    1    4    4    0  501 -0.12409125697E+03 -0.22683083451E+03  0.81337685056E+03  0.85349296481E+03  0.41800000000E+01 0.  1.
</event>
<event>
11    1  0.9238666E-009  0.1767205E+03  0.7561462E-02  0.1072327E+00
         22   -1    0    0    0    0  0.00000000000E+00  0.00000000000E+00  0.29486332117E+03  0.29486332117E+03  0.00000000000E+00 0. -1.
         22   -1    0    0    0    0 -0.00000000000E+00 -0.00000000000E+00 -0.15381866461E+04  0.15381866461E+04  0.00000000000E+00 0. -1.
         24    2    1    2    0    0 -0.36739465528E+01  0.12491566183E+03 -0.14640102338E+04  0.14715017116E+04  0.79836720659E+02 0.  0.
         25    2    1    2    0    0 -0.55483313248E+02 -0.12034038249E+03  0.10595724464E+03  0.21079474874E+03  0.12508909903E+03 0.  0.
        -24    2    1    2    0    0  0.59157259801E+02 -0.45752793405E+01  0.11472966421E+03  0.15075350701E+03  0.77738082418E+02 0.  0.
        -11    1    3    3    0    0  0.27883955186E+02  0.26300390021E+02 -0.23169127321E+03  0.23484052367E+03  0.00000000000E+00 0.  1.
         12    1    3    3    0    0 -0.31557901739E+02  0.98615271807E+02 -0.12323189606E+04  0.12366611879E+04  0.00000000000E+00 0. -1.
         13    1    5    5    0    0  0.75206643587E+02  0.10945425136E+00  0.69002314577E+02  0.10206552129E+03  0.00000000000E+00 0. -1.
        -14    1    5    5    0    0 -0.16049383787E+02 -0.46847335918E+01  0.45727349632E+02  0.48687985717E+02  0.00000000000E+00 0.  1.
          5    1    4    4  501    0 -0.98334554105E+01 -0.57043290834E+02 -0.20993932645E+02  0.61715893272E+02  0.41800000000E+01 0. -1.
         -5    1    4    4    0  501 -0.45649857838E+02 -0.63297091654E+02  0.12695117729E+03  0.14907885546E+03  0.41800000000E+01 0. -1.
</event>
<event>
11    1  0.9238666E-009  0.1504358E+03  0.7561462E-02  0.1096434E+00
         22   -1    0    0    0    0  0.00000000000E+00  0.00000000000E+00  0.17327778717E+03  0.17327778717E+03  0.00000000000E+00 0.  1.
         22   -1    0    0    0    0 -0.00000000000E+00 -0.00000000000E+00 -0.49613210180E+03  0.49613210180E+03  0.00000000000E+00 0.  1.
        -24    2    1    2    0    0 -0.36323640433E+02 -0.77417300030E+02 -0.18191838623E+03  0.21622732315E+03  0.79668756916E+02 0.  0.
         25    2    1    2    0    0  0.71934786194E+02  0.50123251584E+02 -0.26007598943E+03  0.30161901860E+03  0.12509020063E+03 0.  0.
         24    2    1    2    0    0 -0.35611145760E+02  0.27294048446E+02  0.11914006103E+03  0.15156354722E+03  0.82243759171E+02 0.  0.
        -13    1    5    5    0    0 -0.57387621273E+02  0.47314820862E+01  0.52536307372E+02  0.77947351401E+02  0.00000000000E+00 0.  1.
         14    1    5    5    0    0  0.21776475513E+02  0.22562566360E+02  0.66603753654E+02  0.73616195822E+02  0.00000000000E+00 0. -1.
         13    1    3    3    0    0 -0.13978206485E+01 -0.76851377923E+00  0.81639576409E+01  0.83183363936E+01  0.00000000000E+00 0. -1.
        -14    1    3    3    0    0 -0.34925819785E+02 -0.76648786250E+02 -0.19008234387E+03  0.20790898675E+03  0.00000000000E+00 0.  1.
          5    1    4    4  501    0  0.46158941433E+02 -0.11553088864E+02 -0.18989906413E+02  0.51402438484E+02  0.41800000000E+01 0.  1.
         -5    1    4    4    0  501  0.25775844761E+02  0.61676340448E+02 -0.24108608301E+03  0.25021658012E+03  0.41800000000E+01 0.  1.
</event>
<event>
11    1  0.9238666E-009  0.1843092E+03  0.7561462E-02  0.1066210E+00
         22   -1    0    0    0    0  0.00000000000E+00  0.00000000000E+00  0.70181290826E+03  0.70181290826E+03  0.00000000000E+00 0.  1.
         22   -1    0    0    0    0 -0.00000000000E+00 -0.00000000000E+00 -0.94729954956E+02  0.94729954956E+02  0.00000000000E+00 0. -1.
         24    2    1    2    0    0  0.80408769698E+02  0.15629597295E+02  0.15488501621E+03  0.19358143066E+03  0.82307639337E+02 0.  0.
         25    2    1    2    0    0 -0.13278843130E+03  0.74962633924E+02  0.88437724867E+02  0.21614788075E+03  0.12508601520E+03 0.  0.
        -24    2    1    2    0    0  0.52379661606E+02 -0.90592231219E+02  0.36376021223E+03  0.38681355181E+03  0.79703516589E+02 0.  0.
        -13    1    3    3    0    0  0.43559454004E+02  0.46322931220E+02  0.11411923983E+03  0.13063858882E+03  0.00000000000E+00 0.  1.
         14    1    3    3    0    0  0.36849315695E+02 -0.30693333925E+02  0.40765776382E+02  0.62942841838E+02  0.00000000000E+00 0. -1.
         13    1    5    5    0    0 -0.74684980100E+01 -0.46787027720E+02  0.22005871849E+03  0.22510140828E+03  0.00000000000E+00 0. -1.
        -14    1    5    5    0    0  0.59848159616E+02 -0.43805203500E+02  0.14370149373E+03  0.16171214353E+03  0.00000000000E+00 0.  1.
          5    1    4    4  501    0 -0.12477448615E+03  0.10667714976E+03  0.75185798002E+02  0.18060748405E+03  0.41800000000E+01 0.  1.
         -5    1    4    4    0  501 -0.80139451525E+01 -0.31714515835E+02  0.13251926866E+02  0.35540396695E+02  0.41800000000E+01 0.  1.
</event>
<event>
11    1  0.9238666E-009  0.1438204E+03  0.7561462E-02  0.1103366E+00
         22   -1    0    0    0    0  0.00000000000E+00  0.00000000000E+00  0.10639323608E+03  0.10639323608E+03  0.00000000000E+00 0.  1.
         22   -1    0    0    0    0 -0.00000000000E+00 -0.00000000000E+00 -0.73710016572E+03  0.73710016572E+03  0.00000000000E+00 0.  1.
        -24    2    1    2    0    0  0.66038378156E+02  0.22192011789E+02 -0.53070149123E+03  0.54124126459E+03  0.80277524424E+02 0.  0.
         25    2    1    2    0    0 -0.65816876162E+02 -0.83972014690E+02 -0.49949232553E+01  0.16448719331E+03  0.12509167464E+03 0.  0.
         24    2    1    2    0    0 -0.22150199432E+00  0.61780002901E+02 -0.95010515161E+02  0.13776494390E+03  0.78328564104E+02 0.  0.
        -13    1    5    5    0    0  0.33080773446E+02  0.25601261575E+02 -0.16169769660E+02  0.44846667846E+02  0.00000000000E+00 0.  1.
         14    1    5    5    0    0 -0.33302275441E+02  0.36178741326E+02 -0.78840745501E+02  0.92918276053E+02  0.00000000000E+00 0. -1.
         11    1    3    3    0    0  0.22779110197E+02 -0.30172001498E+02 -0.21729748794E+03  0.22056163719E+03  0.00000000000E+00 0. -1.
        -12    1    3    3    0    0  0.43259267959E+02  0.52364013287E+02 -0.31340400329E+03  0.32067962740E+03  0.00000000000E+00 0.  1.
          5    1    4    4  501    0 -0.50599725572E+02  0.12240445989E+02 -0.34535042544E+02  0.62612317554E+02  0.41800000000E+01 0. -1.
         -5    1    4    4    0  501 -0.15217150590E+02 -0.96212460679E+02  0.29540119289E+02  0.10187487575E+03  0.41800000000E+01 0. -1.
</event>
<event>
11    1  0.9238666E-009  0.1317049E+03  0.7561462E-02  0.1117192E+00
         22   -1    0    0    0    0  0.00000000000E+00  0.00000000000E+00  0.40471427004E+03  0.40471427004E+03  0.00000000000E+00 0. -1.
         22   -1    0    0    0    0 -0.00000000000E+00 -0.00000000000E+00 -0.62391963665E+03  0.62391963665E+03  0.00000000000E+00 0. -1.
        -24    2    1    2    0    0  0.81838128360E+01 -0.21586806317E+02 -0.58144253448E+03  0.58725745194E+03  0.79138669161E+02 0.  0.
         25    2    1    2    0    0 -0.28096087544E+02 -0.17800481781E+02  0.99801648079E+02  0.16344317601E+03  0.12508819105E+03 0.  0.
         24    2    1    2    0    0  0.19912274708E+02  0.39387288098E+02  0.26243551978E+03  0.27793327874E+03  0.80166378475E+02 0.  0.
        -11    1    5    5    0    0  0.20240563178E+02  0.52361670018E+02  0.97641512403E+02  0.11262899196E+03  0.00000000000E+00 0.  1.
         12    1    5    5    0    0 -0.32828847040E+00 -0.12974381920E+02  0.16479400738E+03  0.16530428678E+03  0.00000000000E+00 0. -1.
         11    1    3    3    0    0 -0.20600462376E+02 -0.19919207455E+02 -0.50073628317E+03  0.50155555939E+03  0.00000000000E+00 0. -1.
        -12    1    3    3    0    0  0.28784275212E+02 -0.16675988616E+01 -0.80706251309E+02  0.85701892545E+02  0.00000000000E+00 0.  1.
          5    1    4    4  501    0  0.48610794940E+02 -0.15634194645E+02  0.28590541856E+02  0.58671363632E+02  0.41800000000E+01 0. -1.
         -5    1    4    4    0  501 -0.76706882483E+02 -0.21662871358E+01  0.71211106224E+02  0.10477181238E+03  0.41800000000E+01 0. -1.
</event>
<event>
11    1  0.9238666E-009  0.1300303E+03  0.7561462E-02  0.1119232E+00
         22   -1    0    0    0    0  0.00000000000E+00  0.00000000000E+00  0.10720995219E+04  0.10720995219E+04  0.00000000000E+00 0. -1.
         22   -1    0    0    0    0 -0.00000000000E+00 -0.00000000000E+00 -0.75105113720E+03  0.75105113720E+03  0.00000000000E+00 0. -1.
        -24    2    1    2    0    0 -0.93274297139E+01 -0.34117057741E+02 -0.73409208400E+03  0.73896882927E+03  0.77024465417E+02 0.  0.
         25    2    1    2    0    0  0.11661895498E+02  0.59289342720E+02  0.39157239025E+03  0.41548342344E+03  0.12508522045E+03 0.  0.
         24    2    1    2    0    0 -0.23344657846E+01 -0.25172284979E+02  0.66356807840E+03  0.66869840634E+03  0.78713850840E+02 0.  0.
        -11    1    5    5    0    0  0.23805904145E+02 -0.20454981697E+02  0.10729572877E+03  0.11179222138E+03  0.00000000000E+00 0.  1.
         12    1    5    5    0    0 -0.26140369930E+02 -0.47173032825E+01  0.55627234963E+03  0.55690618497E+03  0.00000000000E+00 0. -1.
         11    1    3    3    0    0  0.18507639667E+02 -0.49506183255E+02 -0.44083654470E+03  0.44399352928E+03  0.00000000000E+00 0. -1.
        -12    1    3    3    0    0 -0.27835069381E+02  0.15389125515E+02 -0.29325553930E+03  0.29497529999E+03  0.00000000000E+00 0.  1.
          5    1    4    4  501    0  0.38211611771E+01  0.55429768677E+01  0.34118668638E+03  0.34127870315E+03  0.41800000000E+01 0. -1.
         -5    1    4    4    0  501  0.78407343213E+01  0.53746365852E+02  0.50385703877E+02  0.74204720283E+02  0.41800000000E+01 0. -1.
</event>
<event>
11    1  0.9238666E-009  0.1289727E+03  0.7561462E-02  0.1120538E+00
         22   -1    0    0    0    0  0.00000000000E+00  0.00000000000E+00  0.73422229652E+03  0.73422229652E+03  0.00000000000E+00 0. -1.
         22   -1    0    0    0    0 -0.00000000000E+00 -0.00000000000E+00 -0.11265449629E+03  0.11265449629E+03  0.00000000000E+00 0. -1.
         24    2    1    2    0    0  0.23170665310E+02 -0.20206249881E+02 -0.68241501343E+02  0.10909506437E+03  0.79370386791E+02 0.  0.
         25    2    1    2    0    0 -0.32532642411E+02  0.20017636895E+02  0.18535299971E+03  0.22685780511E+03  0.12509856365E+03 0.  0.
        -24    2    1    2    0    0  0.93619771013E+01  0.18861298577E+00  0.50445630186E+03  0.51092392333E+03  0.80494799499E+02 0.  0.
        -11    1    3    3    0    0  0.29842832770E+02  0.23808381199E+02 -0.18765202251E+02  0.42538999737E+02  0.00000000000E+00 0.  1.
         12    1    3    3    0    0 -0.66721674609E+01 -0.44014631080E+02 -0.49476299092E+02  0.66556064634E+02  0.00000000000E+00 0. -1.
         11    1    5    5    0    0 -0.72409762310E+01  0.37766276236E+02  0.29312055395E+03  0.29563217434E+03  0.00000000000E+00 0. -1.
        -12    1    5    5    0    0  0.16602953332E+02 -0.37577663250E+02  0.21133574791E+03  0.21529174898E+03  0.00000000000E+00 0.  1.
          5    1    4    4  501    0 -0.35282809082E+02 -0.46987884591E+02  0.11709024701E+03  0.13107378174E+03  0.41800000000E+01 0.  1.
         -5    1    4    4    0  501  0.27501666714E+01  0.67005521487E+02  0.68262752708E+02  0.95784023374E+02  0.41800000000E+01 0.  1.
</event>
<event>
11    1  0.9238666E-009  0.1656100E+03  0.7561462E-02  0.1081916E+00
         22   -1    0    0    0    0  0.00000000000E+00  0.00000000000E+00  0.18645984284E+04  0.18645984284E+04  0.00000000000E+00 0. -1.
         22   -1    0    0    0    0 -0.00000000000E+00 -0.00000000000E+00 -0.34938693219E+03  0.34938693219E+03  0.00000000000E+00 0.  1.
         24    2    1    2    0    0 -0.66853495821E+02  0.72460789807E+02 -0.24761718073E+03  0.27764588335E+03  0.77801107845E+02 0.  0.
         25    2    1    2    0    0  0.17207195564E+03 -0.86570597927E+02  0.72843859216E+02  0.24094444907E+03  0.12507906847E+03 0.  0.
        -24    2    1    2    0    0 -0.10521845982E+03  0.14109808121E+02  0.16899848177E+04  0.16953950281E+04  0.83938110706E+02 0.  0.
        -13    1    3    3    0    0 -0.17625320723E+02  0.74230523336E+02 -0.15370590843E+03  0.17159932637E+03  0.00000000000E+00 0.  1.
         14    1    3    3    0    0 -0.49228175098E+02 -0.17697335297E+01 -0.93911272306E+02  0.10604655698E+03  0.00000000000E+00 0. -1.
         11    1    5    5    0    0 -0.59463291758E+02 -0.32146954029E+02  0.10281866797E+04  0.10304063073E+04  0.00000000000E+00 0. -1.
        -12    1    5    5    0    0 -0.45755168063E+02  0.46256762150E+02  0.66179813799E+03  0.66498872088E+03  0.00000000000E+00 0.  1.
          5    1    4    4  501    0  0.64074616165E+02 -0.13455868005E+02  0.87800394792E+02  0.10960382542E+03  0.41800000000E+01 0.  1.
         -5    1    4    4    0  501  0.10799733948E+03 -0.73114729922E+02 -0.14956535575E+02  0.13134062366E+03  0.41800000000E+01 0.  1.
</event>
<event>
11    1  0.9238666E-009  0.1354482E+03  0.7561462E-02  0.1112750E+00
         22   -1    0    0    0    0  0.00000000000E+00  0.00000000000E+00  0.14091736400E+04  0.14091736400E+04  0.00000000000E+00 0. -1.
         22   -1    0    0    0    0 -0.00000000000E+00 -0.00000000000E+00 -0.18030951692E+03  0.18030951692E+03  0.00000000000E+00 0. -1.
        -24    2    1    2    0    0  0.27230355387E+02  0.44009227626E+02 -0.14728087757E+03  0.18267832539E+03  0.94875757180E+02 0.  0.
         25    2    1    2    0    0 -0.50081188762E+02 -0.34391303083E+02  0.33940565582E+03  0.36678959001E+03  0.12509003535E+03 0.  0.
         24    2    1    2    0    0  0.22850833375E+02 -0.96179245424E+01  0.10367393449E+04  0.10400152415E+04  0.78667454478E+02 0.  0.
        -11    1    5    5    0    0  0.33233944456E+02 -0.11502995810E+02  0.19104160332E+03  0.19425166197E+03  0.00000000000E+00 0.  1.
         12    1    5    5    0    0 -0.10383111082E+02  0.18850712677E+01  0.84569774154E+03  0.84576357957E+03  0.00000000000E+00 0. -1.
         11    1    3    3    0    0 -0.29093603802E+02 -0.92657599941E+00 -0.75742989179E+02  0.81143679576E+02  0.00000000000E+00 0. -1.
        -12    1    3    3    0    0  0.56323959189E+02  0.44935803625E+02 -0.71537888388E+02  0.10153464582E+03  0.00000000000E+00 0.  1.
          5    1    4    4  501    0 -0.79598140799E+02 -0.21052945630E+02  0.12388733219E+03  0.14881073220E+03  0.41800000000E+01 0.  1.
         -5    1    4    4    0  501  0.29516952037E+02 -0.13338357453E+02  0.21551832362E+03  0.21797885781E+03  0.41800000000E+01 0.  1.
</event>
<event>
11    1  0.9238666E-009  0.1523395E+03  0.7561462E-02  0.1094512E+00
         22   -1    0    0    0    0  0.00000000000E+00  0.00000000000E+00  0.56285958714E+03  0.56285958714E+03  0.00000000000E+00 0. -1.
         22   -1    0    0    0    0 -0.00000000000E+00 -0.00000000000E+00 -0.50503299905E+03  0.50503299905E+03  0.00000000000E+00 0.  1.
        -24    2    1    2    0    0 -0.79638946770E+02 -0.30181323427E+02 -0.43817652618E+03  0.45350115670E+03  0.80070949221E+02 0.  0.
         25    2    1    2    0    0  0.11930493155E+03  0.21201611477E+02  0.84870830809E+02  0.19373860583E+03  0.12509362272E+03 0.  0.
         24    2    1    2    0    0 -0.39665984781E+02  0.89797119494E+01  0.41113228346E+03  0.42065282365E+03  0.79151866481E+02 0.  0.
        -13    1    5    5    0    0 -0.33219013416E+02  0.26105618021E+02  0.94762000732E+02  0.10375376103E+03  0.00000000000E+00 0.  1.
         14    1    5    5    0    0 -0.64469713647E+01 -0.17125906071E+02  0.31637028273E+03  0.31689906263E+03  0.00000000000E+00 0. -1.
         11    1    3    3    0    0 -0.75863850333E+02 -0.51296540501E+02 -0.29990074618E+03  0.31357154912E+03  0.00000000000E+00 0. -1.
        -12    1    3    3    0    0 -0.37750964367E+01  0.21115217074E+02 -0.13827578000E+03  0.13992960758E+03  0.00000000000E+00 0.  1.
          5    1    4    4  501    0  0.72847933505E+02  0.44503591874E+02  0.10712875765E+03  0.13704537285E+03  0.41800000000E+01 0. -1.
         -5    1    4    4    0  501  0.46456998046E+02 -0.23301980397E+02 -0.22257926840E+02  0.56693232974E+02  0.41800000000E+01 0. -1.
</event>
<event>
11    1  0.9238666E-009  0.1330476E+03  0.7561462E-02  0.1115580E+00
         22   -1    0    0    0    0  0.00000000000E+00  0.00000000000E+00  0.97649310311E+03  0.97649310311E+03  0.00000000000E+00 0. -1.
         22   -1    0    0    0    0 -0.00000000000E+00 -0.00000000000E+00 -0.15950950943E+03  0.15950950943E+03  0.00000000000E+00 0.  1.
         24    2    1    2    0    0  0.14792032563E+02 -0.11874250784E+02 -0.19562020767E+02  0.85040814778E+02  0.80557218562E+02 0.  0.
         25    2    1    2    0    0  0.25335908132E+02  0.33438176465E+02 -0.60991862003E+02  0.14536607881E+03  0.12510503488E+03 0.  0.
        -24    2    1    2    0    0 -0.40127940695E+02 -0.21563925681E+02  0.89753747645E+03  0.90559571895E+03  0.11160120981E+03 0.  0.
        -13    1    3    3    0    0  0.13474682994E+02 -0.28029490671E+02 -0.45105856247E+02  0.54788298904E+02  0.00000000000E+00 0.  1.
         14    1    3    3    0    0  0.13173495686E+01  0.16155239886E+02  0.25543835479E+02  0.30252515873E+02  0.00000000000E+00 0. -1.
         13    1    5    5    0    0 -0.19285095507E+02 -0.20361789715E+02  0.87269487772E+03  0.87314538708E+03  0.00000000000E+00 0. -1.
        -14    1    5    5    0    0 -0.20842845188E+02 -0.12021359655E+01  0.24842598731E+02  0.32450331865E+02  0.00000000000E+00 0.  1.
          5    1    4    4  501    0 -0.38855914243E+02 -0.23132977825E+02 -0.29209152002E+02  0.53995959992E+02  0.41800000000E+01 0.  1.
         -5    1    4    4    0  501  0.64191822375E+02  0.56571154290E+02 -0.31782710001E+02  0.91370118817E+02  0.41800000000E+01 0.  1.
</event>
<event>
11    1  0.9238666E-009  0.1547908E+03  0.7561462E-02  0.1092082E+00
         22   -1    0    0    0    0  0.00000000000E+00  0.00000000000E+00  0.16915154750E+04  0.16915154750E+04  0.00000000000E+00 0.  1.
         22   -1    0    0    0    0 -0.00000000000E+00 -0.00000000000E+00 -0.32463844615E+03  0.32463844615E+03  0.00000000000E+00 0.  1.
        -24    2    1    2    0    0  0.18262494424E+01  0.87255575238E+02 -0.17510864545E+03  0.21120163907E+03  0.79537563704E+02 0.  0.
         25    2    1    2    0    0 -0.33736631589E+02 -0.10016740709E+03 -0.78959397443E+02  0.18180760467E+03  0.12509096257E+03 0.  0.
         24    2    1    2    0    0  0.31910382146E+02  0.12911831850E+02  0.16209450717E+04  0.16231446774E+04  0.77140976851E+02 0.  0.
        -11    1    5    5    0    0 -0.22764990745E+02 -0.64360749400E+01  0.30206034510E+03  0.30298534609E+03  0.00000000000E+00 0.  1.
         12    1    5    5    0    0  0.54675372892E+02  0.19347906790E+02  0.13188847266E+04  0.13201593313E+04  0.00000000000E+00 0. -1.
         13    1    3    3    0    0 -0.13399835229E+02 -0.93910914377E+01 -0.48557350605E+02  0.51240262297E+02  0.00000000000E+00 0. -1.
        -14    1    3    3    0    0  0.15226084671E+02  0.96646666675E+02 -0.12655129484E+03  0.15996137678E+03  0.00000000000E+00 0.  1.
          5    1    4    4  501    0 -0.40512533889E+02  0.17109846623E+02 -0.92137536613E+01  0.45126244139E+02  0.41800000000E+01 0.  1.
         -5    1    4    4    0  501  0.67759023001E+01 -0.11727725371E+03 -0.69745643782E+02  0.13668136053E+03  0.41800000000E+01 0.  1.
</event>
<event>
11    1  0.9238666E-009  0.2805120E+03  0.7561462E-02  0.1008794E+00
         22   -1    0    0    0    0  0.00000000000E+00  0.00000000000E+00  0.56525395473E+03  0.56525395473E+03  0.00000000000E+00 0.  1.
         22   -1    0    0    0    0 -0.00000000000E+00 -0.00000000000E+00 -0.88875142120E+03  0.88875142120E+03  0.00000000000E+00 0.  1.
         24    2    1    2    0    0  0.37120575596E+02  0.72703472478E+02 -0.67640301815E+03  0.68592002069E+03  0.79381986466E+02 0.  0.
         25    2    1    2    0    0  0.52520445122E+02 -0.29583374139E+03 -0.95763158586E+01  0.32559945391E+03  0.12508916364E+03 0.  0.
        -24    2    1    2    0    0 -0.89641020718E+02  0.22313026891E+03  0.36248186755E+03  0.44248590133E+03  0.81105111266E+02 0.  0.
        -11    1    3    3    0    0  0.76351645516E+01  0.78245774639E+02 -0.56899507454E+03  0.57440063704E+03  0.00000000000E+00 0.  1.
         12    1    3    3    0    0  0.29485411044E+02 -0.55423021611E+01 -0.10740794362E+03  0.11151938365E+03  0.00000000000E+00 0. -1.
         13    1    5    5    0    0 -0.60096190814E+01  0.18164901821E+01  0.50771660968E+02  0.51158349422E+02  0.00000000000E+00 0. -1.
        -14    1    5    5    0    0 -0.83631401637E+02  0.22131377873E+03  0.31171020658E+03  0.39132755191E+03  0.00000000000E+00 0.  1.
          5    1    4    4  501    0  0.66836747980E+02 -0.17136465940E+03 -0.55372410153E+02  0.19213686158E+03  0.41800000000E+01 0.  1.
         -5    1    4    4    0  501 -0.14316302858E+02 -0.12446908199E+03  0.45796094294E+02  0.13346259233E+03  0.41800000000E+01 0.  1.
</event>
<event>
11    1  0.9238666E-009  0.1319388E+03  0.7561462E-02  0.1116910E+00
         22   -1    0    0    0    0  0.00000000000E+00  0.00000000000E+00  0.70570995559E+03  0.70570995559E+03  0.00000000000E+00 0.  1.
         22   -1    0    0    0    0 -0.00000000000E+00 -0.00000000000E+00 -0.16698353385E+04  0.16698353385E+04  0.00000000000E+00 0.  1.
        -24    2    1    2    0    0 -0.37960164002E+02  0.10227391213E+01 -0.12539386658E+04  0.12571979127E+04  0.82112083002E+02 0.  0.
         25    2    1    2    0    0  0.43313949718E+02 -0.42596892012E+02 -0.39908236365E+03  0.42261559309E+03  0.12508642252E+03 0.  0.
         24    2    1    2    0    0 -0.53537857165E+01  0.41574152891E+02  0.68889564651E+03  0.69573178828E+03  0.87797700593E+02 0.  0.
        -11    1    5    5    0    0  0.32581543584E+02  0.15318105343E+02  0.49958462151E+03  0.50088022059E+03  0.00000000000E+00 0.  1.
         12    1    5    5    0    0 -0.37935329301E+02  0.26256047548E+02  0.18931102500E+03  0.19485156769E+03  0.00000000000E+00 0. -1.
         11    1    3    3    0    0 -0.28409964255E+02  0.40702578949E+02 -0.67567596630E+03  0.67749674349E+03  0.00000000000E+00 0. -1.
        -12    1    3    3    0    0 -0.95501997466E+01 -0.39679839828E+02 -0.57826269948E+03  0.57970116924E+03  0.00000000000E+00 0.  1.
          5    1    4    4  501    0  0.38310860890E+02  0.39454343704E+02 -0.12971569559E+03  0.14095389807E+03  0.41800000000E+01 0. -1.
         -5    1    4    4    0  501  0.50030888286E+01 -0.82051235716E+02 -0.26936666806E+03  0.28166169502E+03  0.41800000000E+01 0. -1.
</event>
<event>
11    1  0.9238666E-009  0.1398147E+03  0.7561462E-02  0.1107765E+00
         22   -1    0    0    0    0  0.00000000000E+00  0.00000000000E+00  0.12861314464E+03  0.12861314464E+03  0.00000000000E+00 0. -1.
         22   -1    0    0    0    0 -0.00000000000E+00 -0.00000000000E+00 -0.75717905192E+03  0.75717905192E+03  0.00000000000E+00 0. -1.
        -24    2    1    2    0    0 -0.13703256884E+02 -0.23187551726E+02 -0.49561106598E+03  0.50259265561E+03  0.79016497963E+02 0.  0.
         25    2    1    2    0    0 -0.49750371106E+02  0.28461215065E+02 -0.20955839330E+03  0.25069342164E+03  0.12508929314E+03 0.  0.
         24    2    1    2    0    0  0.63453627990E+02 -0.52736633398E+01  0.76603552001E+02  0.13250611931E+03  0.87381880531E+02 0.  0.
        -11    1    5    5    0    0  0.16298233956E+02  0.14630021797E+02 -0.15709488529E+02  0.26952884776E+02  0.00000000000E+00 0.  1.
         12    1    5    5    0    0  0.47155394034E+02 -0.19903685137E+02  0.92313040530E+02  0.10555323453E+03  0.00000000000E+00 0. -1.
         13    1    3    3    0    0 -0.32238018633E+02 -0.14719355810E+02 -0.46149751980E+03  0.46285625205E+03  0.00000000000E+00 0. -1.
        -14    1    3    3    0    0  0.18534761749E+02 -0.84681959157E+01 -0.34113546184E+02  0.39736403567E+02  0.00000000000E+00 0.  1.
          5    1    4    4  501    0 -0.84354606177E+01 -0.79977622391E+01 -0.19244964181E+03  0.19284568501E+03  0.41800000000E+01 0.  1.
         -5    1    4    4    0  501 -0.41314910488E+02  0.36458977304E+02 -0.17108751499E+02  0.57847736625E+02  0.41800000000E+01 0.  1.
</event>
<event>
11    1  0.9238666E-009  0.1353768E+03  0.7561462E-02  0.1112834E+00
         22   -1    0    0    0    0  0.00000000000E+00  0.00000000000E+00  0.11629412602E+04  0.11629412602E+04  0.00000000000E+00 0. -1.
         22   -1    0    0    0    0 -0.00000000000E+00 -0.00000000000E+00 -0.24030154257E+03  0.24030154257E+03  0.00000000000E+00 0.  1.
        -24    2    1    2    0    0 -0.37462846115E+02  0.33628212911E+02 -0.19508413547E+03  0.21925488762E+03  0.86490255470E+02 0.  0.
         25    2    1    2    0    0  0.38991570577E+02 -0.63239308766E+02  0.13775964324E+03  0.20036317326E+03  0.12509248238E+03 0.  0.
         24    2    1    2    0    0 -0.15287244620E+01  0.29611095855E+02  0.97996420983E+03  0.98362474185E+03  0.79426860915E+02 0.  0.
        -13    1    5    5    0    0  0.32866691458E+01 -0.26772116454E+02  0.39915598158E+03  0.40006630206E+03  0.00000000000E+00 0.  1.
         14    1    5    5    0    0 -0.48153936078E+01  0.56383212309E+02  0.58080822826E+03  0.58355843979E+03  0.00000000000E+00 0. -1.
         13    1    3    3    0    0 -0.34501494872E+01 -0.23255827818E+02 -0.16373256316E+02  0.28649966516E+02  0.00000000000E+00 0. -1.
        -14    1    3    3    0    0 -0.34012696628E+02  0.56884040729E+02 -0.17871087915E+03  0.19060492110E+03  0.00000000000E+00 0.  1.
          5    1    4    4  501    0 -0.39216580805E+02 -0.63773661055E+00  0.66633466714E+02  0.77432797989E+02  0.41800000000E+01 0.  1.
         -5    1    4    4    0  501  0.78208151382E+02 -0.62601572156E+02  0.71126176521E+02  0.12293037528E+03  0.41800000000E+01 0.  1.
</event>
<event>
11    1  0.9238666E-009  0.1394897E+03  0.7561462E-02  0.1108130E+00
         22   -1    0    0    0    0  0.00000000000E+00  0.00000000000E+00  0.36857674700E+03  0.36857674700E+03  0.00000000000E+00 0.  1.
         22   -1    0    0    0    0 -0.00000000000E+00 -0.00000000000E+00 -0.28066826276E+04  0.28066826276E+04  0.00000000000E+00 0.  1.
        -24    2    1    2    0    0  0.56806890487E+02  0.23358582672E+02 -0.26127589421E+04  0.26147246376E+04  0.80641146175E+02 0.  0.
         25    2    1    2    0    0 -0.58060800499E+02 -0.43780987162E+02 -0.16043910659E+03  0.21604474955E+03  0.12508715158E+03 0.  0.
         24    2    1    2    0    0  0.12539100112E+01  0.20422404490E+02  0.33509216812E+03  0.34448998749E+03  0.77252465653E+02 0.  0.
        -11    1    5    5    0    0 -0.27331347190E+02 -0.95590307879E+01  0.22512190106E+03  0.22697631582E+03  0.00000000000E+00 0.  1.
         12    1    5    5    0    0  0.28585257201E+02  0.29981435278E+02  0.10997026706E+03  0.11751367166E+03  0.00000000000E+00 0. -1.
         13    1    3    3    0    0 -0.93816354434E+01 -0.11995354674E+01 -0.44427092686E+02  0.45422687431E+02  0.00000000000E+00 0. -1.
        -14    1    3    3    0    0  0.66188525931E+02  0.24558118139E+02 -0.25683318494E+04  0.25693019501E+04  0.00000000000E+00 0.  1.
          5    1    4    4  501    0 -0.76184620369E+02 -0.66266899924E+02 -0.75254513070E+02  0.12600044660E+03  0.41800000000E+01 0. -1.
         -5    1    4    4    0  501  0.18123819871E+02  0.22485912762E+02 -0.85184593524E+02  0.90044302948E+02  0.41800000000E+01 0. -1.
</event>
<event>
11    1  0.9238666E-009  0.1271567E+03  0.7561462E-02  0.1122813E+00
         22   -1    0    0    0    0  0.00000000000E+00  0.00000000000E+00  0.19522122666E+04  0.19522122666E+04  0.00000000000E+00 0.  1.
         22   -1    0    0    0    0 -0.00000000000E+00 -0.00000000000E+00 -0.15369662152E+03  0.15369662152E+03  0.00000000000E+00 0.  1.
         24    2    1    2    0    0 -0.97098975498E+01  0.11938019894E+02 -0.84294297924E+02  0.11765590165E+03  0.80626199843E+02 0.  0.
         25    2    1    2    0    0 -0.12632884657E+02 -0.61175907960E+01  0.25010167508E+02  0.12833424854E+03  0.12508859331E+03 0.  0.
        -24    2    1    2    0    0  0.22342782207E+02 -0.58204290985E+01  0.18577997755E+04  0.18599187379E+04  0.85700808512E+02 0.  0.
        -13    1    3    3    0    0 -0.94997207026E+01  0.10552794344E+02 -0.10044547340E+03  0.10144406976E+03  0.00000000000E+00 0.  1.
         14    1    3    3    0    0 -0.21017684721E+00  0.13852255505E+01  0.16151175476E+02  0.16211831895E+02  0.00000000000E+00 0. -1.
         11    1    5    5    0    0 -0.29400379022E+02 -0.19434367216E+02  0.72471605714E+03  0.72557249148E+03  0.00000000000E+00 0. -1.
        -12    1    5    5    0    0  0.51743161228E+02  0.13613938117E+02  0.11330837183E+04  0.11343462464E+04  0.00000000000E+00 0.  1.
          5    1    4    4  501    0  0.54835929950E+02 -0.15934244149E+02  0.69303953547E+01  0.57674796314E+02  0.41800000000E+01 0. -1.
         -5    1    4    4    0  501 -0.67468814607E+02  0.98166533527E+01  0.18079772154E+02  0.70659452224E+02  0.41800000000E+01 0. -1.
</event>
<event>
11    1  0.9238666E-009  0.1426549E+03  0.7561462E-02  0.1104629E+00
         22   -1    0    0    0    0  0.00000000000E+00  0.00000000000E+00  0.95525545528E+03  0.95525545528E+03  0.00000000000E+00 0.  1.
         22   -1    0    0    0    0 -0.00000000000E+00 -0.00000000000E+00 -0.22043189931E+03  0.22043189931E+03  0.00000000000E+00 0.  1.
        -24    2    1    2    0    0  0.64729931991E+02  0.23731238103E+02 -0.18519918178E+03  0.22545448078E+03  0.10852580437E+03 0.  0.
         25    2    1    2    0    0 -0.57161086844E+02 -0.21882127031E+02  0.39760040457E+03  0.42128313765E+03  0.12508870061E+03 0.  0.
         24    2    1    2    0    0 -0.75688451469E+01 -0.18491110719E+01  0.52242233318E+03  0.52894973617E+03  0.82474375181E+02 0.  0.
        -11    1    5    5    0    0 -0.11459599862E+02 -0.14615247574E+02  0.51113051576E+03  0.51146782112E+03  0.00000000000E+00 0.  1.
         12    1    5    5    0    0  0.38907547150E+01  0.12766136502E+02  0.11291817412E+02  0.17481915053E+02  0.00000000000E+00 0. -1.
         13    1    3    3    0    0  0.45969145146E+02 -0.39940116564E+02 -0.72724651596E+02  0.94853835802E+02  0.00000000000E+00 0. -1.
        -14    1    3    3    0    0  0.18760786845E+02  0.63671354667E+02 -0.11247453018E+03  0.13060064498E+03  0.00000000000E+00 0.  1.
          5    1    4    4  501    0 -0.43952889524E+01  0.33197018293E+02  0.27337323593E+03  0.27544828754E+03  0.41800000000E+01 0.  1.
         -5    1    4    4    0  501 -0.52765797891E+02 -0.55079145324E+02  0.12422716865E+03  0.14583485011E+03  0.41800000000E+01 0.  1.
</event>
<event>
11    1  0.9238666E-009  0.1497644E+03  0.7561462E-02  0.1097120E+00
         22   -1    0    0    0    0  0.00000000000E+00  0.00000000000E+00  0.13431968007E+03  0.13431968007E+03  0.00000000000E+00 0. -1.
         22   -1    0    0    0    0 -0.00000000000E+00 -0.00000000000E+00 -0.16211857217E+04  0.16211857217E+04  0.00000000000E+00 0.  1.
         24    2    1    2    0    0 -0.15683523381E+02  0.85824818852E+01 -0.14875071114E+04  0.14897992788E+04  0.80652667076E+02 0.  0.
         25    2    1    2    0    0 -0.17438940159E+02 -0.82837689214E+02  0.55708989249E+01  0.15114393309E+03  0.12508898516E+03 0.  0.
        -24    2    1    2    0    0  0.33122463540E+02  0.74255207329E+02 -0.49298291271E+01  0.11456218986E+03  0.80555935377E+02 0.  0.
        -13    1    3    3    0    0 -0.17934793831E+01 -0.24278601377E+02 -0.11766229026E+04  0.11768747266E+04  0.00000000000E+00 0.  1.
         14    1    3    3    0    0 -0.13890043997E+02  0.32861083262E+02 -0.31088420876E+03  0.31292455220E+03  0.00000000000E+00 0. -1.
         13    1    5    5    0    0 -0.79789977765E+01  0.70362803727E+02  0.80854812974E+01  0.71273863103E+02  0.00000000000E+00 0. -1.
        -14    1    5    5    0    0  0.41101461316E+02  0.38924036017E+01 -0.13015310424E+02  0.43288326759E+02  0.00000000000E+00 0.  1.
          5    1    4    4  501    0 -0.31579860846E+02 -0.71455601334E+01  0.51802977278E+02  0.61232078974E+02  0.41800000000E+01 0.  1.
         -5    1    4    4    0  501  0.14140920687E+02 -0.75692129080E+02 -0.46232078353E+02  0.89911854121E+02  0.41800000000E+01 0.  1.
</event>
<event>
11    1  0.9238666E-009  0.1305993E+03  0.7561462E-02  0.1118535E+00
         22   -1    0    0    0    0  0.00000000000E+00  0.00000000000E+00  0.33083738491E+03  0.33083738491E+03  0.00000000000E+00 0. -1.
         22   -1    0    0    0    0 -0.00000000000E+00 -0.00000000000E+00 -0.14185545748E+03  0.14185545748E+03  0.00000000000E+00 0. -1.
        -24    2    1    2    0    0  0.41591736666E+02 -0.22022890773E+02 -0.78531208774E+02  0.12209401975E+03  0.80776968434E+02 0.  0.
         25    2    1    2    0    0  0.73935105817E+01  0.77546244880E+00  0.11545933053E+03  0.17039556865E+03  0.12509407448E+03 0.  0.
         24    2    1    2    0    0 -0.48985247248E+02  0.21247428324E+02  0.15205380567E+03  0.18020325399E+03  0.80634020568E+02 0.  0.
        -11    1    5    5    0    0 -0.13033479323E+01  0.24765535682E+02  0.46404428185E+01  0.25230223602E+02  0.00000000000E+00 0.  1.
         12    1    5    5    0    0 -0.47681899315E+02 -0.35181073577E+01  0.14741336285E+03  0.15497303039E+03  0.00000000000E+00 0. -1.
         13    1    3    3    0    0  0.27124831887E+02  0.14332700236E+02 -0.77055298049E+02  0.82937939198E+02  0.00000000000E+00 0. -1.
        -14    1    3    3    0    0  0.14466904779E+02 -0.36355591009E+02 -0.14759107251E+01  0.39156080549E+02  0.00000000000E+00 0.  1.
          5    1    4    4  501    0 -0.21672810329E+02  0.17870496192E+02 -0.17369061806E+02  0.33289969206E+02  0.41800000000E+01 0. -1.
         -5    1    4    4    0  501  0.29066320911E+02 -0.17095033743E+02  0.13282839233E+03  0.13710559945E+03  0.41800000000E+01 0. -1.
</event>
<event>
11    1  0.9238666E-009  0.1586909E+03  0.7561462E-02  0.1088315E+00
         22   -1    0    0    0    0  0.00000000000E+00  0.00000000000E+00  0.10753738605E+04  0.10753738605E+04  0.00000000000E+00 0.  1.
         22   -1    0    0    0    0 -0.00000000000E+00 -0.00000000000E+00 -0.10102504319E+03  0.10102504319E+03  0.00000000000E+00 0.  1.
         24    2    1    2    0    0  0.49954138494E+02  0.13889129801E+02 -0.11879240603E+01  0.95387942005E+02  0.80057007420E+02 0.  0.
         25    2    1    2    0    0 -0.10716115557E+02  0.78343907715E+02  0.64601717833E+02  0.16147176735E+03  0.12508855541E+03 0.  0.
        -24    2    1    2    0    0 -0.39238022937E+02 -0.92233037516E+02  0.91093502351E+03  0.91953919431E+03  0.75519250235E+02 0.  0.
        -13    1    3    3    0    0 -0.62624290908E+01  0.24557461249E+02 -0.22929504393E+02  0.34176733209E+02  0.00000000000E+00 0.  1.
         14    1    3    3    0    0  0.56216567585E+02 -0.10668331448E+02  0.21741580333E+02  0.61211208796E+02  0.00000000000E+00 0. -1.
         11    1    5    5    0    0  0.14922263149E+01 -0.12251635057E+02  0.16465355206E+02  0.20577590311E+02  0.00000000000E+00 0. -1.
        -12    1    5    5    0    0 -0.40730249252E+02 -0.79981402459E+02  0.89446966831E+03  0.89896160400E+03  0.00000000000E+00 0.  1.
          5    1    4    4  501    0 -0.32459000103E+01 -0.32056612080E+02  0.33019480767E+02  0.46324083963E+02  0.41800000000E+01 0. -1.
         -5    1    4    4    0  501 -0.74702155468E+01  0.11040051979E+03  0.31582237067E+02  0.11514768339E+03  0.41800000000E+01 0. -1.
</event>
<event>
11    1  0.9238666E-009  0.1343286E+03  0.7561462E-02  0.1114062E+00
         22   -1    0    0    0    0  0.00000000000E+00  0.00000000000E+00  0.35741790317E+03  0.35741790317E+03  0.00000000000E+00 0.  1.
         22   -1    0    0    0    0 -0.00000000000E+00 -0.00000000000E+00 -0.86477919652E+03  0.86477919652E+03  0.00000000000E+00 0. -1.
        -24    2    1    2    0    0 -0.14383437110E+02 -0.36958149443E+02 -0.75213330319E+03  0.75801456442E+03  0.85491438297E+02 0.  0.
         25    2    1    2    0    0  0.32138166860E+02  0.79562202289E+02 -0.45532798565E+02  0.15837827836E+03  0.12508971784E+03 0.  0.
         24    2    1    2    0    0 -0.17754729750E+02 -0.42604052846E+02  0.29030480841E+03  0.30580425691E+03  0.84315040227E+02 0.  0.
        -13    1    5    5    0    0 -0.15901097014E+02 -0.61517941726E+02  0.27233525233E+03  0.27964940855E+03  0.00000000000E+00 0.  1.
         14    1    5    5    0    0 -0.18536327363E+01  0.18913888880E+02  0.17969556085E+02  0.26154848361E+02  0.00000000000E+00 0. -1.
         11    1    3    3    0    0  0.61227912572E+01  0.55496571794E+01 -0.56370746653E+03  0.56376803305E+03  0.00000000000E+00 0. -1.
        -12    1    3    3    0    0 -0.20506228367E+02 -0.42507806623E+02 -0.18842583667E+03  0.19424653137E+03  0.00000000000E+00 0.  1.
          5    1    4    4  501    0  0.61424728435E+02  0.45171731868E+02  0.19757617661E+02  0.78875335048E+02  0.41800000000E+01 0.  1.
         -5    1    4    4    0  501 -0.29286561575E+02  0.34390470421E+02 -0.65290416227E+02  0.79502943315E+02  0.41800000000E+01 0.  1.
</event>
<event>
11    1  0.9238666E-009  0.1397317E+03  0.7561462E-02  0.1107858E+00
         22   -1    0    0    0    0  0.00000000000E+00  0.00000000000E+00  0.49113776184E+02  0.49113776184E+02  0.00000000000E+00 0. -1.
         22   -1    0    0    0    0 -0.00000000000E+00 -0.00000000000E+00 -0.13676024310E+04  0.13676024310E+04  0.00000000000E+00 0.  1.
        -24    2    1    2    0    0  0.46700616408E+02 -0.41597761142E+02 -0.10605839834E+04  0.10653490242E+04  0.78859598276E+02 0.  0.
         25    2    1    2    0    0 -0.19641621582E+02  0.66168003601E+02 -0.20141831526E+03  0.24694279616E+03  0.12508960329E+03 0.  0.
         24    2    1    2    0    0 -0.27058994825E+02 -0.24570242459E+02 -0.56486356110E+02  0.10442438677E+03  0.79861493294E+02 0.  0.
        -11    1    5    5    0    0 -0.88791928033E+01  0.28054554936E+02 -0.32379380905E+02  0.43752970473E+02  0.00000000000E+00 0.  1.
         12    1    5    5    0    0 -0.18179802022E+02 -0.52624797395E+02 -0.24106975206E+02  0.60671416301E+02  0.00000000000E+00 0. -1.
         13    1    3    3    0    0 -0.11399570272E+02  0.28355851555E+01 -0.48421828114E+03  0.48436074834E+03  0.00000000000E+00 0. -1.
        -14    1    3    3    0    0  0.58100186680E+02 -0.44433346297E+02 -0.57636570228E+03  0.58098827589E+03  0.00000000000E+00 0.  1.
          5    1    4    4  501    0 -0.30417977411E+02  0.98472455223E+02 -0.17688829937E+03  0.20476577019E+03  0.41800000000E+01 0. -1.
         -5    1    4    4    0  501  0.10776355829E+02 -0.32304451622E+02 -0.24530015892E+02  0.42177025965E+02  0.41800000000E+01 0. -1.
</event>
<event>
11    1  0.9238666E-009  0.1281538E+03  0.7561462E-02  0.1121558E+00
         22   -1    0    0    0    0  0.00000000000E+00  0.00000000000E+00  0.55008740268E+03  0.55008740268E+03  0.00000000000E+00 0. -1.
         22   -1    0    0    0    0 -0.00000000000E+00 -0.00000000000E+00 -0.33869164471E+03  0.33869164471E+03  0.00000000000E+00 0. -1.
        -24    2    1    2    0    0 -0.10698116612E+02  0.26384039322E+02 -0.31097808077E+03  0.32513854992E+03  0.90538073149E+02 0.  0.
         25    2    1    2    0    0  0.16038833994E+02  0.24554987805E+01  0.28537405226E+03  0.31200415801E+03  0.12507985945E+03 0.  0.
         24    2    1    2    0    0 -0.53407173829E+01 -0.28839538102E+02  0.23699978649E+03  0.25163633947E+03  0.79320276870E+02 0.  0.
        -11    1    5    5    0    0 -0.22189660940E+02  0.41569694080E+01  0.16291909330E+02  0.27840397930E+02  0.00000000000E+00 0.  1.
         12    1    5    5    0    0  0.16848943557E+02 -0.32996507510E+02  0.22070787716E+03  0.22379594154E+03  0.00000000000E+00 0. -1.
         13    1    3    3    0    0 -0.29923863129E+02  0.21629098679E+02 -0.30044796034E+03  0.30270816370E+03  0.00000000000E+00 0. -1.
        -14    1    3    3    0    0  0.19225746518E+02  0.47549406430E+01 -0.10530120432E+02  0.22430386221E+02  0.00000000000E+00 0.  1.
          5    1    4    4  501    0 -0.27909363968E+02  0.17061747434E+02  0.12611923089E+02  0.35306781595E+02  0.41800000000E+01 0.  1.
         -5    1    4    4    0  501  0.43948197962E+02 -0.14606248653E+02  0.27276212917E+03  0.27669737641E+03  0.41800000000E+01 0.  1.
</event>
<event>
11    1  0.9238666E-009  0.1349378E+03  0.7561462E-02  0.1113347E+00
         22   -1    0    0    0    0  0.00000000000E+00  0.00000000000E+00  0.55697269108E+03  0.55697269108E+03  0.00000000000E+00 0. -1.
         22   -1    0    0    0    0 -0.00000000000E+00 -0.00000000000E+00 -0.83461131089E+03  0.83461131089E+03  0.00000000000E+00 0. -1.
        -24    2    1    2    0    0  0.47397758274E+01  0.11100275765E+02 -0.78299377279E+03  0.78725891497E+03  0.80942383023E+02 0.  0.
         25    2    1    2    0    0  0.26999099325E+02  0.29817604534E+02  0.52170791475E+02  0.14136628945E+03  0.12507835707E+03 0.  0.
         24    2    1    2    0    0 -0.31738875152E+02 -0.40917880299E+02  0.45318436150E+03  0.46295879754E+03  0.79203242278E+02 0.  0.
        -11    1    5    5    0    0  0.42826102526E+00  0.20626766162E+02  0.17611603395E+03  0.17732034374E+03  0.00000000000E+00 0.  1.
         12    1    5    5    0    0 -0.32167136178E+02 -0.61544646461E+02  0.27706832756E+03  0.28563845381E+03  0.00000000000E+00 0. -1.
         11    1    3    3    0    0  0.27753136269E+02  0.20595370746E+02 -0.69368060057E+03  0.69454098617E+03  0.00000000000E+00 0. -1.
        -12    1    3    3    0    0 -0.23013360442E+02 -0.94950949811E+01 -0.89313172224E+02  0.92717928796E+02  0.00000000000E+00 0.  1.
          5    1    4    4  501    0  0.21398128924E+02 -0.47738725620E+02  0.12396865631E+02  0.53926065337E+02  0.41800000000E+01 0. -1.
         -5    1    4    4    0  501  0.56009704012E+01  0.77556330154E+02  0.39773925844E+02  0.87440224116E+02  0.41800000000E+01 0. -1.
</event>
<event>
11    1  0.9238666E-009  0.1591583E+03  0.7561462E-02  0.1087872E+00
         22   -1    0    0    0    0  0.00000000000E+00  0.00000000000E+00  0.12510133008E+04  0.12510133008E+04  0.00000000000E+00 0. -1.
         22   -1    0    0    0    0 -0.00000000000E+00 -0.00000000000E+00 -0.39054686772E+03  0.39054686772E+03  0.00000000000E+00 0.  1.
         24    2    1    2    0    0  0.18721459614E+01  0.84013892160E+02 -0.21582459821E+03  0.24551414313E+03  0.81456112569E+02 0.  0.
         25    2    1    2    0    0 -0.28715830241E+02 -0.16418610054E+03 -0.87810347528E+02  0.22614273276E+03  0.12509278128E+03 0.  0.
        -24    2    1    2    0    0  0.26843684280E+02  0.80172208384E+02  0.11641013788E+04  0.11699032926E+04  0.79959537080E+02 0.  0.
        -13    1    3    3    0    0  0.53427821426E+01  0.53645192506E+02 -0.20670029102E+03  0.21361498615E+03  0.00000000000E+00 0.  1.
         14    1    3    3    0    0 -0.34706361811E+01  0.30368699654E+02 -0.91243071960E+01  0.31899156979E+02  0.00000000000E+00 0. -1.
         13    1    5    5    0    0  0.48539483558E+02  0.56080867288E+02  0.99240713854E+03  0.99517489607E+03  0.00000000000E+00 0. -1.
        -14    1    5    5    0    0 -0.21695799278E+02  0.24091341096E+02  0.17169424027E+03  0.17472839656E+03  0.00000000000E+00 0.  1.
          5    1    4    4  501    0 -0.47064749840E+02 -0.10371829727E+03  0.46559775768E+01  0.11406895455E+03  0.41800000000E+01 0. -1.
         -5    1    4    4    0  501  0.18348919599E+02 -0.60467803279E+02 -0.92466325105E+02  0.11207377821E+03  0.41800000000E+01 0. -1.
</event>
<event>
11    1  0.9238666E-009  0.1792225E+03  0.7561462E-02  0.1070274E+00
         22   -1    0    0    0    0  0.00000000000E+00  0.00000000000E+00  0.87092790336E+03  0.87092790336E+03  0.00000000000E+00 0.  1.
         22   -1    0    0    0    0 -0.00000000000E+00 -0.00000000000E+00 -0.47661198956E+03  0.47661198956E+03  0.00000000000E+00 0.  1.
        -24    2    1    2    0    0 -0.64164423724E+01  0.16032918012E+02 -0.43722657135E+03  0.44529607705E+03  0.82603246650E+02 0.  0.
         25    2    1    2    0    0 -0.36700547690E+01 -0.13930363418E+03  0.32977367841E+03  0.37923247834E+03  0.12509045471E+03 0.  0.
         24    2    1    2    0    0  0.10086497141E+02  0.12327071617E+03  0.50176880674E+03  0.52301133753E+03  0.80445738725E+02 0.  0.
        -13    1    5    5    0    0 -0.35802677096E+01  0.86853020671E+02  0.44966215848E+03  0.45798725123E+03  0.00000000000E+00 0.  1.
         14    1    5    5    0    0  0.13666764851E+02  0.36417695496E+02  0.52106648256E+02  0.65024086300E+02  0.00000000000E+00 0. -1.
         13    1    3    3    0    0 -0.11117040981E+01 -0.33113777170E+02 -0.13212087000E+03  0.13621190261E+03  0.00000000000E+00 0. -1.
        -14    1    3    3    0    0 -0.53047382744E+01  0.49146695182E+02 -0.30510570135E+03  0.30908417444E+03  0.00000000000E+00 0.  1.
          5    1    4    4  501    0  0.35122909125E+02 -0.11003416553E+03  0.30140747105E+03  0.32280810451E+03  0.41800000000E+01 0. -1.
         -5    1    4    4    0  501 -0.38792963894E+02 -0.29269468646E+02  0.28366207358E+02  0.56424373833E+02  0.41800000000E+01 0. -1.
</event>
<event>
11    1  0.9238666E-009  0.2226782E+03  0.7561462E-02  0.1039553E+00
         22   -1    0    0    0    0  0.00000000000E+00  0.00000000000E+00  0.20440895268E+04  0.20440895268E+04  0.00000000000E+00 0.  1.
         22   -1    0    0    0    0 -0.00000000000E+00 -0.00000000000E+00 -0.15139572240E+03  0.15139572240E+03  0.00000000000E+00 0. -1.
         24    2    1    2    0    0  0.15228159117E+03 -0.17222916635E+03  0.88363871610E+03  0.91659049526E+03  0.80425037551E+02 0.  0.
         25    2    1    2    0    0 -0.18661122886E+03 -0.44521835991E+02 -0.13965376191E+02  0.22948536412E+03  0.12515013382E+03 0.  0.
        -24    2    1    2    0    0  0.34329637690E+02  0.21675100235E+03  0.10230204645E+04  0.10494093898E+04  0.80806408289E+02 0.  0.
        -13    1    3    3    0    0  0.16203003681E+03 -0.16610064518E+03  0.84272271517E+03  0.87408508271E+03  0.00000000000E+00 0.  1.
         14    1    3    3    0    0 -0.97484456361E+01 -0.61285211790E+01  0.40916000929E+02  0.42505412552E+02  0.00000000000E+00 0. -1.
         13    1    5    5    0    0  0.23813549673E+02  0.18243393664E+03  0.95437373303E+03  0.97194570254E+03  0.00000000000E+00 0. -1.
        -14    1    5    5    0    0  0.10516088017E+02  0.34317065706E+02  0.68646731450E+02  0.77463687264E+02  0.00000000000E+00 0.  1.
          5    1    4    4  501    0 -0.10370743948E+03 -0.44599762933E+02  0.51126013398E+02  0.12399884476E+03  0.41800000000E+01 0.  1.
         -5    1    4    4    0  501 -0.82903789386E+02  0.77926942497E-01 -0.65091389590E+02  0.10548651936E+03  0.41800000000E+01 0.  1.
</event>
<event>
11    1  0.9238666E-009  0.1311644E+03  0.7561462E-02  0.1117846E+00
         22   -1    0    0    0    0  0.00000000000E+00  0.00000000000E+00  0.12878170128E+03  0.12878170128E+03  0.00000000000E+00 0.  1.
         22   -1    0    0    0    0 -0.00000000000E+00 -0.00000000000E+00 -0.14676220153E+04  0.14676220153E+04  0.00000000000E+00 0. -1.
        -24    2    1    2    0    0  0.10218490829E+02 -0.97738648278E+01 -0.10812753849E+04  0.10845870861E+04  0.83502953188E+02 0.  0.
         25    2    1    2    0    0  0.22233377601E+02  0.32445849814E+02 -0.35339621628E+03  0.37693972784E+03  0.12509043325E+03 0.  0.
         24    2    1    2    0    0 -0.32451868431E+02 -0.22671984986E+02  0.95831287182E+02  0.13487690269E+03  0.86261234676E+02 0.  0.
        -13    1    5    5    0    0 -0.57365788931E+02 -0.17365541178E+02  0.90976724375E+02  0.10894567517E+03  0.00000000000E+00 0.  1.
         14    1    5    5    0    0  0.24913920500E+02 -0.53064438084E+01  0.48545628068E+01  0.25931227519E+02  0.00000000000E+00 0. -1.
         11    1    3    3    0    0 -0.27476571996E+02 -0.30275093509E+02 -0.60657862483E+03  0.60795490901E+03  0.00000000000E+00 0. -1.
        -12    1    3    3    0    0  0.37695062825E+02  0.20501228682E+02 -0.47469676010E+03  0.47663217704E+03  0.00000000000E+00 0.  1.
          5    1    4    4  501    0  0.16415163437E+02  0.73640274768E+02 -0.29860061852E+03  0.30801322932E+03  0.41800000000E+01 0.  1.
         -5    1    4    4    0  501  0.58182141640E+01 -0.41194424954E+02 -0.54795597765E+02  0.68926498517E+02  0.41800000000E+01 0.  1.
</event>
<event>
11    1  0.9238666E-009  0.1435432E+03  0.7561462E-02  0.1103665E+00
         22   -1    0    0    0    0  0.00000000000E+00  0.00000000000E+00  0.76960619275E+03  0.76960619275E+03  0.00000000000E+00 0. -1.
         22   -1    0    0    0    0 -0.00000000000E+00 -0.00000000000E+00 -0.25695689336E+04  0.25695689336E+04  0.00000000000E+00 0. -1.
        -24    2    1    2    0    0  0.65833199331E+02  0.19879870400E+02 -0.22873265844E+04  0.22897854053E+04  0.80777961998E+02 0.  0.
         25    2    1    2    0    0 -0.10047731794E+03 -0.17971273057E+02 -0.25476602615E+03  0.30161757140E+03  0.12509505676E+03 0.  0.
         24    2    1    2    0    0  0.34644118607E+02 -0.19085973432E+01  0.74212986965E+03  0.74777214972E+03  0.84868055107E+02 0.  0.
        -13    1    5    5    0    0  0.13875517301E+01  0.23005870217E+02  0.58439518215E+02  0.62820161202E+02  0.00000000000E+00 0.  1.
         14    1    5    5    0    0  0.33256566877E+02 -0.24914467560E+02  0.68369035144E+03  0.68495198852E+03  0.00000000000E+00 0. -1.
         11    1    3    3    0    0  0.72533814155E+02  0.30712833850E+02 -0.22110465961E+04  0.22124492045E+04  0.00000000000E+00 0. -1.
        -12    1    3    3    0    0 -0.67006148241E+01 -0.10832963450E+02 -0.76279988273E+02  0.77336200754E+02  0.00000000000E+00 0.  1.
          5    1    4    4  501    0 -0.97125785945E+02  0.38297645342E+02 -0.15445676400E+03  0.18647920066E+03  0.41800000000E+01 0. -1.
         -5    1    4    4    0  501 -0.33515319935E+01 -0.56268918399E+02 -0.10030926214E+03  0.11513837074E+03  0.41800000000E+01 0. -1.
</event>
<event>
11    1  0.9238666E-009  0.1300129E+03  0.7561462E-02  0.1119253E+00
         22   -1    0    0    0    0  0.00000000000E+00  0.00000000000E+00  0.12847201831E+04  0.12847201831E+04  0.00000000000E+00 0. -1.
         22   -1    0    0    0    0 -0.00000000000E+00 -0.00000000000E+00 -0.13950757991E+03  0.13950757991E+03  0.00000000000E+00 0.  1.
        -24    2    1    2    0    0  0.68566356545E+02  0.76952509212E+01 -0.10422168167E+03  0.14879956074E+03  0.80737774375E+02 0.  0.
         25    2    1    2    0    0 -0.72906533947E+02  0.12686375128E+02  0.65459116607E+03  0.67053278421E+03  0.12509321804E+03 0.  0.
         24    2    1    2    0    0  0.43401774023E+01 -0.20381626049E+02  0.59484311875E+03  0.60489541802E+03  0.10782338800E+03 0.  0.
        -13    1    5    5    0    0  0.42630799670E+02  0.74653994693E+01  0.11762808821E+03  0.12533748204E+03  0.00000000000E+00 0.  1.
         14    1    5    5    0    0 -0.38290622268E+02 -0.27847025519E+02  0.47721503054E+03  0.47955793598E+03  0.00000000000E+00 0. -1.
         11    1    3    3    0    0  0.77815060670E+02  0.15986343144E+02 -0.51590046469E+02  0.94722118478E+02  0.00000000000E+00 0. -1.
        -12    1    3    3    0    0 -0.92487041251E+01 -0.82910922232E+01 -0.52631635200E+02  0.54077442266E+02  0.00000000000E+00 0.  1.
          5    1    4    4  501    0 -0.47681819132E+02  0.68535144791E+02  0.35497179447E+03  0.36468214820E+03  0.41800000000E+01 0.  1.
         -5    1    4    4    0  501 -0.25224714816E+02 -0.55848769663E+02  0.29961937160E+03  0.30585063601E+03  0.41800000000E+01 0.  1.
</event>
<event>
11    1  0.9238666E-009  0.1489143E+03  0.7561462E-02  0.1097993E+00
         22   -1    0    0    0    0  0.00000000000E+00  0.00000000000E+00  0.10996042575E+04  0.10996042575E+04  0.00000000000E+00 0. -1.
         22   -1    0    0    0    0 -0.00000000000E+00 -0.00000000000E+00 -0.23425222305E+03  0.23425222305E+03  0.00000000000E+00 0.  1.
        -24    2    1    2    0    0  0.76386080985E+02 -0.14201586256E+02 -0.18506434515E+03  0.21675703022E+03  0.81843019765E+02 0.  0.
         25    2    1    2    0    0 -0.12999924091E+03  0.46874674011E+02  0.25899600570E+03  0.31910869898E+03  0.12511751715E+03 0.  0.
         24    2    1    2    0    0  0.53613159923E+02 -0.32673087755E+02  0.79142037392E+03  0.79799075136E+03  0.80629581599E+02 0.  0.
        -11    1    5    5    0    0  0.23017182735E+02 -0.14248839204E+02  0.61465819302E+02  0.67162988783E+02  0.00000000000E+00 0.  1.
         12    1    5    5    0    0  0.30595977188E+02 -0.18424248551E+02  0.72995455462E+03  0.73082776258E+03  0.00000000000E+00 0. -1.
         13    1    3    3    0    0  0.89785494516E+02 -0.23116602242E+01 -0.12394066799E+03  0.15306230098E+03  0.00000000000E+00 0. -1.
        -14    1    3    3    0    0 -0.13399413531E+02 -0.11889926032E+02 -0.61123677160E+02  0.63694729245E+02  0.00000000000E+00 0.  1.
          5    1    4    4  501    0 -0.38369505619E+02  0.48173324703E+02  0.22936970973E+02  0.65851842889E+02  0.41800000000E+01 0. -1.
         -5    1    4    4    0  501 -0.91629735289E+02 -0.12986506920E+01  0.23605903472E+03  0.25325685609E+03  0.41800000000E+01 0. -1.
</event>
<event>
11    1  0.9238666E-009  0.1293783E+03  0.7561462E-02  0.1120035E+00
         22   -1    0    0    0    0  0.00000000000E+00  0.00000000000E+00  0.38687180433E+03  0.38687180433E+03  0.00000000000E+00 0. -1.
         22   -1    0    0    0    0 -0.00000000000E+00 -0.00000000000E+00 -0.25810703424E+03  0.25810703424E+03  0.00000000000E+00 0.  1.
        -24    2    1    2    0    0 -0.33316495174E+02  0.12495873675E+02 -0.14587549772E+03  0.16985832775E+03  0.79410672847E+02 0.  0.
         25    2    1    2    0    0  0.24480269524E+02 -0.30362680201E+01 -0.52866443111E+02  0.13801893223E+03  0.12508342147E+03 0.  0.
         24    2    1    2    0    0  0.88362256506E+01 -0.94596056545E+01  0.32750671092E+03  0.33710157859E+03  0.78798893176E+02 0.  0.
        -13    1    5    5    0    0  0.79893627056E+01  0.34707650975E+02  0.15294038768E+03  0.15703252255E+03  0.00000000000E+00 0.  1.
         14    1    5    5    0    0  0.84686294502E+00 -0.44167256630E+02  0.17456632324E+03  0.18006905604E+03  0.00000000000E+00 0. -1.
         13    1    3    3    0    0  0.38556074744E+01  0.39593877990E+02 -0.53569034999E+02  0.66724676051E+02  0.00000000000E+00 0. -1.
        -14    1    3    3    0    0 -0.37172102649E+02 -0.27098004316E+02 -0.92306462719E+02  0.10313365170E+03  0.00000000000E+00 0.  1.
          5    1    4    4  501    0  0.64468786703E+02 -0.30347833570E+02 -0.53836586500E+02  0.89403947941E+02  0.41800000000E+01 0. -1.
         -5    1    4    4    0  501 -0.39988517179E+02  0.27311565550E+02  0.97014338928E+00  0.48614984287E+02  0.41800000000E+01 0. -1.
</event>
<event>
11    1  0.9238666E-009  0.1393505E+03  0.7561462E-02  0.1108286E+00
         22   -1    0    0    0    0  0.00000000000E+00  0.00000000000E+00  0.34222128403E+03  0.34222128403E+03  0.00000000000E+00 0. -1.
         22   -1    0    0    0    0 -0.00000000000E+00 -0.00000000000E+00 -0.62924906460E+03  0.62924906460E+03  0.00000000000E+00 0. -1.
         24    2    1    2    0    0  0.31219736993E+02 -0.15033499480E+02 -0.56325254374E+03  0.56789927965E+03  0.63682695586E+02 0.  0.
         25    2    1    2    0    0  0.91395866029E+01  0.62892691668E+02  0.38975063465E+02  0.14560676474E+03  0.12507298532E+03 0.  0.
        -24    2    1    2    0    0 -0.40359323596E+02 -0.47859192188E+02  0.23724969971E+03  0.25796430424E+03  0.79616486797E+02 0.  0.
        -13    1    3    3    0    0 -0.44057505575E+01  0.14907789188E+02 -0.45961656039E+02  0.48519342971E+02  0.00000000000E+00 0.  1.
         14    1    3    3    0    0  0.35625487551E+02 -0.29941288669E+02 -0.51729088770E+03  0.51937993668E+03  0.00000000000E+00 0. -1.
         13    1    5    5    0    0 -0.39780276551E+02 -0.68868787549E+02  0.19930387672E+03  0.21458661556E+03  0.00000000000E+00 0. -1.
        -14    1    5    5    0    0 -0.57904704471E+00  0.21009595361E+02  0.37945822991E+02  0.43377688680E+02  0.00000000000E+00 0.  1.
          5    1    4    4  501    0  0.28609735436E+00 -0.38328117574E+02  0.12346219171E+02  0.40484910476E+02  0.41800000000E+01 0.  1.
         -5    1    4    4    0  501  0.88534892485E+01  0.10122080924E+03  0.26628844294E+02  0.10512185426E+03  0.41800000000E+01 0.  1.
</event>
<event>
11    1  0.9238666E-009  0.1860686E+03  0.7561462E-02  0.1064837E+00
         22   -1    0    0    0    0  0.00000000000E+00  0.00000000000E+00  0.76621001310E+03  0.76621001310E+03  0.00000000000E+00 0. -1.
         22   -1    0    0    0    0 -0.00000000000E+00 -0.00000000000E+00 -0.43194419564E+03  0.43194419564E+03  0.00000000000E+00 0. -1.
        -24    2    1    2    0    0  0.12683367219E+03  0.49488798729E+02 -0.30669356208E+03  0.34564603523E+03  0.82911513359E+02 0.  0.
         25    2    1    2    0    0 -0.13288982807E+03 -0.57559417219E+02 -0.14598644915E+02  0.19195762386E+03  0.12514717739E+03 0.  0.
         24    2    1    2    0    0  0.60561558775E+01  0.80706184898E+01  0.65555802446E+03  0.66055054966E+03  0.80429430638E+02 0.  0.
        -13    1    5    5    0    0 -0.58745547415E+01  0.12755345428E+02  0.17841599250E+02  0.22705327441E+02  0.00000000000E+00 0.  1.
         14    1    5    5    0    0  0.11930710619E+02 -0.46847269385E+01  0.63771642521E+03  0.63784522221E+03  0.00000000000E+00 0. -1.
         13    1    3    3    0    0  0.84938508235E+02  0.65978881500E+01 -0.24598756561E+03  0.26032280873E+03  0.00000000000E+00 0. -1.
        -14    1    3    3    0    0  0.41895163960E+02  0.42890910580E+02 -0.60705996472E+02  0.85323226505E+02  0.00000000000E+00 0.  1.
          5    1    4    4  501    0 -0.23421030454E+02  0.38753480378E+02 -0.14008239460E+01  0.45495182346E+02  0.41800000000E+01 0.  1.
         -5    1    4    4    0  501 -0.10946879762E+03 -0.96312897597E+02 -0.13197820969E+02  0.14646244151E+03  0.41800000000E+01 0.  1.
</event>
<event>
11    1  0.9238666E-009  0.1464834E+03  0.7561462E-02  0.1100527E+00
         22   -1    0    0    0    0  0.00000000000E+00  0.00000000000E+00  0.15264945448E+04  0.15264945448E+04  0.00000000000E+00 0. -1.
         22   -1    0    0    0    0 -0.00000000000E+00 -0.00000000000E+00 -0.19156647267E+03  0.19156647267E+03  0.00000000000E+00 0. -1.
        -24    2    1    2    0    0  0.76000120792E+02 -0.17861949722E+02 -0.15621555269E+03  0.19196585758E+03  0.79702722449E+02 0.  0.
         25    2    1    2    0    0 -0.33018747408E+02  0.49885632083E+02  0.29372664911E+03  0.32481126184E+03  0.12509275540E+03 0.  0.
         24    2    1    2    0    0 -0.42981373384E+02 -0.32023682361E+02  0.11974169757E+04  0.12012838981E+04  0.80016718756E+02 0.  0.
        -13    1    5    5    0    0 -0.32210538583E+02 -0.53135794835E+02  0.56190698882E+03  0.56533211086E+03  0.00000000000E+00 0.  1.
         14    1    5    5    0    0 -0.10770834801E+02  0.21112112474E+02  0.63550998692E+03  0.63595178720E+03  0.00000000000E+00 0. -1.
         13    1    3    3    0    0  0.43654357224E+02  0.30470529054E+02 -0.80031413726E+02  0.96120670142E+02  0.00000000000E+00 0. -1.
        -14    1    3    3    0    0  0.32345763568E+02 -0.48332478776E+02 -0.76184138963E+02  0.95845187437E+02  0.00000000000E+00 0.  1.
          5    1    4    4  501    0 -0.47424752278E+02 -0.25034881761E+02  0.69244727141E+02  0.87682136552E+02  0.41800000000E+01 0. -1.
         -5    1    4    4    0  501  0.14406004869E+02  0.74920513844E+02  0.22448192197E+03  0.23712912529E+03  0.41800000000E+01 0. -1.
</event>
<event>
11    1  0.9238666E-009  0.2252634E+03  0.7561462E-02  0.1037970E+00
         22   -1    0    0    0    0  0.00000000000E+00  0.00000000000E+00  0.23840776932E+03  0.23840776932E+03  0.00000000000E+00 0.  1.
         22   -1    0    0    0    0 -0.00000000000E+00 -0.00000000000E+00 -0.72970660570E+03  0.72970660570E+03  0.00000000000E+00 0.  1.
         24    2    1    2    0    0 -0.33351517035E+02  0.25761961399E+02 -0.36215946583E+03  0.37293815063E+03  0.78405249560E+02 0.  0.
         25    2    1    2    0    0 -0.13758982113E+03  0.65124306476E+02 -0.27600236887E+03  0.33911132646E+03  0.12508816867E+03 0.  0.
        -24    2    1    2    0    0  0.17094133816E+03 -0.90886267876E+02  0.14686299832E+03  0.25606489794E+03  0.80741791553E+02 0.  0.
        -13    1    3    3    0    0 -0.20285765042E+02  0.32423315562E+02 -0.35418584427E+03  0.35624485391E+03  0.00000000000E+00 0.  1.
         14    1    3    3    0    0 -0.13065751993E+02 -0.66613541624E+01 -0.79736215547E+01  0.16693296712E+02  0.00000000000E+00 0. -1.
         11    1    5    5    0    0  0.13572044297E+02  0.52857546672E+01 -0.67393035326E+01  0.16048607444E+02  0.00000000000E+00 0. -1.
        -12    1    5    5    0    0  0.15736929387E+03 -0.96172022543E+02  0.15360230185E+03  0.24001629050E+03  0.00000000000E+00 0.  1.
          5    1    4    4  501    0  0.77708970383E+01 -0.21693424170E+02 -0.61485643642E+02  0.65794743460E+02  0.41800000000E+01 0.  1.
         -5    1    4    4    0  501 -0.14536071817E+03  0.86817730646E+02 -0.21451672523E+03  0.27331658300E+03  0.41800000000E+01 0.  1.
</event>
<event>
11    1  0.9238666E-009  0.1877251E+03  0.7561462E-02  0.1063560E+00
         22   -1    0    0    0    0  0.00000000000E+00  0.00000000000E+00  0.30253298601E+03  0.30253298601E+03  0.00000000000E+00 0. -1.
         22   -1    0    0    0    0 -0.00000000000E+00 -0.00000000000E+00 -0.87470624315E+03  0.87470624315E+03  0.00000000000E+00 0.  1.
        -24    2    1    2    0    0  0.89242837293E+02  0.12145514286E+03 -0.73503749981E+03  0.75439840158E+03  0.78238011530E+02 0.  0.
         25    2    1    2    0    0 -0.63916295454E+02 -0.59096759811E+02 -0.69584654461E+02  0.16753339347E+03  0.12509074285E+03 0.  0.
         24    2    1    2    0    0 -0.25326541840E+02 -0.62358383045E+02  0.23244889714E+03  0.25530743411E+03  0.81359661211E+02 0.  0.
        -11    1    5    5    0    0 -0.32680504999E+02 -0.37610701969E+02  0.48422524271E+02  0.69478926060E+02  0.00000000000E+00 0.  1.
         12    1    5    5    0    0  0.73539631597E+01 -0.24747681075E+02  0.18402637286E+03  0.18582850805E+03  0.00000000000E+00 0. -1.
         11    1    3    3    0    0  0.73360161867E+02  0.46101367637E+02 -0.28708945748E+03  0.29987898566E+03  0.00000000000E+00 0. -1.
        -12    1    3    3    0    0  0.15882675427E+02  0.75353775218E+02 -0.44794804233E+03  0.45451941592E+03  0.00000000000E+00 0.  1.
          5    1    4    4  501    0 -0.95161039304E+02 -0.17591436967E+02 -0.27918914927E+02  0.10080684633E+03  0.41800000000E+01 0.  1.
         -5    1    4    4    0  501  0.31244743850E+02 -0.41505322843E+02 -0.41665739535E+02  0.66726547142E+02  0.41800000000E+01 0.  1.
</event>
<event>
11    1  0.9238666E-009  0.1399618E+03  0.7561462E-02  0.1107601E+00
         22   -1    0    0    0    0  0.00000000000E+00  0.00000000000E+00  0.97702755936E+03  0.97702755936E+03  0.00000000000E+00 0. -1.
         22   -1    0    0    0    0 -0.00000000000E+00 -0.00000000000E+00 -0.51768200233E+03  0.51768200233E+03  0.00000000000E+00 0.  1.
        -24    2    1    2    0    0  0.77321843029E+02  0.18792027147E+02 -0.25244711473E+03  0.27656590834E+03  0.80170744214E+02 0.  0.
         25    2    1    2    0    0 -0.41247910408E+02  0.20107493021E+02 -0.23303375588E+03  0.26843754052E+03  0.12509308691E+03 0.  0.
         24    2    1    2    0    0 -0.36073932621E+02 -0.38899520168E+02  0.94482642764E+03  0.94970611283E+03  0.80188659466E+02 0.  0.
        -13    1    5    5    0    0 -0.36938707892E+02 -0.32693369873E+02  0.24835500403E+03  0.25320650189E+03  0.00000000000E+00 0.  1.
         14    1    5    5    0    0  0.86477527057E+00 -0.62061502947E+01  0.69647142361E+03  0.69649961094E+03  0.00000000000E+00 0. -1.
         13    1    3    3    0    0  0.55562742309E+02  0.34377091290E+02 -0.86125807138E+02  0.10810484445E+03  0.00000000000E+00 0. -1.
        -14    1    3    3    0    0  0.21759100720E+02 -0.15585064143E+02 -0.16632130759E+03  0.16846106389E+03  0.00000000000E+00 0.  1.
          5    1    4    4  501    0 -0.44035682240E+02 -0.47703462424E+02 -0.10675492207E+03  0.12501538875E+03  0.41800000000E+01 0.  1.
         -5    1    4    4    0  501  0.27877718318E+01  0.67810955445E+02 -0.12627883381E+03  0.14342215177E+03  0.41800000000E+01 0.  1.
</event>
<event>
11    1  0.9238666E-009  0.1493999E+03  0.7561462E-02  0.1097494E+00
         22   -1    0    0    0    0  0.00000000000E+00  0.00000000000E+00  0.39378669030E+03  0.39378669030E+03  0.00000000000E+00 0. -1.
         22   -1    0    0    0    0 -0.00000000000E+00 -0.00000000000E+00 -0.16940981339E+04  0.16940981339E+04  0.00000000000E+00 0.  1.
        -24    2    1    2    0    0  0.79061472443E+02 -0.65048093276E+01 -0.13439912675E+04  0.13487920005E+04  0.81451239778E+02 0.  0.
         25    2    1    2    0    0 -0.97537428325E+02  0.35049161150E+02 -0.32332338104E+03  0.36183998800E+03  0.12509266391E+03 0.  0.
         24    2    1    2    0    0  0.18475955882E+02 -0.28544351822E+02  0.36700320498E+03  0.37725283570E+03  0.80450037987E+02 0.  0.
        -11    1    5    5    0    0 -0.78987420816E+01 -0.32254641283E+02  0.55959445706E+02  0.65070819685E+02  0.00000000000E+00 0.  1.
         12    1    5    5    0    0  0.26374697963E+02  0.37102894608E+01  0.31104375927E+03  0.31218201601E+03  0.00000000000E+00 0. -1.
         13    1    3    3    0    0  0.37927175586E+02 -0.22454493192E+02 -0.24617512960E+03  0.25008972259E+03  0.00000000000E+00 0. -1.
        -14    1    3    3    0    0  0.41134296857E+02  0.15949683864E+02 -0.10978161379E+04  0.10987022779E+04  0.00000000000E+00 0.  1.
          5    1    4    4  501    0 -0.12730991602E+03  0.28822897596E+02 -0.27731024022E+03  0.30652408694E+03  0.41800000000E+01 0.  1.
         -5    1    4    4    0  501  0.29772487696E+02  0.62262635540E+01 -0.46013140820E+02  0.55315901056E+02  0.41800000000E+01 0.  1.
</event>
<event>
11    1  0.9238666E-009  0.1689980E+03  0.7561462E-02  0.1078907E+00
         22   -1    0    0    0    0  0.00000000000E+00  0.00000000000E+00  0.44666229857E+03  0.44666229857E+03  0.00000000000E+00 0.  1.
         22   -1    0    0    0    0 -0.00000000000E+00 -0.00000000000E+00 -0.52140388120E+03  0.52140388120E+03  0.00000000000E+00 0.  1.
         24    2    1    2    0    0 -0.85995807667E+02 -0.70943774309E+02 -0.21114369263E+03  0.25169741258E+03  0.79634355081E+02 0.  0.
         25    2    1    2    0    0  0.71327209928E+02  0.94180747607E+02 -0.25858749419E+03  0.31060107198E+03  0.12509176497E+03 0.  0.
        -24    2    1    2    0    0  0.14668597739E+02 -0.23236973298E+02  0.39498960420E+03  0.40576769522E+03  0.88744072334E+02 0.  0.
        -11    1    3    3    0    0 -0.96413167220E+02 -0.40050667201E+02 -0.16070384971E+03  0.19163841491E+03  0.00000000000E+00 0.  1.
         12    1    3    3    0    0  0.10417359553E+02 -0.30893107108E+02 -0.50439842920E+02  0.60058997666E+02  0.00000000000E+00 0. -1.
         13    1    5    5    0    0 -0.10450205448E+02 -0.48785153793E+02  0.14776780088E+03  0.15596320400E+03  0.00000000000E+00 0. -1.
        -14    1    5    5    0    0  0.25118803187E+02  0.25548180495E+02  0.24722180332E+03  0.24980449123E+03  0.00000000000E+00 0.  1.
          5    1    4    4  501    0  0.75524659961E+02  0.16052888522E+01 -0.85090731224E+02  0.11386156575E+03  0.41800000000E+01 0.  1.
         -5    1    4    4    0  501 -0.41974500327E+01  0.92575458755E+02 -0.17349676297E+03  0.19673950623E+03  0.41800000000E+01 0.  1.
</event>
<event>
11    1  0.9238666E-009  0.1282153E+03  0.7561462E-02  0.1121481E+00
         22   -1    0    0    0    0  0.00000000000E+00  0.00000000000E+00  0.18738309850E+03  0.18738309850E+03  0.00000000000E+00 0.  1.
         22   -1    0    0    0    0 -0.00000000000E+00 -0.00000000000E+00 -0.58180954554E+03  0.58180954554E+03  0.00000000000E+00 0. -1.
         24    2    1    2    0    0 -0.25502502412E+02 -0.10761021134E+02 -0.50275968086E+03  0.50984851029E+03  0.80075149331E+02 0.  0.
         25    2    1    2    0    0  0.41675239873E+02 -0.44531833423E+01  0.13170308323E+02  0.13258569458E+03  0.12509537532E+03 0.  0.
        -24    2    1    2    0    0 -0.16172737461E+02  0.15214204476E+02  0.95162925502E+02  0.12675843916E+03  0.80738405078E+02 0.  0.
        -11    1    3    3    0    0  0.15830572129E+02 -0.27386292238E+02 -0.10667696122E+03  0.11126809997E+03  0.00000000000E+00 0.  1.
         12    1    3    3    0    0 -0.41333074540E+02  0.16625271104E+02 -0.39608271964E+03  0.39858041032E+03  0.00000000000E+00 0. -1.
         11    1    5    5    0    0 -0.24359490705E+02  0.83751849404E+01 -0.48216360078E+01  0.26206424479E+02  0.00000000000E+00 0. -1.
        -12    1    5    5    0    0  0.81867532438E+01  0.68390195360E+01  0.99984561510E+02  0.10055201469E+03  0.00000000000E+00 0.  1.
          5    1    4    4  501    0 -0.17879719815E+02  0.73041675783E+01 -0.44537403507E+02  0.48724613449E+02  0.41800000000E+01 0.  1.
         -5    1    4    4    0  501  0.59554959688E+02 -0.11757350921E+02  0.57707711830E+02  0.83861081133E+02  0.41800000000E+01 0.  1.
</event>
<event>
11    1  0.9238666E-009  0.1401452E+03  0.7561462E-02  0.1107396E+00
         22   -1    0    0    0    0  0.00000000000E+00  0.00000000000E+00  0.25570242557E+04  0.25570242557E+04  0.00000000000E+00 0.  1.
         22   -1    0    0    0    0 -0.00000000000E+00 -0.00000000000E+00 -0.23812900896E+02  0.23812900896E+02  0.00000000000E+00 0. -1.
        -24    2    1    2    0    0  0.56591274965E+02 -0.25031453899E+02  0.16236013950E+03  0.19347865837E+03  0.85111869087E+02 0.  0.
         25    2    1    2    0    0 -0.71305860788E+02  0.69921095073E+01  0.75010328993E+03  0.76382929568E+03  0.12508729749E+03 0.  0.
         24    2    1    2    0    0  0.14714585823E+02  0.18039344391E+02  0.16207479254E+04  0.16235292025E+04  0.92093957152E+02 0.  0.
        -13    1    5    5    0    0  0.41346544582E+02 -0.20186375081E+02  0.98656720899E+03  0.98763955183E+03  0.00000000000E+00 0.  1.
         14    1    5    5    0    0 -0.26631958759E+02  0.38225719472E+02  0.63418071637E+03  0.63588965070E+03  0.00000000000E+00 0. -1.
         11    1    3    3    0    0  0.14274741613E+02 -0.42292390398E+02  0.30866085952E+02  0.54269050072E+02  0.00000000000E+00 0. -1.
        -12    1    3    3    0    0  0.42316533353E+02  0.17260936500E+02  0.13149405355E+03  0.13920960830E+03  0.00000000000E+00 0.  1.
          5    1    4    4  501    0 -0.85818408206E+02  0.78531421800E+01  0.74134711878E+03  0.74635078479E+03  0.41800000000E+01 0.  1.
         -5    1    4    4    0  501  0.14512547418E+02 -0.86103267265E+00  0.87561711559E+01  0.17478510896E+02  0.41800000000E+01 0.  1.
</event>
<event>
11    1  0.9238666E-009  0.1413458E+03  0.7561462E-02  0.1106065E+00
         22   -1    0    0    0    0  0.00000000000E+00  0.00000000000E+00  0.21316036663E+04  0.21316036663E+04  0.00000000000E+00 0. -1.
         22   -1    0    0    0    0 -0.00000000000E+00 -0.00000000000E+00 -0.69566670096E+02  0.69566670096E+02  0.00000000000E+00 0. -1.
        -24    2    1    2    0    0  0.98260573872E+01 -0.97976078832E+02  0.57889186562E+02  0.14445297507E+03  0.88428732094E+02 0.  0.
         25    2    1    2    0    0 -0.42684693560E+02 -0.23219787628E+01  0.15839876682E+03  0.20631178278E+03  0.12508799995E+03 0.  0.
         24    2    1    2    0    0  0.32858636173E+02  0.10029805760E+03  0.18457490428E+04  0.18504055785E+04  0.77922305607E+02 0.  0.
        -11    1    5    5    0    0  0.23202868752E+02 -0.45760960963E+01  0.49088359040E+03  0.49145296122E+03  0.00000000000E+00 0.  1.
         12    1    5    5    0    0  0.96557674212E+01  0.10487415369E+03  0.13548654524E+04  0.13589526173E+04  0.00000000000E+00 0. -1.
         13    1    3    3    0    0 -0.94234592074E+01 -0.26351755289E+02 -0.21886202367E+02  0.35527770043E+02  0.00000000000E+00 0. -1.
        -14    1    3    3    0    0  0.19249516595E+02 -0.71624323544E+02  0.79775388929E+02  0.10892520503E+03  0.00000000000E+00 0.  1.
          5    1    4    4  501    0 -0.59536782859E+02 -0.33029850226E+02  0.32492276733E+02  0.75556733429E+02  0.41800000000E+01 0. -1.
         -5    1    4    4    0  501  0.16852089299E+02  0.30707871464E+02  0.12590649009E+03  0.13075504935E+03  0.41800000000E+01 0. -1.
</event>
<event>
11    1  0.9238666E-009  0.1358645E+03  0.7561462E-02  0.1112266E+00
         22   -1    0    0    0    0  0.00000000000E+00  0.00000000000E+00  0.21090134253E+04  0.21090134253E+04  0.00000000000E+00 0.  1.
         22   -1    0    0    0    0 -0.00000000000E+00 -0.00000000000E+00 -0.68195298025E+02  0.68195298025E+02  0.00000000000E+00 0.  1.
        -24    2    1    2    0    0 -0.40459919432E+02 -0.40883743699E+02 -0.11459782868E+01  0.99183927153E+02  0.80793889372E+02 0.  0.
         25    2    1    2    0    0 -0.14546059605E+02  0.49619902379E+02  0.25829509708E+03  0.29160782657E+03  0.12508015340E+03 0.  0.
         24    2    1    2    0    0  0.55005979038E+02 -0.87361586799E+01  0.17836690085E+04  0.17864169696E+04  0.81905306830E+02 0.  0.
        -11    1    5    5    0    0  0.44013168456E+02  0.13163400280E+02  0.16421349483E+04  0.16427774111E+04  0.00000000000E+00 0.  1.
         12    1    5    5    0    0  0.10992810582E+02 -0.21899558960E+02  0.14153406020E+03  0.14363955850E+03  0.00000000000E+00 0. -1.
         11    1    3    3    0    0 -0.21656209941E+02 -0.19557058103E+02  0.39789842643E+02  0.49342694781E+02  0.00000000000E+00 0. -1.
        -12    1    3    3    0    0 -0.18803709492E+02 -0.21326685596E+02 -0.40935820930E+02  0.49841232372E+02  0.00000000000E+00 0.  1.
          5    1    4    4  501    0  0.18199263986E+02  0.67192866211E+02  0.24009277487E+03  0.25001621433E+03  0.41800000000E+01 0.  1.
         -5    1    4    4    0  501 -0.32745323591E+02 -0.17572963832E+02  0.18202322208E+02  0.41591612240E+02  0.41800000000E+01 0.  1.
</event>
<event>
11    1  0.9238666E-009  0.1267063E+03  0.7561462E-02  0.1123383E+00
         22   -1    0    0    0    0  0.00000000000E+00  0.00000000000E+00  0.72130426277E+03  0.72130426277E+03  0.00000000000E+00 0. -1.
         22   -1    0    0    0    0 -0.00000000000E+00 -0.00000000000E+00 -0.41101116560E+03  0.41101116560E+03  0.00000000000E+00 0.  1.
        -24    2    1    2    0    0 -0.59309240340E+01 -0.66422856063E+01 -0.37693947704E+03  0.38421309461E+03  0.73871759847E+02 0.  0.
         25    2    1    2    0    0 -0.14255417903E+02  0.12916290835E+01  0.11665566651E+03  0.17164226515E+03  0.12509051687E+03 0.  0.
         24    2    1    2    0    0  0.20186341937E+02  0.53506565228E+01  0.57057690769E+03  0.57646006861E+03  0.79448632343E+02 0.  0.
        -11    1    5    5    0    0  0.85256306211E+01  0.16194881146E+02  0.26817252330E+02  0.32467300093E+02  0.00000000000E+00 0.  1.
         12    1    5    5    0    0  0.11660711315E+02 -0.10844224623E+02  0.54375965536E+03  0.54399276852E+03  0.00000000000E+00 0. -1.
         11    1    3    3    0    0  0.27601092327E+02  0.17533280864E+02 -0.14771462806E+03  0.15129060638E+03  0.00000000000E+00 0. -1.
        -12    1    3    3    0    0 -0.33532016361E+02 -0.24175566470E+02 -0.22922484898E+03  0.23292248824E+03  0.00000000000E+00 0.  1.
          5    1    4    4  501    0  0.22498769078E+02  0.47839672982E+02  0.17165798469E+02  0.55740164676E+02  0.41800000000E+01 0. -1.
         -5    1    4    4    0  501 -0.36754186980E+02 -0.46548043899E+02  0.99489868044E+02  0.11590210048E+03  0.41800000000E+01 0. -1.
</event>
<event>
11    1  0.9238666E-009  0.2860813E+03  0.7561462E-02  0.1006260E+00
         22   -1    0    0    0    0  0.00000000000E+00  0.00000000000E+00  0.64974868810E+03  0.64974868810E+03  0.00000000000E+00 0. -1.
         22   -1    0    0    0    0 -0.00000000000E+00 -0.00000000000E+00 -0.52808181942E+03  0.52808181942E+03  0.00000000000E+00 0.  1.
         24    2    1    2    0    0 -0.19847636779E+02 -0.26579680409E+03 -0.42883528542E+03  0.51037813485E+03  0.74459846690E+02 0.  0.
         25    2    1    2    0    0 -0.60915675410E+02  0.16430854435E+03  0.40061294264E+03  0.45480355382E+03  0.12509006955E+03 0.  0.
        -24    2    1    2    0    0  0.80763312189E+02  0.10148825975E+03  0.14988921146E+03  0.21264881884E+03  0.77007564447E+02 0.  0.
        -11    1    3    3    0    0 -0.11734977313E+02 -0.23854312125E+03 -0.41485645366E+03  0.47869239344E+03  0.00000000000E+00 0.  1.
         12    1    3    3    0    0 -0.81126594668E+01 -0.27253682840E+02 -0.13978831752E+02  0.31685741416E+02  0.00000000000E+00 0. -1.
         11    1    5    5    0    0  0.14453681388E+02  0.72613408331E+02  0.10148547562E+03  0.12562212280E+03  0.00000000000E+00 0. -1.
        -12    1    5    5    0    0  0.66309630801E+02  0.28874851414E+02  0.48403735841E+02  0.87026696045E+02  0.00000000000E+00 0.  1.
          5    1    4    4  501    0  0.20281977621E+02  0.94244843552E+01  0.13406332795E+03  0.13598024791E+03  0.41800000000E+01 0. -1.
         -5    1    4    4    0  501 -0.81197653031E+02  0.15488405999E+03  0.26654961469E+03  0.31882330591E+03  0.41800000000E+01 0. -1.
</event>
<event>
11    1  0.9238666E-009  0.2098273E+03  0.7561462E-02  0.1047784E+00
         22   -1    0    0    0    0  0.00000000000E+00  0.00000000000E+00  0.92861008930E+03  0.92861008930E+03  0.00000000000E+00 0. -1.
         22   -1    0    0    0    0 -0.00000000000E+00 -0.00000000000E+00 -0.41281510659E+03  0.41281510659E+03  0.00000000000E+00 0.  1.
        -24    2    1    2    0    0  0.13024198708E+03 -0.83023385545E+02 -0.14738672079E+03  0.22762325621E+03  0.78953426510E+02 0.  0.
         25    2    1    2    0    0 -0.31427507084E+01  0.19642008365E+03 -0.15121324725E+03  0.27767561020E+03  0.12509025627E+03 0.  0.
         24    2    1    2    0    0 -0.12709923637E+03 -0.11339669810E+03  0.81439495075E+03  0.83612632947E+03  0.82795386375E+02 0.  0.
        -13    1    5    5    0    0 -0.46840239494E+02  0.41484008227E+01  0.20909180934E+03  0.21431425991E+03  0.00000000000E+00 0.  1.
         14    1    5    5    0    0 -0.80258996879E+02 -0.11754509893E+03  0.60530314141E+03  0.62181206957E+03  0.00000000000E+00 0. -1.
         11    1    3    3    0    0  0.13373755871E+02 -0.21124617956E+02  0.53708267949E+01  0.25572497147E+02  0.00000000000E+00 0. -1.
        -12    1    3    3    0    0  0.11686823121E+03 -0.61898767589E+02 -0.15275754758E+03  0.20205075906E+03  0.00000000000E+00 0.  1.
          5    1    4    4  501    0  0.22150910939E+02  0.12415207627E+02 -0.70625025031E+02  0.75167591397E+02  0.41800000000E+01 0. -1.
         -5    1    4    4    0  501 -0.25293661647E+02  0.18400487602E+03 -0.80588222223E+02  0.20250801881E+03  0.41800000000E+01 0. -1.
</event>
<event>
11    1  0.9238666E-009  0.1619478E+03  0.7561462E-02  0.1085259E+00
         22   -1    0    0    0    0  0.00000000000E+00  0.00000000000E+00  0.28788678774E+04  0.28788678774E+04  0.00000000000E+00 0. -1.
         22   -1    0    0    0    0 -0.00000000000E+00 -0.00000000000E+00 -0.20277832643E+03  0.20277832643E+03  0.00000000000E+00 0. -1.
        -24    2    1    2    0    0 -0.34053808373E+02 -0.26580948724E+02 -0.15180099074E+03  0.17697293606E+03  0.80060418478E+02 0.  0.
         25    2    1    2    0    0 -0.80962898716E+01  0.11992078117E+03  0.16777928324E+03  0.24133675123E+03  0.12508795283E+03 0.  0.
         24    2    1    2    0    0  0.42150098245E+02 -0.93339832445E+02  0.26601112585E+04  0.26633365166E+04  0.81734557298E+02 0.  0.
        -11    1    5    5    0    0 -0.12092943485E+01 -0.31832940524E+02  0.16937530175E+04  0.16940525620E+04  0.00000000000E+00 0.  1.
         12    1    5    5    0    0  0.43359392593E+02 -0.61506891921E+02  0.96635824095E+03  0.96928395454E+03  0.00000000000E+00 0. -1.
         13    1    3    3    0    0 -0.31523916917E+02 -0.51678177493E+02 -0.76462706013E+02  0.97524031795E+02  0.00000000000E+00 0. -1.
        -14    1    3    3    0    0 -0.25298914564E+01  0.25097228769E+02 -0.75338284727E+02  0.79448904261E+02  0.00000000000E+00 0.  1.
          5    1    4    4  501    0 -0.60415331470E+02  0.94178489078E+02  0.13073129807E+03  0.17212711807E+03  0.41800000000E+01 0. -1.
         -5    1    4    4    0  501  0.52319041598E+02  0.25742292091E+02  0.37047985168E+02  0.69209633151E+02  0.41800000000E+01 0. -1.
</event>
<event>
11    1  0.9238666E-009  0.1712666E+03  0.7561462E-02  0.1076935E+00
         22   -1    0    0    0    0  0.00000000000E+00  0.00000000000E+00  0.15183454116E+03  0.15183454116E+03  0.00000000000E+00 0.  1.
         22   -1    0    0    0    0 -0.00000000000E+00 -0.00000000000E+00 -0.25078340202E+04  0.25078340202E+04  0.00000000000E+00 0.  1.
        -24    2    1    2    0    0  0.16769286064E+02 -0.20132396346E+02 -0.19727844503E+04  0.19745334740E+04  0.78850685376E+02 0.  0.
         25    2    1    2    0    0  0.10020905316E+03  0.35073580110E+02 -0.48436187069E+03  0.51139618188E+03  0.12509045813E+03 0.  0.
         24    2    1    2    0    0 -0.11697833922E+03 -0.14941183764E+02  0.10114684194E+03  0.17373890540E+03  0.77764727182E+02 0.  0.
        -13    1    5    5    0    0 -0.10173217624E+03 -0.15109436375E+02  0.11418680446E+03  0.15367614344E+03  0.00000000000E+00 0.  1.
         14    1    5    5    0    0 -0.15246162986E+02  0.16825261090E+00 -0.13039962520E+02  0.20062761955E+02  0.00000000000E+00 0. -1.
         11    1    3    3    0    0 -0.21769026705E+02 -0.27128382213E+02 -0.49054860362E+03  0.49178020716E+03  0.00000000000E+00 0. -1.
        -12    1    3    3    0    0  0.38538312769E+02  0.69959858670E+01 -0.14822358467E+04  0.14827532669E+04  0.00000000000E+00 0.  1.
          5    1    4    4  501    0  0.46125336866E+02 -0.15958245650E+02 -0.47510541987E+02  0.68241748989E+02  0.41800000000E+01 0. -1.
         -5    1    4    4    0  501  0.54083716294E+02  0.51031825760E+02 -0.43685132870E+03  0.44315443290E+03  0.41800000000E+01 0. -1.
</event>
<event>
11    1  0.9238666E-009  0.1376610E+03  0.7561462E-02  0.1110199E+00
         22   -1    0    0    0    0  0.00000000000E+00  0.00000000000E+00  0.35300027623E+03  0.35300027623E+03  0.00000000000E+00 0.  1.
         22   -1    0    0    0    0 -0.00000000000E+00 -0.00000000000E+00 -0.45262898136E+03  0.45262898136E+03  0.00000000000E+00 0.  1.
         24    2    1    2    0    0 -0.55506814211E+02  0.15606371996E+02 -0.41116363089E+03  0.42322603415E+03  0.82098595241E+02 0.  0.
         25    2    1    2    0    0  0.45346836494E+02 -0.27037587079E+02  0.16149045539E+03  0.21098930256E+03  0.12509976785E+03 0.  0.
        -24    2    1    2    0    0  0.10159977717E+02  0.11431215083E+02  0.15004447038E+03  0.17141392088E+03  0.81458525363E+02 0.  0.
        -11    1    3    3    0    0 -0.25377016404E+02  0.42437464014E+02 -0.31627044448E+03  0.32011236366E+03  0.00000000000E+00 0.  1.
         12    1    3    3    0    0 -0.30129797807E+02 -0.26831092018E+02 -0.94893186412E+02  0.10311367049E+03  0.00000000000E+00 0. -1.
         13    1    5    5    0    0  0.33871840515E+02 -0.13466384348E+02  0.32133191621E+02  0.48592047611E+02  0.00000000000E+00 0. -1.
        -14    1    5    5    0    0 -0.23711862798E+02  0.24897599431E+02  0.11791127876E+03  0.12282187327E+03  0.00000000000E+00 0.  1.
          5    1    4    4  501    0  0.52390991192E+02  0.27216789726E+02  0.14011625806E+03  0.15210393741E+03  0.41800000000E+01 0. -1.
         -5    1    4    4    0  501 -0.70441546985E+01 -0.54254376805E+02  0.21374197331E+02  0.58885365155E+02  0.41800000000E+01 0. -1.
</event>
<event>
11    1  0.9238666E-009  0.1457584E+03  0.7561462E-02  0.1101293E+00
         22   -1    0    0    0    0  0.00000000000E+00  0.00000000000E+00  0.20104513722E+04  0.20104513722E+04  0.00000000000E+00 0.  1.
         22   -1    0    0    0    0 -0.00000000000E+00 -0.00000000000E+00 -0.11869456719E+03  0.11869456719E+03  0.00000000000E+00 0.  1.
        -24    2    1    2    0    0 -0.24929758805E+02  0.78465774131E+02 -0.64814255692E+02  0.13220896051E+03  0.80622273067E+02 0.  0.
         25    2    1    2    0    0 -0.18776759696E+02 -0.30152491805E+02  0.21124664491E+03  0.24805952274E+03  0.12508653952E+03 0.  0.
         24    2    1    2    0    0  0.43706518501E+02 -0.48313282326E+02  0.17453244158E+04  0.17488774561E+04  0.90391411132E+02 0.  0.
        -11    1    5    5    0    0  0.55952495052E+02 -0.45192001081E+02  0.17071738198E+04  0.17086882248E+04  0.00000000000E+00 0.  1.
         12    1    5    5    0    0 -0.12245976551E+02 -0.31212812448E+01  0.38150596005E+02  0.40189231317E+02  0.00000000000E+00 0. -1.
         11    1    3    3    0    0  0.20316980925E+02  0.28965365183E+02  0.46140191095E+01  0.35679984115E+02  0.00000000000E+00 0. -1.
        -12    1    3    3    0    0 -0.45246739730E+02  0.49500408948E+02 -0.69428274802E+02  0.96528976397E+02  0.00000000000E+00 0.  1.
          5    1    4    4  501    0 -0.28449149926E+02 -0.49481936679E+02  0.21771718177E+03  0.22511343769E+03  0.41800000000E+01 0. -1.
         -5    1    4    4    0  501  0.96723902298E+01  0.19329444874E+02 -0.64705368615E+01  0.22946085051E+02  0.41800000000E+01 0. -1.
</event>
<event>
11    1  0.9238666E-009  0.2292544E+03  0.7561462E-02  0.1035570E+00
         22   -1    0    0    0    0  0.00000000000E+00  0.00000000000E+00  0.45981524204E+03  0.45981524204E+03  0.00000000000E+00 0.  1.
         22   -1    0    0    0    0 -0.00000000000E+00 -0.00000000000E+00 -0.23593381664E+04  0.23593381664E+04  0.00000000000E+00 0.  1.
        -24    2    1    2    0    0  0.12782633538E+01  0.85039612266E+01 -0.21389876786E+04  0.21405400189E+04  0.81051417212E+02 0.  0.
         25    2    1    2    0    0 -0.17331664932E+03 -0.92600173559E+02 -0.12078401886E+03  0.26239449142E+03  0.12509451163E+03 0.  0.
         24    2    1    2    0    0  0.17203838597E+03  0.84096212332E+02  0.36024877309E+03  0.41621889806E+03  0.82399110533E+02 0.  0.
        -11    1    5    5    0    0  0.80297962014E+02  0.53866527160E+02  0.25817210916E+03  0.27568497130E+03  0.00000000000E+00 0.  1.
         12    1    5    5    0    0  0.91740423954E+02  0.30229685172E+02  0.10207666393E+03  0.14053392677E+03  0.00000000000E+00 0. -1.
         13    1    3    3    0    0  0.35921599073E+02 -0.23456162519E+01 -0.57184961535E+03  0.57298154051E+03  0.00000000000E+00 0. -1.
        -14    1    3    3    0    0 -0.34643335719E+02  0.10849577478E+02 -0.15671380632E+04  0.15675584784E+04  0.00000000000E+00 0.  1.
          5    1    4    4  501    0 -0.47775944563E+02 -0.75320532694E+02 -0.30126407155E+01  0.89343561202E+02  0.41800000000E+01 0.  1.
         -5    1    4    4    0  501 -0.12554070476E+03 -0.17279640865E+02 -0.11777137814E+03  0.17305093022E+03  0.41800000000E+01 0.  1.
</event>
<event>
11    1  0.9238666E-009  0.1312091E+03  0.7561462E-02  0.1117792E+00
         22   -1    0    0    0    0  0.00000000000E+00  0.00000000000E+00  0.10446865976E+04  0.10446865976E+04  0.00000000000E+00 0. -1.
         22   -1    0    0    0    0 -0.00000000000E+00 -0.00000000000E+00 -0.12676523017E+04  0.12676523017E+04  0.00000000000E+00 0. -1.
        -24    2    1    2    0    0  0.31689512291E+01  0.39424885371E+02 -0.12432611153E+04  0.12465208721E+04  0.80942694177E+02 0.  0.
         25    2    1    2    0    0  0.17789477133E+01  0.41464510201E+01  0.17251546943E+03  0.21314218042E+03  0.12509054389E+03 0.  0.
         24    2    1    2    0    0 -0.49478989424E+01 -0.43571336391E+02  0.84777994188E+03  0.85267584678E+03  0.80014540958E+02 0.  0.
        -11    1    5    5    0    0 -0.33981976121E+02 -0.16567237972E+02  0.19131705398E+03  0.19501657165E+03  0.00000000000E+00 0.  1.
         12    1    5    5    0    0  0.29034077179E+02 -0.27004098419E+02  0.65646288790E+03  0.65765927513E+03  0.00000000000E+00 0. -1.
         11    1    3    3    0    0 -0.25603156853E+02 -0.10352726483E+02 -0.61959932908E+03  0.62021450256E+03  0.00000000000E+00 0. -1.
        -12    1    3    3    0    0  0.28772108082E+02  0.49777611854E+02 -0.62366178626E+03  0.62630636951E+03  0.00000000000E+00 0.  1.
          5    1    4    4  501    0 -0.34907145121E+02 -0.17089225116E+00 -0.15110016260E+01  0.35189394860E+02  0.41800000000E+01 0. -1.
         -5    1    4    4    0  501  0.36686092835E+02  0.43173432713E+01  0.17402647106E+03  0.17795278556E+03  0.41800000000E+01 0. -1.
</event>
<event>
11    1  0.9238666E-009  0.1629829E+03  0.7561462E-02  0.1084305E+00
         22   -1    0    0    0    0  0.00000000000E+00  0.00000000000E+00  0.32732855728E+03  0.32732855728E+03  0.00000000000E+00 0. -1.
         22   -1    0    0    0    0 -0.00000000000E+00 -0.00000000000E+00 -0.36193751582E+04  0.36193751582E+04  0.00000000000E+00 0.  1.
        -24    2    1    2    0    0 -0.31577741154E+02  0.92340621952E-01 -0.34387180216E+04  0.34398227478E+04  0.81251105543E+02 0.  0.
         25    2    1    2    0    0 -0.63465086171E+02 -0.49269953021E+02 -0.13001451351E+03  0.19750126339E+03  0.12509048678E+03 0.  0.
         24    2    1    2    0    0  0.95042827325E+02  0.49177612399E+02  0.27668593420E+03  0.30937970426E+03  0.87801586740E+02 0.  0.
        -11    1    5    5    0    0  0.22739023920E+02  0.12896729132E+02  0.59418568585E+01  0.26808478026E+02  0.00000000000E+00 0.  1.
         12    1    5    5    0    0  0.72303803404E+02  0.36280883267E+02  0.27074407734E+03  0.28257122623E+03  0.00000000000E+00 0. -1.
         13    1    3    3    0    0 -0.48168768646E+02 -0.26787529295E+02 -0.23522475727E+04  0.23528932074E+04  0.00000000000E+00 0. -1.
        -14    1    3    3    0    0  0.16591027493E+02  0.26879869917E+02 -0.10864704489E+04  0.10869295405E+04  0.00000000000E+00 0.  1.
          5    1    4    4  501    0 -0.86120932733E+02 -0.70052939017E+02 -0.74048181113E+02  0.13350968072E+03  0.41800000000E+01 0. -1.
         -5    1    4    4    0  501  0.22655846562E+02  0.20782985996E+02 -0.55966332398E+02  0.63991582669E+02  0.41800000000E+01 0. -1.
</event>
<event>
11    1  0.9238666E-009  0.1605568E+03  0.7561462E-02  0.1086555E+00
         22   -1    0    0    0    0  0.00000000000E+00  0.00000000000E+00  0.19476965767E+04  0.19476965767E+04  0.00000000000E+00 0. -1.
         22   -1    0    0    0    0 -0.00000000000E+00 -0.00000000000E+00 -0.53560579681E+03  0.53560579681E+03  0.00000000000E+00 0.  1.
         24    2    1    2    0    0  0.30555567999E+02  0.71002527818E+02 -0.49728109213E+03  0.50949433701E+03  0.79504673826E+02 0.  0.
         25    2    1    2    0    0  0.37177629771E+02  0.11403714669E+02  0.11532361465E+03  0.17452536968E+03  0.12508935887E+03 0.  0.
        -24    2    1    2    0    0 -0.67733197769E+02 -0.82406242487E+02  0.17940482574E+04  0.17992826668E+04  0.86199713043E+02 0.  0.
        -13    1    3    3    0    0  0.53724787302E+02  0.34206633568E+02 -0.35672032245E+03  0.36236147008E+03  0.00000000000E+00 0.  1.
         14    1    3    3    0    0 -0.23169219303E+02  0.36795894251E+02 -0.14056076968E+03  0.14713286692E+03  0.00000000000E+00 0. -1.
         13    1    5    5    0    0 -0.63348658389E+02 -0.50922432131E+02  0.16387579385E+04  0.16407722961E+04  0.00000000000E+00 0. -1.
        -14    1    5    5    0    0 -0.43845393803E+01 -0.31483810356E+02  0.15529031883E+03  0.15851037071E+03  0.00000000000E+00 0.  1.
          5    1    4    4  501    0 -0.44640794745E+02  0.96604985095E+01  0.60555138662E+02  0.75963958595E+02  0.41800000000E+01 0. -1.
         -5    1    4    4    0  501  0.81818424516E+02  0.17432161594E+01  0.54768475988E+02  0.98561411084E+02  0.41800000000E+01 0. -1.
</event>
<event>
11    1  0.9238666E-009  0.1609699E+03  0.7561462E-02  0.1086169E+00
         22   -1    0    0    0    0  0.00000000000E+00  0.00000000000E+00  0.27575157516E+03  0.27575157516E+03  0.00000000000E+00 0. -1.
         22   -1    0    0    0    0 -0.00000000000E+00 -0.00000000000E+00 -0.10001076416E+04  0.10001076416E+04  0.00000000000E+00 0. -1.
        -24    2    1    2    0    0 -0.56113548345E+02  0.58567072165E+01 -0.91208442638E+03  0.91741415250E+03  0.81041316834E+02 0.  0.
         25    2    1    2    0    0  0.11953030773E+03  0.56822434385E+02  0.82781959540E+02  0.20004912497E+03  0.12510202261E+03 0.  0.
         24    2    1    2    0    0 -0.63416759383E+02 -0.62679141601E+02  0.10494640037E+03  0.15839593931E+03  0.78263442788E+02 0.  0.
        -11    1    5    5    0    0 -0.31958316662E+02 -0.41770673627E+02  0.65523211334E+01  0.53000529161E+02  0.00000000000E+00 0.  1.
         12    1    5    5    0    0 -0.31458442721E+02 -0.20908467974E+02  0.98394079241E+02  0.10539541015E+03  0.00000000000E+00 0. -1.
         11    1    3    3    0    0 -0.71544434791E+02  0.86943340861E+01 -0.86008459464E+03  0.86309889789E+03  0.00000000000E+00 0. -1.
        -12    1    3    3    0    0  0.15430886446E+02 -0.28376268696E+01 -0.51999831737E+02  0.54315254611E+02  0.00000000000E+00 0.  1.
          5    1    4    4  501    0  0.71412986273E+02  0.71582682027E+02 -0.21652484593E+01  0.10122280215E+03  0.41800000000E+01 0. -1.
         -5    1    4    4    0  501  0.48117321456E+02 -0.14760247642E+02  0.84947208000E+02  0.98826322817E+02  0.41800000000E+01 0. -1.
</event>
<event>
11    1  0.9238666E-009  0.2035063E+03  0.7561462E-02  0.1052072E+00
         22   -1    0    0    0    0  0.00000000000E+00  0.00000000000E+00  0.69709073462E+03  0.69709073462E+03  0.00000000000E+00 0. -1.
         22   -1    0    0    0    0 -0.00000000000E+00 -0.00000000000E+00 -0.24339043486E+04  0.24339043486E+04  0.00000000000E+00 0.  1.
         24    2    1    2    0    0  0.14699612096E+03 -0.65909691074E+02 -0.23430162446E+04  0.23499421581E+04  0.80938723594E+02 0.  0.
         25    2    1    2    0    0 -0.10871273888E+03  0.10234817396E+03  0.30206212863E+02  0.19712225328E+03  0.12510459278E+03 0.  0.
        -24    2    1    2    0    0 -0.38283382085E+02 -0.36438482882E+02  0.57599641776E+03  0.58393067184E+03  0.80061075861E+02 0.  0.
        -11    1    3    3    0    0  0.15021484206E+03 -0.41896434690E+02 -0.20549108028E+04  0.20608197926E+04  0.00000000000E+00 0.  1.
         12    1    3    3    0    0 -0.32187210980E+01 -0.24013256384E+02 -0.28810544180E+03  0.28912236552E+03  0.00000000000E+00 0. -1.
         13    1    5    5    0    0 -0.53852709876E+02 -0.51149637536E+02  0.46350892275E+03  0.46942190112E+03  0.00000000000E+00 0. -1.
        -14    1    5    5    0    0  0.15569327791E+02  0.14711154655E+02  0.11248749501E+03  0.11450877072E+03  0.00000000000E+00 0.  1.
          5    1    4    4  501    0 -0.56195329581E+02  0.47906472306E+02 -0.48052171119E+02  0.88201069749E+02  0.41800000000E+01 0.  1.
         -5    1    4    4    0  501 -0.52517409294E+02  0.54441701649E+02  0.78258383982E+02  0.10892118353E+03  0.41800000000E+01 0.  1.
</event>
<event>
11    1  0.9238666E-009  0.1431023E+03  0.7561462E-02  0.1104143E+00
         22   -1    0    0    0    0  0.00000000000E+00  0.00000000000E+00  0.30422513167E+03  0.30422513167E+03  0.00000000000E+00 0.  1.
         22   -1    0    0    0    0 -0.00000000000E+00 -0.00000000000E+00 -0.14554479370E+04  0.14554479370E+04  0.00000000000E+00 0.  1.
         24    2    1    2    0    0 -0.56874721833E+02  0.33777253352E+02 -0.91896961974E+03  0.92485911162E+03  0.80520665141E+02 0.  0.
         25    2    1    2    0    0  0.51327271997E+02 -0.70800471463E+02 -0.51559572489E+03  0.53771136352E+03  0.12508942133E+03 0.  0.
        -24    2    1    2    0    0  0.55474498361E+01  0.37023218111E+02  0.28334253933E+03  0.29710259350E+03  0.81150869340E+02 0.  0.
        -11    1    3    3    0    0 -0.58294181306E+02  0.10404552073E+02 -0.84925852431E+03  0.85132044929E+03  0.00000000000E+00 0.  1.
         12    1    3    3    0    0  0.14194594726E+01  0.23372701280E+02 -0.69711095433E+02  0.73538662326E+02  0.00000000000E+00 0. -1.
         13    1    5    5    0    0  0.11354368205E+02  0.62209964019E+02  0.21151426908E+03  0.22076523124E+03  0.00000000000E+00 0. -1.
        -14    1    5    5    0    0 -0.58069183687E+01 -0.25186745907E+02  0.71828270246E+02  0.76337362260E+02  0.00000000000E+00 0.  1.
          5    1    4    4  501    0 -0.94761629599E+01 -0.86474372385E+02 -0.24909513132E+03  0.26388154841E+03  0.41800000000E+01 0.  1.
         -5    1    4    4    0  501  0.60803434957E+02  0.15673900922E+02 -0.26650059356E+03  0.27382981511E+03  0.41800000000E+01 0.  1.
</event>
<event>
11    1  0.9238666E-009  0.1739760E+03  0.7561462E-02  0.1074622E+00
         22   -1    0    0    0    0  0.00000000000E+00  0.00000000000E+00  0.13032479813E+04  0.13032479813E+04  0.00000000000E+00 0. -1.
         22   -1    0    0    0    0 -0.00000000000E+00 -0.00000000000E+00 -0.14855576885E+03  0.14855576885E+03  0.00000000000E+00 0.  1.
        -24    2    1    2    0    0 -0.11218746467E+03 -0.58130686681E+02 -0.73485259079E+02  0.16653303235E+03  0.79799521293E+02 0.  0.
         25    2    1    2    0    0  0.89703834185E+02  0.30710972031E+02  0.20412834569E+03  0.25750035103E+03  0.12509239625E+03 0.  0.
         24    2    1    2    0    0  0.22483630484E+02  0.27419714650E+02  0.10240491259E+04  0.10277703668E+04  0.79862132889E+02 0.  0.
        -11    1    5    5    0    0 -0.50361352795E+01  0.19104493892E+02  0.57608514685E+02  0.60902260299E+02  0.00000000000E+00 0.  1.
         12    1    5    5    0    0  0.27519765763E+02  0.83152207579E+01  0.96644061121E+03  0.96686810651E+03  0.00000000000E+00 0. -1.
         11    1    3    3    0    0  0.96796950621E+01 -0.47725306089E+01 -0.20821089979E+02  0.23451894014E+02  0.00000000000E+00 0. -1.
        -12    1    3    3    0    0 -0.12186715973E+03 -0.53358156072E+02 -0.52664169099E+02  0.14308113834E+03  0.00000000000E+00 0.  1.
          5    1    4    4  501    0  0.14808341620E+02  0.39197572853E+02  0.16912665543E+03  0.17429008772E+03  0.41800000000E+01 0.  1.
         -5    1    4    4    0  501  0.74895492565E+02 -0.84866008213E+01  0.35001690253E+02  0.83210263313E+02  0.41800000000E+01 0.  1.
</event>
<event>
11    1  0.9238666E-009  0.1634722E+03  0.7561462E-02  0.1083856E+00
         22   -1    0    0    0    0  0.00000000000E+00  0.00000000000E+00  0.33686728442E+03  0.33686728442E+03  0.00000000000E+00 0. -1.
         22   -1    0    0    0    0 -0.00000000000E+00 -0.00000000000E+00 -0.19915943991E+04  0.19915943991E+04  0.00000000000E+00 0. -1.
         24    2    1    2    0    0  0.73615964388E+02  0.85503375344E+02 -0.16454515144E+04  0.16513295320E+04  0.81537719853E+02 0.  0.
         25    2    1    2    0    0 -0.36626699528E+02 -0.56185776789E+02 -0.32124409207E+03  0.35120467562E+03  0.12509436783E+03 0.  0.
        -24    2    1    2    0    0 -0.36989264860E+02 -0.29317598554E+02  0.31196849178E+03  0.32592747586E+03  0.81710784813E+02 0.  0.
        -11    1    3    3    0    0  0.51093557615E+02  0.29386018616E+01 -0.47361427736E+03  0.47637135801E+03  0.00000000000E+00 0.  1.
         12    1    3    3    0    0  0.22522406773E+02  0.82564773482E+02 -0.11718372370E+04  0.11749581740E+04  0.00000000000E+00 0. -1.
         13    1    5    5    0    0 -0.18393022407E+02 -0.46673734175E+02  0.28284371317E+03  0.28725825805E+03  0.00000000000E+00 0. -1.
        -14    1    5    5    0    0 -0.18596242454E+02  0.17356135621E+02  0.29124778611E+02  0.38669217812E+02  0.00000000000E+00 0.  1.
          5    1    4    4  501    0 -0.76311649691E+02 -0.12178931681E+02 -0.22670740304E+03  0.23955273584E+03  0.41800000000E+01 0.  1.
         -5    1    4    4    0  501  0.39684950163E+02 -0.44006845108E+02 -0.94536689030E+02  0.11165193979E+03  0.41800000000E+01 0.  1.
</event>
<event>
11    1  0.9238666E-009  0.1432808E+03  0.7561462E-02  0.1103949E+00
         22   -1    0    0    0    0  0.00000000000E+00  0.00000000000E+00  0.11419242342E+04  0.11419242342E+04  0.00000000000E+00 0.  1.
         22   -1    0    0    0    0 -0.00000000000E+00 -0.00000000000E+00 -0.87988863657E+03  0.87988863657E+03  0.00000000000E+00 0.  1.
        -24    2    1    2    0    0 -0.22862353270E+02 -0.66055614141E+02 -0.82294592778E+03  0.83007599020E+03  0.83066949468E+02 0.  0.
         25    2    1    2    0    0 -0.19365040422E+02  0.79510577308E+02  0.57575524982E+02  0.16018151912E+03  0.12508493633E+03 0.  0.
         24    2    1    2    0    0  0.42227393691E+02 -0.13454963167E+02  0.10274060004E+04  0.10315553614E+04  0.81112176595E+02 0.  0.
        -13    1    5    5    0    0  0.66617395641E+02 -0.98615048537E+01  0.79411517019E+03  0.79696551381E+03  0.00000000000E+00 0.  1.
         14    1    5    5    0    0 -0.24390001950E+02 -0.35934583131E+01  0.23329083023E+03  0.23458984762E+03  0.00000000000E+00 0. -1.
         13    1    3    3    0    0  0.73166999442E+01  0.12163066690E+02 -0.30990813581E+03  0.31023302037E+03  0.00000000000E+00 0. -1.
        -14    1    3    3    0    0 -0.30179053214E+02 -0.78218680831E+02 -0.51303779197E+03  0.51984296983E+03  0.00000000000E+00 0.  1.
          5    1    4    4  501    0 -0.25070111547E+02 -0.24431339352E+02  0.42010423186E+02  0.54842947512E+02  0.41800000000E+01 0. -1.
         -5    1    4    4    0  501  0.57050711254E+01  0.10394191666E+03  0.15565101796E+02  0.10533857161E+03  0.41800000000E+01 0. -1.
</event>
<event>
11    1  0.9238666E-009  0.1451445E+03  0.7561462E-02  0.1101946E+00
         22   -1    0    0    0    0  0.00000000000E+00  0.00000000000E+00  0.18431150274E+03  0.18431150274E+03  0.00000000000E+00 0. -1.
         22   -1    0    0    0    0 -0.00000000000E+00 -0.00000000000E+00 -0.87652976903E+03  0.87652976903E+03  0.00000000000E+00 0. -1.
        -24    2    1    2    0    0 -0.57911482997E+02  0.30679023794E+02 -0.64043151360E+03  0.65185660069E+03  0.10232087707E+03 0.  0.
         25    2    1    2    0    0  0.98098265527E+02 -0.89652157305E+02 -0.17076229013E+03  0.24993648365E+03  0.12509079550E+03 0.  0.
         24    2    1    2    0    0 -0.40186782530E+02  0.58973133511E+02  0.11897553743E+03  0.15904818744E+03  0.77771070804E+02 0.  0.
        -11    1    5    5    0    0 -0.13929667983E+02  0.40882413378E+02  0.84422923703E+01  0.44007722893E+02  0.00000000000E+00 0.  1.
         12    1    5    5    0    0 -0.26257114548E+02  0.18090720133E+02  0.11053324506E+03  0.11504046454E+03  0.00000000000E+00 0. -1.
         13    1    3    3    0    0 -0.72631950945E+02  0.56259277673E+02 -0.49699967531E+03  0.50541980955E+03  0.00000000000E+00 0. -1.
        -14    1    3    3    0    0  0.14720467947E+02 -0.25580253879E+02 -0.14343183828E+03  0.14643679114E+03  0.00000000000E+00 0.  1.
          5    1    4    4  501    0  0.19843395925E+02 -0.10126318837E+03 -0.95306304075E+02  0.14053027317E+03  0.41800000000E+01 0.  1.
         -5    1    4    4    0  501  0.78254869602E+02  0.11611031069E+02 -0.75455986055E+02  0.10940621047E+03  0.41800000000E+01 0.  1.
</event>
<event>
11    1  0.9238666E-009  0.1324490E+03  0.7561462E-02  0.1116296E+00
         22   -1    0    0    0    0  0.00000000000E+00  0.00000000000E+00  0.20282380953E+03  0.20282380953E+03  0.00000000000E+00 0.  1.
         22   -1    0    0    0    0 -0.00000000000E+00 -0.00000000000E+00 -0.57566776570E+03  0.57566776570E+03  0.00000000000E+00 0. -1.
        -24    2    1    2    0    0 -0.28097600360E+01  0.44024005289E+02 -0.51504145821E+03  0.52319080942E+03  0.80715002305E+02 0.  0.
         25    2    1    2    0    0 -0.16979849525E+02 -0.28210151272E+02  0.79718878843E+02  0.15194176977E+03  0.12508826416E+03 0.  0.
         24    2    1    2    0    0  0.19789609561E+02 -0.15813854017E+02  0.62478623200E+02  0.10335899604E+03  0.78344094103E+02 0.  0.
        -13    1    5    5    0    0  0.13661834448E+02  0.19642308925E+01  0.77854510990E+02  0.79068507036E+02  0.00000000000E+00 0.  1.
         14    1    5    5    0    0  0.61277751128E+01 -0.17778084910E+02 -0.15375887790E+02  0.24290489008E+02  0.00000000000E+00 0. -1.
         11    1    3    3    0    0 -0.57361945143E+01  0.58411995112E+02 -0.49433439433E+03  0.49780654728E+03  0.00000000000E+00 0. -1.
        -12    1    3    3    0    0  0.29264344783E+01 -0.14387989822E+02 -0.20707063880E+02  0.25384262141E+02  0.00000000000E+00 0.  1.
          5    1    4    4  501    0  0.41672485671E+02 -0.29727481876E+02  0.77632869078E+02  0.93084123254E+02  0.41800000000E+01 0.  1.
         -5    1    4    4    0  501 -0.58652335196E+02  0.15173306040E+01  0.20860097653E+01  0.58857646512E+02  0.41800000000E+01 0.  1.
</event>
<event>
11    1  0.9238666E-009  0.1284405E+03  0.7561462E-02  0.1121200E+00
         22   -1    0    0    0    0  0.00000000000E+00  0.00000000000E+00  0.16645359855E+03  0.16645359855E+03  0.00000000000E+00 0.  1.
         22   -1    0    0    0    0 -0.00000000000E+00 -0.00000000000E+00 -0.76161110012E+03  0.76161110012E+03  0.00000000000E+00 0. -1.
         24    2    1    2    0    0  0.26587100425E+02 -0.12177471340E+02 -0.64196710745E+03  0.64779840155E+03  0.81644579023E+02 0.  0.
         25    2    1    2    0    0 -0.28665882753E+02  0.40844174310E+01 -0.63925395627E+02  0.14343028585E+03  0.12508946955E+03 0.  0.
        -24    2    1    2    0    0  0.20787823277E+01  0.80930539089E+01  0.11073500152E+03  0.13683601128E+03  0.79950200522E+02 0.  0.
        -11    1    3    3    0    0  0.21178702234E+02  0.19697138155E+02 -0.82959445028E+02  0.87856611584E+02  0.00000000000E+00 0.  1.
         12    1    3    3    0    0  0.54083981919E+01 -0.31874609495E+02 -0.55900766243E+03  0.55994178997E+03  0.00000000000E+00 0. -1.
         11    1    5    5    0    0  0.14376526254E+02 -0.22924552504E+02  0.71193054082E+01  0.27980423944E+02  0.00000000000E+00 0. -1.
        -12    1    5    5    0    0 -0.12297743926E+02  0.31017606412E+02  0.10361569611E+03  0.10885558733E+03  0.00000000000E+00 0.  1.
          5    1    4    4  501    0 -0.66130621874E+02  0.38032597500E+02 -0.28450545450E+02  0.81526949890E+02  0.41800000000E+01 0.  1.
         -5    1    4    4    0  501  0.37464739121E+02 -0.33948180069E+02 -0.35474850176E+02  0.61903335955E+02  0.41800000000E+01 0.  1.
</event>
<event>
11    1  0.9238666E-009  0.1358052E+03  0.7561462E-02  0.1112335E+00
         22   -1    0    0    0    0  0.00000000000E+00  0.00000000000E+00  0.33392163222E+03  0.33392163222E+03  0.00000000000E+00 0. -1.
         22   -1    0    0    0    0 -0.00000000000E+00 -0.00000000000E+00 -0.70956099050E+03  0.70956099050E+03  0.00000000000E+00 0.  1.
        -24    2    1    2    0    0  0.41010143579E+02  0.32861010214E+02 -0.62988890494E+03  0.63718824082E+03  0.80542807255E+02 0.  0.
         25    2    1    2    0    0 -0.14806440721E+02 -0.75858686308E+02  0.14128415227E+02  0.14771874882E+03  0.12508975042E+03 0.  0.
         24    2    1    2    0    0 -0.26203702858E+02  0.42997676094E+02  0.24012113143E+03  0.25857563309E+03  0.81656390290E+02 0.  0.
        -11    1    5    5    0    0 -0.33599165810E+02 -0.15297140708E+02  0.10194399636E+03  0.10842271372E+03  0.00000000000E+00 0.  1.
         12    1    5    5    0    0  0.73954629519E+01  0.58294816803E+02  0.13817713507E+03  0.15015291937E+03  0.00000000000E+00 0. -1.
         13    1    3    3    0    0 -0.17525544426E+02  0.31742671447E+02 -0.19096168720E+03  0.19437362958E+03  0.00000000000E+00 0. -1.
        -14    1    3    3    0    0  0.58535688004E+02  0.11183387669E+01 -0.43892721774E+03  0.44281461123E+03  0.00000000000E+00 0.  1.
          5    1    4    4  501    0 -0.37299227834E+02 -0.10056029693E+03  0.28585647822E+02  0.11107752868E+03  0.41800000000E+01 0.  1.
         -5    1    4    4    0  501  0.22492787113E+02  0.24701610620E+02 -0.14457232595E+02  0.36641220144E+02  0.41800000000E+01 0.  1.
</event>
<event>
11    1  0.9238666E-009  0.1410582E+03  0.7561462E-02  0.1106382E+00
         22   -1    0    0    0    0  0.00000000000E+00  0.00000000000E+00  0.97460779815E+03  0.97460779815E+03  0.00000000000E+00 0. -1.
         22   -1    0    0    0    0 -0.00000000000E+00 -0.00000000000E+00 -0.32868065288E+03  0.32868065288E+03  0.00000000000E+00 0. -1.
        -24    2    1    2    0    0 -0.58383600476E+02  0.10092330220E+02 -0.28866301989E+03  0.30542166679E+03  0.80284217367E+02 0.  0.
         25    2    1    2    0    0  0.94270136444E+02  0.40612913809E+02  0.20431738810E+03  0.26063295148E+03  0.12509065881E+03 0.  0.
         24    2    1    2    0    0 -0.35886535968E+02 -0.50705244029E+02  0.73027277706E+03  0.73723383276E+03  0.79727849729E+02 0.  0.
        -13    1    5    5    0    0 -0.12325404666E+02  0.18869649184E+02  0.90777788749E+02  0.93533877235E+02  0.00000000000E+00 0.  1.
         14    1    5    5    0    0 -0.23561131301E+02 -0.69574893213E+02  0.63949498831E+03  0.64369995553E+03  0.00000000000E+00 0. -1.
         11    1    3    3    0    0 -0.66311362239E+02 -0.38745585637E+01 -0.27873575347E+03  0.28654114753E+03  0.00000000000E+00 0. -1.
        -12    1    3    3    0    0  0.79277617634E+01  0.13966888784E+02 -0.99272664213E+01  0.18880519259E+02  0.00000000000E+00 0.  1.
          5    1    4    4  501    0  0.10125455886E+03  0.11814366012E+02  0.71751290933E+02  0.12473085057E+03  0.41800000000E+01 0. -1.
         -5    1    4    4    0  501 -0.69844224150E+01  0.28798547797E+02  0.13256609717E+03  0.13590210091E+03  0.41800000000E+01 0. -1.
</event>
<event>
11    1  0.9238666E-009  0.1844853E+03  0.7561462E-02  0.1066071E+00
         22   -1    0    0    0    0  0.00000000000E+00  0.00000000000E+00  0.35738553783E+03  0.35738553783E+03  0.00000000000E+00 0.  1.
         22   -1    0    0    0    0 -0.00000000000E+00 -0.00000000000E+00 -0.68733802685E+03  0.68733802685E+03  0.00000000000E+00 0.  1.
         24    2    1    2    0    0  0.96296434564E+02 -0.32962004858E+02 -0.53675230235E+03  0.55219693268E+03  0.80367414500E+02 0.  0.
         25    2    1    2    0    0 -0.39070929954E+02  0.15665221232E+03 -0.33070212680E+02  0.20691637264E+03  0.12511711757E+03 0.  0.
        -24    2    1    2    0    0 -0.57225504610E+02 -0.12369020746E+03  0.23987002600E+03  0.28561025936E+03  0.73902402366E+02 0.  0.
        -11    1    3    3    0    0  0.34537703208E+02 -0.54265905296E+02 -0.26021752121E+03  0.26804999489E+03  0.00000000000E+00 0.  1.
         12    1    3    3    0    0  0.61758731357E+02  0.21303900438E+02 -0.27653478114E+03  0.28414693779E+03  0.00000000000E+00 0. -1.
         11    1    5    5    0    0  0.94505146941E+01 -0.40914914403E+02  0.34428216558E+02  0.54301423038E+02  0.00000000000E+00 0. -1.
        -12    1    5    5    0    0 -0.66676019305E+02 -0.82775293059E+02  0.20544180944E+03  0.23130883632E+03  0.00000000000E+00 0.  1.
          5    1    4    4  501    0  0.42584553973E+02  0.38684079390E+02 -0.25826781351E+02  0.63201244214E+02  0.41800000000E+01 0.  1.
         -5    1    4    4    0  501 -0.81655483927E+02  0.11796813293E+03 -0.72434313295E+01  0.14371512843E+03  0.41800000000E+01 0.  1.
</event>
<event>
11    1  0.9238666E-009  0.1321803E+03  0.7561462E-02  0.1116619E+00
         22   -1    0    0    0    0  0.00000000000E+00  0.00000000000E+00  0.12046435457E+04  0.12046435457E+04  0.00000000000E+00 0. -1.
         22   -1    0    0    0    0 -0.00000000000E+00 -0.00000000000E+00 -0.14060115813E+03  0.14060115813E+03  0.00000000000E+00 0.  1.
         24    2    1    2    0    0 -0.35091419349E+02  0.14202068641E+02 -0.88950569259E+02  0.12294896454E+03  0.75968004079E+02 0.  0.
         25    2    1    2    0    0  0.18009629438E+02 -0.53344710172E+02  0.11230175460E+03  0.17728293302E+03  0.12509016508E+03 0.  0.
        -24    2    1    2    0    0  0.17081789911E+02  0.39142641531E+02  0.10406912022E+04  0.10450128063E+04  0.84791821185E+02 0.  0.
        -13    1    3    3    0    0 -0.42915155559E+01 -0.20311312612E+02 -0.69907014612E+02  0.72924325281E+02  0.00000000000E+00 0.  1.
         14    1    3    3    0    0 -0.30799903793E+02  0.34513381252E+02 -0.19043554647E+02  0.50024639257E+02  0.00000000000E+00 0. -1.
         13    1    5    5    0    0  0.90126139888E+01 -0.18628525358E+02  0.61448596204E+03  0.61483432461E+03  0.00000000000E+00 0. -1.
        -14    1    5    5    0    0  0.80691759220E+01  0.57771166888E+02  0.42620524020E+03  0.43017848168E+03  0.00000000000E+00 0.  1.
          5    1    4    4  501    0 -0.34073869197E+01 -0.22620028663E+02  0.13250078189E+03  0.13452585470E+03  0.41800000000E+01 0.  1.
         -5    1    4    4    0  501  0.21417016358E+02 -0.30724681509E+02 -0.20199027283E+02  0.42757078323E+02  0.41800000000E+01 0.  1.
</event>
<event>
11    1  0.9238666E-009  0.1465693E+03  0.7561462E-02  0.1100437E+00
         22   -1    0    0    0    0  0.00000000000E+00  0.00000000000E+00  0.77559406089E+02  0.77559406089E+02  0.00000000000E+00 0.  1.
         22   -1    0    0    0    0 -0.00000000000E+00 -0.00000000000E+00 -0.14356944694E+04  0.14356944694E+04  0.00000000000E+00 0.  1.
        -24    2    1    2    0    0  0.43224194208E+02  0.61018087768E+02 -0.73859209742E+03  0.74669472468E+03  0.80269468034E+02 0.  0.
         25    2    1    2    0    0 -0.90312246087E+02 -0.25651333260E+02 -0.64537694225E+03  0.66405839080E+03  0.12509139103E+03 0.  0.
         24    2    1    2    0    0  0.47088051879E+02 -0.35366754508E+02  0.25833976404E+02  0.10250075996E+03  0.79818039952E+02 0.  0.
        -13    1    5    5    0    0  0.45165570364E+02  0.11122293451E+02  0.30678014312E+02  0.55720505382E+02  0.00000000000E+00 0.  1.
         14    1    5    5    0    0  0.19224815159E+01 -0.46489047959E+02 -0.48440379083E+01  0.46780254580E+02  0.00000000000E+00 0. -1.
         13    1    3    3    0    0  0.17609619506E+02 -0.10309479920E+02 -0.50880983826E+02  0.54820238877E+02  0.00000000000E+00 0. -1.
        -14    1    3    3    0    0  0.25614574702E+02  0.71327567688E+02 -0.68771111359E+03  0.69187448580E+03  0.00000000000E+00 0.  1.
          5    1    4    4  501    0 -0.10391006344E+03 -0.59374685327E+02 -0.50146628946E+03  0.51556625801E+03  0.41800000000E+01 0. -1.
         -5    1    4    4    0  501  0.13597817350E+02  0.33723352067E+02 -0.14391065280E+03  0.14849213279E+03  0.41800000000E+01 0. -1.
</event>
<event>
11    1  0.9238666E-009  0.1466224E+03  0.7561462E-02  0.1100381E+00
         22   -1    0    0    0    0  0.00000000000E+00  0.00000000000E+00  0.11566935608E+03  0.11566935608E+03  0.00000000000E+00 0.  1.
         22   -1    0    0    0    0 -0.00000000000E+00 -0.00000000000E+00 -0.89603171159E+03  0.89603171159E+03  0.00000000000E+00 0. -1.
         24    2    1    2    0    0  0.77931520330E+02  0.12940083494E+02 -0.65260243583E+03  0.66241405085E+03  0.81619041238E+02 0.  0.
         25    2    1    2    0    0 -0.67216693935E+02  0.17169178569E+02 -0.19299817013E+03  0.24022822331E+03  0.12509372871E+03 0.  0.
        -24    2    1    2    0    0 -0.10714826395E+02 -0.30109262063E+02  0.65238250454E+02  0.10905879351E+03  0.81341354512E+02 0.  0.
        -11    1    3    3    0    0  0.27998387519E+02  0.41919865685E+02 -0.20516459189E+03  0.21126688005E+03  0.00000000000E+00 0.  1.
         12    1    3    3    0    0  0.49933132811E+02 -0.28979782191E+02 -0.44743784394E+03  0.45114717080E+03  0.00000000000E+00 0. -1.
         11    1    5    5    0    0  0.10274189245E+02 -0.19039308889E+02 -0.14381301045E+02  0.25978376919E+02  0.00000000000E+00 0. -1.
        -12    1    5    5    0    0 -0.20989015640E+02 -0.11069953174E+02  0.79619551499E+02  0.83080416596E+02  0.00000000000E+00 0.  1.
          5    1    4    4  501    0 -0.55268735638E+02  0.31374088188E+02 -0.20701831287E+03  0.21659413845E+03  0.41800000000E+01 0. -1.
         -5    1    4    4    0  501 -0.11947958297E+02 -0.14204909619E+02  0.14020142734E+02  0.23634084857E+02  0.41800000000E+01 0. -1.
</event>
<event>
11    1  0.9238666E-009  0.2064643E+03  0.7561462E-02  0.1050044E+00
         22   -1    0    0    0    0  0.00000000000E+00  0.00000000000E+00  0.63145142133E+03  0.63145142133E+03  0.00000000000E+00 0.  1.
         22   -1    0    0    0    0 -0.00000000000E+00 -0.00000000000E+00 -0.19625677388E+03  0.19625677388E+03  0.00000000000E+00 0.  1.
         24    2    1    2    0    0 -0.11011725186E+03  0.10165329599E+03 -0.51176095355E+02  0.17589312626E+03  0.76551926079E+02 0.  0.
         25    2    1    2    0    0  0.12507152829E+03 -0.21957475664E+03  0.28593771901E+03  0.40157767549E+03  0.12509312274E+03 0.  0.
        -24    2    1    2    0    0 -0.14954276433E+02  0.11792146065E+03  0.20043302379E+03  0.25023739347E+03  0.91193501953E+02 0.  0.
        -13    1    3    3    0    0 -0.48672468888E+02  0.71847211327E+02 -0.62127724973E+02  0.10672809009E+03  0.00000000000E+00 0.  1.
         14    1    3    3    0    0 -0.61444782974E+02  0.29806084663E+02  0.10951629618E+02  0.69165036174E+02  0.00000000000E+00 0. -1.
         13    1    5    5    0    0 -0.25920566181E+02  0.44344914669E+02  0.20089147702E+02  0.55153613332E+02  0.00000000000E+00 0. -1.
        -14    1    5    5    0    0  0.10966289748E+02  0.73576545977E+02  0.18034387609E+03  0.19508378014E+03  0.00000000000E+00 0.  1.
          5    1    4    4  501    0  0.74365232739E+01 -0.12472919808E+03  0.89716552926E+02  0.15388049585E+03  0.41800000000E+01 0.  1.
         -5    1    4    4    0  501  0.11763500502E+03 -0.94845558551E+02  0.19622116608E+03  0.24769717964E+03  0.41800000000E+01 0.  1.
</event>
<event>
11    1  0.9238666E-009  0.1398852E+03  0.7561462E-02  0.1107687E+00
         22   -1    0    0    0    0  0.00000000000E+00  0.00000000000E+00  0.77823825696E+02  0.77823825696E+02  0.00000000000E+00 0. -1.
         22   -1    0    0    0    0 -0.00000000000E+00 -0.00000000000E+00 -0.10048506953E+04  0.10048506953E+04  0.00000000000E+00 0. -1.
         24    2    1    2    0    0 -0.39931882482E+02 -0.45372634230E+02 -0.42245710954E+03  0.43376810993E+03  0.77662942375E+02 0.  0.
         25    2    1    2    0    0  0.15090892427E+02  0.70096382136E+02 -0.53607171887E+03  0.55512300175E+03  0.12508965374E+03 0.  0.
        -24    2    1    2    0    0  0.24840990056E+02 -0.24723747906E+02  0.31501958759E+02  0.93783409364E+02  0.81084005629E+02 0.  0.
        -13    1    3    3    0    0 -0.24359822272E+02 -0.26711419753E+02 -0.56959120441E+02  0.67462895637E+02  0.00000000000E+00 0.  1.
         14    1    3    3    0    0 -0.15572060211E+02 -0.18661214478E+02 -0.36549798910E+03  0.36630521429E+03  0.00000000000E+00 0. -1.
         11    1    5    5    0    0  0.53138873989E+02 -0.11045391160E+02  0.87338355731E+01  0.54972906768E+02  0.00000000000E+00 0. -1.
        -12    1    5    5    0    0 -0.28297883933E+02 -0.13678356745E+02  0.22768123186E+02  0.38810502596E+02  0.00000000000E+00 0.  1.
          5    1    4    4  501    0  0.67810116614E+02  0.47538444091E+02 -0.25200572876E+03  0.26529695684E+03  0.41800000000E+01 0. -1.
         -5    1    4    4    0  501 -0.52719224187E+02  0.22557938045E+02 -0.28406599011E+03  0.28982604491E+03  0.41800000000E+01 0. -1.
</event>
<event>
11    1  0.9238666E-009  0.1729268E+03  0.7561462E-02  0.1075512E+00
         22   -1    0    0    0    0  0.00000000000E+00  0.00000000000E+00  0.11342300407E+03  0.11342300407E+03  0.00000000000E+00 0.  1.
         22   -1    0    0    0    0 -0.00000000000E+00 -0.00000000000E+00 -0.13075729237E+04  0.13075729237E+04  0.00000000000E+00 0. -1.
         24    2    1    2    0    0 -0.11725039083E+03  0.36683089672E+01 -0.10155164198E+04  0.10255339674E+04  0.81763126238E+02 0.  0.
         25    2    1    2    0    0  0.13190299103E+03 -0.13985127225E+02 -0.23367421808E+03  0.29639580658E+03  0.12511135496E+03 0.  0.
        -24    2    1    2    0    0 -0.14652600204E+02  0.10316818257E+02  0.55040718226E+02  0.99066153786E+02  0.80395812897E+02 0.  0.
        -13    1    3    3    0    0 -0.12143517107E+01  0.21504714553E+02 -0.87065972389E+02  0.89690640237E+02  0.00000000000E+00 0.  1.
         14    1    3    3    0    0 -0.11603603911E+03 -0.17836405586E+02 -0.92845044741E+03  0.93584332719E+03  0.00000000000E+00 0. -1.
         11    1    5    5    0    0  0.22066540577E+02  0.27742181914E+02  0.69889886580E+01  0.36130414236E+02  0.00000000000E+00 0. -1.
        -12    1    5    5    0    0 -0.36719140781E+02 -0.17425363657E+02  0.48051729568E+02  0.62935739550E+02  0.00000000000E+00 0.  1.
          5    1    4    4  501    0  0.22788478876E+02  0.50226769083E+02 -0.79631351733E+02  0.96957040388E+02  0.41800000000E+01 0. -1.
         -5    1    4    4    0  501  0.10911451215E+03 -0.64211896308E+02 -0.15404286635E+03  0.19943876620E+03  0.41800000000E+01 0. -1.
</event>
<event>
11    1  0.9238666E-009  0.1480512E+03  0.7561462E-02  0.1098887E+00
         22   -1    0    0    0    0  0.00000000000E+00  0.00000000000E+00  0.22989159993E+03  0.22989159993E+03  0.00000000000E+00 0. -1.
         22   -1    0    0    0    0 -0.00000000000E+00 -0.00000000000E+00 -0.10850650124E+04  0.10850650124E+04  0.00000000000E+00 0.  1.
        -24    2    1    2    0    0  0.23774533838E+02 -0.76888765343E+02 -0.87776426627E+03  0.88503024728E+03  0.79569596975E+02 0.  0.
         25    2    1    2    0    0 -0.35045241763E+02  0.62007090594E+02 -0.16868452805E+03  0.22175565025E+03  0.12509216666E+03 0.  0.
         24    2    1    2    0    0  0.11270707925E+02  0.14881674750E+02  0.19127538185E+03  0.20817071480E+03  0.80001760595E+02 0.  0.
        -13    1    5    5    0    0  0.42568880881E+02  0.19714062132E+01  0.67314590593E+02  0.79669631408E+02  0.00000000000E+00 0.  1.
         14    1    5    5    0    0 -0.31298172956E+02  0.12910268537E+02  0.12396079125E+03  0.12850108339E+03  0.00000000000E+00 0. -1.
         13    1    3    3    0    0 -0.24782456973E+02 -0.28841997671E+02 -0.18258329506E+03  0.18650118134E+03  0.00000000000E+00 0. -1.
        -14    1    3    3    0    0  0.48556990811E+02 -0.48046767673E+02 -0.69518097120E+03  0.69852906594E+03  0.00000000000E+00 0.  1.
          5    1    4    4  501    0  0.44299276633E+02  0.23933638978E+02 -0.91960386241E+02  0.10492583105E+03  0.41800000000E+01 0.  1.
         -5    1    4    4    0  501 -0.79344518395E+02  0.38073451615E+02 -0.76724141812E+02  0.11682981920E+03  0.41800000000E+01 0.  1.
</event>
<event>
11    1  0.9238666E-009  0.1720734E+03  0.7561462E-02  0.1076241E+00
         22   -1    0    0    0    0  0.00000000000E+00  0.00000000000E+00  0.11743535231E+04  0.11743535231E+04  0.00000000000E+00 0. -1.
         22   -1    0    0    0    0 -0.00000000000E+00 -0.00000000000E+00 -0.40465238910E+03  0.40465238910E+03  0.00000000000E+00 0.  1.
         24    2    1    2    0    0 -0.12123786789E+03 -0.76434425087E+00 -0.34513575277E+03  0.37425916992E+03  0.79069802082E+02 0.  0.
         25    2    1    2    0    0  0.85201950468E+02 -0.53311124592E+02  0.10940729611E+03  0.19421926087E+03  0.12509882686E+03 0.  0.
        -24    2    1    2    0    0  0.36035917421E+02  0.54075468843E+02  0.10054295907E+04  0.10105274815E+04  0.77809930290E+02 0.  0.
        -11    1    3    3    0    0 -0.12337768610E+03 -0.11008508033E+02 -0.34135112439E+03  0.36313059744E+03  0.00000000000E+00 0.  1.
         12    1    3    3    0    0  0.21398182065E+01  0.10244163782E+02 -0.37846283772E+01  0.11128572483E+02  0.00000000000E+00 0. -1.
         11    1    5    5    0    0  0.33431489897E+02  0.25399236873E+02  0.90703579006E+03  0.90800699898E+03  0.00000000000E+00 0. -1.
        -12    1    5    5    0    0  0.26044275249E+01  0.28676231970E+02  0.98393800636E+02  0.10252048247E+03  0.00000000000E+00 0.  1.
          5    1    4    4  501    0  0.15348274957E+02  0.38172482928E+02  0.49139510616E+02  0.64225165633E+02  0.41800000000E+01 0. -1.
         -5    1    4    4    0  501  0.69853675511E+02 -0.91483607519E+02  0.60267785496E+02  0.12999409523E+03  0.41800000000E+01 0. -1.
</event>
<event>
11    1  0.9238666E-009  0.1077683E+04  0.7561462E-02  0.8608446E-01
         22   -1    0    0    0    0  0.00000000000E+00  0.00000000000E+00  0.30331137129E+04  0.30331137129E+04  0.00000000000E+00 0.  1.
         22   -1    0    0    0    0 -0.00000000000E+00 -0.00000000000E+00 -0.52208367932E+03  0.52208367932E+03  0.00000000000E+00 0. -1.
        -24    2    1    2    0    0 -0.10347253207E+04  0.33585569970E+03  0.76757232456E+03  0.13336408366E+04  0.77298558672E+02 0.  0.
         25    2    1    2    0    0  0.10670080032E+04 -0.47937138097E+02  0.13327291910E+04  0.17124862939E+04  0.12505263770E+03 0.  0.
         24    2    1    2    0    0 -0.32282682512E+02 -0.28791856160E+03  0.41072851807E+03  0.50907026176E+03  0.80717694158E+02 0.  0.
        -13    1    5    5    0    0  0.23447130341E+00 -0.10887126084E+03  0.94236023726E+02  0.14399109202E+03  0.00000000000E+00 0.  1.
         14    1    5    5    0    0 -0.32517153816E+02 -0.17904730076E+03  0.31649249435E+03  0.36507916974E+03  0.00000000000E+00 0. -1.
         11    1    3    3    0    0 -0.90087450099E+03  0.28935668292E+03  0.69789937104E+03  0.11757404852E+04  0.00000000000E+00 0. -1.
        -12    1    3    3    0    0 -0.13385081973E+03  0.46499016778E+02  0.69672953512E+02  0.15790035134E+03  0.00000000000E+00 0.  1.
          5    1    4    4  501    0  0.42202538110E+03 -0.52823294655E+02  0.61182403848E+03  0.74514552217E+03  0.41800000000E+01 0.  1.
         -5    1    4    4    0  501  0.64498262214E+03  0.48861565576E+01  0.72090515247E+03  0.96734077173E+03  0.41800000000E+01 0.  1.
</event>
<event>
11    1  0.9238666E-009  0.1785081E+03  0.7561462E-02  0.1070856E+00
         22   -1    0    0    0    0  0.00000000000E+00  0.00000000000E+00  0.23341606872E+03  0.23341606872E+03  0.00000000000E+00 0. -1.
         22   -1    0    0    0    0 -0.00000000000E+00 -0.00000000000E+00 -0.37377728307E+03  0.37377728307E+03  0.00000000000E+00 0.  1.
         24    2    1    2    0    0  0.10014259946E+03 -0.13168387944E+02 -0.14538753942E+03  0.19404644357E+03  0.79464073498E+02 0.  0.
         25    2    1    2    0    0 -0.19955087195E+03 -0.37044483866E+02 -0.80499835479E+02  0.25163571412E+03  0.12508982703E+03 0.  0.
        -24    2    1    2    0    0  0.99408272492E+02  0.50212871810E+02  0.85526160559E+02  0.16151119410E+03  0.79798524698E+02 0.  0.
        -11    1    3    3    0    0  0.87927175154E+02  0.14306688705E+02 -0.13594060978E+03  0.16252913234E+03  0.00000000000E+00 0.  1.
         12    1    3    3    0    0  0.12215424306E+02 -0.27475076649E+02 -0.94469296468E+01  0.31517311237E+02  0.00000000000E+00 0. -1.
         13    1    5    5    0    0  0.76865096244E+02  0.10129644263E+02  0.85643517240E+02  0.11552343814E+03  0.00000000000E+00 0. -1.
        -14    1    5    5    0    0  0.22543176247E+02  0.40083227547E+02 -0.11735668035E+00  0.45987755963E+02  0.00000000000E+00 0.  1.
          5    1    4    4  501    0 -0.41048813651E+02 -0.60911776165E+02 -0.32221817303E+01  0.73641730241E+02  0.41800000000E+01 0. -1.
         -5    1    4    4    0  501 -0.15850205830E+03  0.23867292299E+02 -0.77277653748E+02  0.17799398388E+03  0.41800000000E+01 0. -1.
</event>
<event>
11    1  0.9238666E-009  0.1476782E+03  0.7561462E-02  0.1099275E+00
         22   -1    0    0    0    0  0.00000000000E+00  0.00000000000E+00  0.15719066102E+03  0.15719066102E+03  0.00000000000E+00 0. -1.
         22   -1    0    0    0    0 -0.00000000000E+00 -0.00000000000E+00 -0.98792488460E+03  0.98792488460E+03  0.00000000000E+00 0.  1.
        -24    2    1    2    0    0  0.17667279935E+02  0.26804580281E+02 -0.83286403893E+03  0.83746010190E+03  0.81524822228E+02 0.  0.
         25    2    1    2    0    0 -0.54555291313E+02 -0.89083450161E+02 -0.69954150952E+02  0.17735040377E+03  0.12508973410E+03 0.  0.
         24    2    1    2    0    0  0.36888011378E+02  0.62278869880E+02  0.72083966301E+02  0.13030503995E+03  0.80894512931E+02 0.  0.
        -13    1    5    5    0    0 -0.90954845637E+01  0.17186402271E+02 -0.13150883859E+02  0.23474369188E+02  0.00000000000E+00 0.  1.
         14    1    5    5    0    0  0.45983495942E+02  0.45092467609E+02  0.85234850161E+02  0.10683067076E+03  0.00000000000E+00 0. -1.
         13    1    3    3    0    0 -0.30131253609E+02  0.23527591331E+02 -0.29506243529E+03  0.29752862167E+03  0.00000000000E+00 0. -1.
        -14    1    3    3    0    0  0.47798533544E+02  0.32769889496E+01 -0.53780160364E+03  0.53993148023E+03  0.00000000000E+00 0.  1.
          5    1    4    4  501    0 -0.70430951858E+02 -0.81259182993E+02 -0.96919590945E+02  0.14482559618E+03  0.41800000000E+01 0.  1.
         -5    1    4    4    0  501  0.15875660544E+02 -0.78242671673E+01  0.26965439992E+02  0.32524807584E+02  0.41800000000E+01 0.  1.
</event>
<event>
11    1  0.9238666E-009  0.1355674E+03  0.7561462E-02  0.1112612E+00
         22   -1    0    0    0    0  0.00000000000E+00  0.00000000000E+00  0.39511262948E+03  0.39511262948E+03  0.00000000000E+00 0. -1.
         22   -1    0    0    0    0 -0.00000000000E+00 -0.00000000000E+00 -0.86802910593E+03  0.86802910593E+03  0.00000000000E+00 0.  1.
         24    2    1    2    0    0  0.23192958837E+02  0.26122368329E+01 -0.80986035540E+03  0.81238279404E+03  0.59558976507E+02 0.  0.
         25    2    1    2    0    0 -0.71636934894E+02 -0.93459419716E+01  0.58282111464E+02  0.15576807628E+03  0.12509073507E+03 0.  0.
        -24    2    1    2    0    0  0.48443976057E+02  0.67337051387E+01  0.27866176749E+03  0.29499086509E+03  0.83516873885E+02 0.  0.
        -13    1    3    3    0    0  0.34632280678E+02  0.12060964353E+02 -0.74262100554E+03  0.74352593741E+03  0.00000000000E+00 0.  1.
         14    1    3    3    0    0 -0.11439321841E+02 -0.94487275199E+01 -0.67239349859E+02  0.68856856633E+02  0.00000000000E+00 0. -1.
         13    1    5    5    0    0  0.49173042566E+02 -0.26534207876E+02  0.11347347434E+03  0.12648431398E+03  0.00000000000E+00 0. -1.
        -14    1    5    5    0    0 -0.72906650949E+00  0.33267913015E+02  0.16518829315E+03  0.16850655111E+03  0.00000000000E+00 0.  1.
          5    1    4    4  501    0 -0.50516078378E+02 -0.50130669728E+02  0.77946465847E+02  0.10563182361E+03  0.41800000000E+01 0. -1.
         -5    1    4    4    0  501 -0.21120856516E+02  0.40784727757E+02 -0.19664354383E+02  0.50136252667E+02  0.41800000000E+01 0. -1.
</event>
<event>
11    1  0.9238666E-009  0.1387588E+03  0.7561462E-02  0.1108952E+00
         22   -1    0    0    0    0  0.00000000000E+00  0.00000000000E+00  0.58658050644E+03  0.58658050644E+03  0.00000000000E+00 0.  1.
         22   -1    0    0    0    0 -0.00000000000E+00 -0.00000000000E+00 -0.22281141242E+03  0.22281141242E+03  0.00000000000E+00 0.  1.
         24    2    1    2    0    0  0.15350818399E+02  0.63709452367E+02 -0.73111604700E+02  0.12685857142E+03  0.80332113463E+02 0.  0.
         25    2    1    2    0    0 -0.72233866324E+02 -0.43824328031E+02 -0.68851706161E+02  0.16591633373E+03  0.12509743877E+03 0.  0.
        -24    2    1    2    0    0  0.56883047925E+02 -0.19885124336E+02  0.50573240488E+03  0.51661701372E+03  0.86583914230E+02 0.  0.
        -13    1    3    3    0    0  0.37910510306E+02  0.36201494942E+02 -0.74688927478E+02  0.91247963898E+02  0.00000000000E+00 0.  1.
         14    1    3    3    0    0 -0.22559691907E+02  0.27507957425E+02  0.15773227779E+01  0.35610607518E+02  0.00000000000E+00 0. -1.
         13    1    5    5    0    0  0.53241663495E+02  0.25973988424E+02  0.30200246205E+03  0.30775771297E+03  0.00000000000E+00 0. -1.
        -14    1    5    5    0    0  0.36413844301E+01 -0.45859112760E+02  0.20372994283E+03  0.20885930075E+03  0.00000000000E+00 0.  1.
          5    1    4    4  501    0 -0.70130094511E+02 -0.80622416761E+02 -0.27605473694E+02  0.11044337381E+03  0.41800000000E+01 0. -1.
         -5    1    4    4    0  501 -0.21037718127E+01  0.36798088730E+02 -0.41246232467E+02  0.55472959924E+02  0.41800000000E+01 0. -1.
</event>
<event>
11    1  0.9238666E-009  0.1834126E+03  0.7561462E-02  0.1066915E+00
         22   -1    0    0    0    0  0.00000000000E+00  0.00000000000E+00  0.16444662766E+03  0.16444662766E+03  0.00000000000E+00 0. -1.
         22   -1    0    0    0    0 -0.00000000000E+00 -0.00000000000E+00 -0.14687218880E+04  0.14687218880E+04  0.00000000000E+00 0. -1.
         24    2    1    2    0    0 -0.15506701971E+02  0.13029647010E+03 -0.12305247835E+04  0.12400530639E+04  0.79515599886E+02 0.  0.
         25    2    1    2    0    0  0.49966764075E+02  0.35514083949E+02 -0.13717751882E+03  0.19551006960E+03  0.12509431632E+03 0.  0.
        -24    2    1    2    0    0 -0.34460062104E+02 -0.16581055405E+03  0.63427041971E+02  0.19760538214E+03  0.79650873707E+02 0.  0.
        -11    1    3    3    0    0  0.30422014419E+02  0.70345881734E+02 -0.54027517951E+03  0.54568426002E+03  0.00000000000E+00 0.  1.
         12    1    3    3    0    0 -0.45928716390E+02  0.59950588367E+02 -0.69024960395E+03  0.69436880387E+03  0.00000000000E+00 0. -1.
         13    1    5    5    0    0 -0.40324053945E+02 -0.16484923882E+03  0.74263366286E+02  0.18524672315E+03  0.00000000000E+00 0. -1.
        -14    1    5    5    0    0  0.58639918403E+01 -0.96131522762E+00 -0.10836324315E+02  0.12358658986E+02  0.00000000000E+00 0.  1.
          5    1    4    4  501    0 -0.19941486753E+02  0.51784164875E+02 -0.22220345296E+02  0.59920603892E+02  0.41800000000E+01 0. -1.
         -5    1    4    4    0  501  0.69908250828E+02 -0.16270080926E+02 -0.11495717352E+03  0.13558946571E+03  0.41800000000E+01 0. -1.
</event>
<event>
11    1  0.9238666E-009  0.1251321E+03  0.7561462E-02  0.1125399E+00
         22   -1    0    0    0    0  0.00000000000E+00  0.00000000000E+00  0.18965809766E+03  0.18965809766E+03  0.00000000000E+00 0.  1.
         22   -1    0    0    0    0 -0.00000000000E+00 -0.00000000000E+00 -0.20858995614E+04  0.20858995614E+04  0.00000000000E+00 0.  1.
         24    2    1    2    0    0  0.57730909720E+00  0.41508305264E+01 -0.18331729921E+04  0.18350656726E+04  0.83218034029E+02 0.  0.
         25    2    1    2    0    0 -0.23649080554E+01  0.12599020220E+02 -0.22547250510E+03  0.25816528982E+03  0.12508852150E+03 0.  0.
        -24    2    1    2    0    0  0.17875989582E+01 -0.16749850747E+02  0.16240403340E+03  0.18232669668E+03  0.81143091193E+02 0.  0.
        -13    1    3    3    0    0 -0.53957965275E+01 -0.14120968164E+02 -0.17329403716E+04  0.17330063035E+04  0.00000000000E+00 0.  1.
         14    1    3    3    0    0  0.59731056247E+01  0.18271798690E+02 -0.10023262048E+03  0.10205936912E+03  0.00000000000E+00 0. -1.
         13    1    5    5    0    0 -0.18423595406E+01  0.99840964024E+01 -0.59880816215E+01  0.11787009424E+02  0.00000000000E+00 0. -1.
        -14    1    5    5    0    0  0.36299584988E+01 -0.26733947149E+02  0.16839211502E+03  0.17053968725E+03  0.00000000000E+00 0.  1.
          5    1    4    4  501    0 -0.19482960954E+02  0.46440327849E+02 -0.29503895709E+02  0.58517023850E+02  0.41800000000E+01 0. -1.
         -5    1    4    4    0  501  0.17118052899E+02 -0.33841307629E+02 -0.19596860939E+03  0.19964826597E+03  0.41800000000E+01 0. -1.
</event>
<event>
11    1  0.9238666E-009  0.1391680E+03  0.7561462E-02  0.1108491E+00
         22   -1    0    0    0    0  0.00000000000E+00  0.00000000000E+00  0.19753680318E+04  0.19753680318E+04  0.00000000000E+00 0.  1.
         22   -1    0    0    0    0 -0.00000000000E+00 -0.00000000000E+00 -0.32316319855E+03  0.32316319855E+03  0.00000000000E+00 0. -1.
        -24    2    1    2    0    0  0.12329303324E+02 -0.21829687477E+02 -0.25716082649E+03  0.27012071799E+03  0.78771597861E+02 0.  0.
         25    2    1    2    0    0 -0.70093527278E+02  0.39903455265E+02  0.37473107996E+02  0.15348345323E+03  0.12509016062E+03 0.  0.
         24    2    1    2    0    0  0.57764223955E+02 -0.18073767788E+02  0.18718925518E+04  0.18749270592E+04  0.87786019002E+02 0.  0.
        -11    1    5    5    0    0  0.63516602421E+02 -0.41600060476E+02  0.10807156784E+04  0.10833795740E+04  0.00000000000E+00 0.  1.
         12    1    5    5    0    0 -0.57523784666E+01  0.23526292688E+02  0.79117687340E+03  0.79154748519E+03  0.00000000000E+00 0. -1.
         11    1    3    3    0    0 -0.13007868399E+02 -0.28262723720E+02 -0.23118211805E+03  0.23326628110E+03  0.00000000000E+00 0. -1.
        -12    1    3    3    0    0  0.25337171723E+02  0.64330362437E+01 -0.25978708447E+02  0.36854436895E+02  0.00000000000E+00 0.  1.
          5    1    4    4  501    0 -0.50688521938E+01 -0.41710305533E+02 -0.86830040009E+00  0.42233507974E+02  0.41800000000E+01 0.  1.
         -5    1    4    4    0  501 -0.65024675085E+02  0.81613760798E+02  0.38341408396E+02  0.11124994526E+03  0.41800000000E+01 0.  1.
</event>
<event>
11    1  0.9238666E-009  0.1581382E+03  0.7561462E-02  0.1088842E+00
         22   -1    0    0    0    0  0.00000000000E+00  0.00000000000E+00  0.53463366515E+03  0.53463366515E+03  0.00000000000E+00 0. -1.
         22   -1    0    0    0    0 -0.00000000000E+00 -0.00000000000E+00 -0.19809712053E+03  0.19809712053E+03  0.00000000000E+00 0. -1.
        -24    2    1    2    0    0  0.84531472506E+02 -0.34949778604E+02 -0.99660829073E+02  0.15920389853E+03  0.83943692957E+02 0.  0.
         25    2    1    2    0    0 -0.11961590414E+03  0.16346823771E+02  0.54932329559E+02  0.18232064920E+03  0.12509226644E+03 0.  0.
         24    2    1    2    0    0  0.35084431632E+02  0.18602954833E+02  0.38126504413E+03  0.39120623795E+03  0.78117216188E+02 0.  0.
        -13    1    5    5    0    0  0.83957273806E+01  0.34632943272E+02  0.71579130968E+02  0.79959370858E+02  0.00000000000E+00 0.  1.
         14    1    5    5    0    0  0.26688704252E+02 -0.16029988439E+02  0.30968591316E+03  0.31124686709E+03  0.00000000000E+00 0. -1.
         11    1    3    3    0    0  0.85269300389E+02 -0.22872719083E+02 -0.11153812178E+03  0.14224896301E+03  0.00000000000E+00 0. -1.
        -12    1    3    3    0    0 -0.73782788291E+00 -0.12077059521E+02  0.11877292703E+02  0.16954935524E+02  0.00000000000E+00 0.  1.
          5    1    4    4  501    0 -0.11295559351E+03 -0.30600273355E+02  0.64613628688E+02  0.13374504195E+03  0.41800000000E+01 0.  1.
         -5    1    4    4    0  501 -0.66603106255E+01  0.46947097127E+02 -0.96812991291E+01  0.48575607244E+02  0.41800000000E+01 0.  1.
</event>
<event>
11    1  0.9238666E-009  0.1291854E+03  0.7561462E-02  0.1120274E+00
         22   -1    0    0    0    0  0.00000000000E+00  0.00000000000E+00  0.25590690021E+03  0.25590690021E+03  0.00000000000E+00 0. -1.
         22   -1    0    0    0    0 -0.00000000000E+00 -0.00000000000E+00 -0.42385307527E+03  0.42385307527E+03  0.00000000000E+00 0.  1.
         24    2    1    2    0    0  0.10949591831E+02 -0.23711631023E+02 -0.34754328241E+03  0.35757202115E+03  0.79932985403E+02 0.  0.
         25    2    1    2    0    0  0.13746853106E+02 -0.24240787923E+01  0.40540848712E+01  0.12590353732E+03  0.12506163671E+03 0.  0.
        -24    2    1    2    0    0 -0.24696444937E+02  0.26135709816E+02  0.17554302247E+03  0.19628441701E+03  0.80120096734E+02 0.  0.
        -11    1    3    3    0    0  0.18499555495E+02 -0.48448651563E+02 -0.15852125017E+03  0.16678876505E+03  0.00000000000E+00 0.  1.
         12    1    3    3    0    0 -0.75499636638E+01  0.24737020539E+02 -0.18902203223E+03  0.19078325609E+03  0.00000000000E+00 0. -1.
         11    1    5    5    0    0 -0.47242568355E+02  0.16958042710E+02  0.15929871992E+03  0.16701951277E+03  0.00000000000E+00 0. -1.
        -12    1    5    5    0    0  0.22546123418E+02  0.91776671059E+01  0.16244302555E+02  0.29264904240E+02  0.00000000000E+00 0.  1.
          5    1    4    4  501    0 -0.33012535117E+02 -0.20747218919E+02 -0.42123643697E+02  0.57551266936E+02  0.41800000000E+01 0.  1.
         -5    1    4    4    0  501  0.46759388223E+02  0.18323140127E+02  0.46177728568E+02  0.68352270385E+02  0.41800000000E+01 0.  1.
</event>
<event>
11    1  0.9238666E-009  0.1431837E+03  0.7561462E-02  0.1104054E+00
         22   -1    0    0    0    0  0.00000000000E+00  0.00000000000E+00  0.26443030797E+04  0.26443030797E+04  0.00000000000E+00 0. -1.
         22   -1    0    0    0    0 -0.00000000000E+00 -0.00000000000E+00 -0.24354932290E+03  0.24354932290E+03  0.00000000000E+00 0. -1.
         24    2    1    2    0    0  0.57971387138E+02  0.36913689633E+02 -0.21735604010E+03  0.24161624919E+03  0.80071602311E+02 0.  0.
         25    2    1    2    0    0 -0.96138829277E+02 -0.57034652402E+02  0.52462560567E+03  0.55079454034E+03  0.12508786301E+03 0.  0.
        -24    2    1    2    0    0  0.38167442140E+02  0.20120962770E+02  0.20934841912E+04  0.20954416131E+04  0.79610854136E+02 0.  0.
        -13    1    3    3    0    0  0.17469182068E+02 -0.11326680213E+02 -0.68956575302E+01  0.21932079235E+02  0.00000000000E+00 0.  1.
         14    1    3    3    0    0  0.40502205070E+02  0.48240369846E+02 -0.21046038257E+03  0.21968416996E+03  0.00000000000E+00 0. -1.
         11    1    5    5    0    0  0.47630267711E+02  0.20168266034E+02  0.20599109525E+04  0.20605602475E+04  0.00000000000E+00 0. -1.
        -12    1    5    5    0    0 -0.94628255718E+01 -0.47303264300E-01  0.33573238718E+02  0.34881365561E+02  0.00000000000E+00 0.  1.
          5    1    4    4  501    0  0.12733848259E+02  0.22251167764E+02  0.39288269537E+02  0.47098894696E+02  0.41800000000E+01 0. -1.
         -5    1    4    4    0  501 -0.10887267754E+03 -0.79285820167E+02  0.48533733613E+03  0.50369564564E+03  0.41800000000E+01 0. -1.
</event>
<event>
11    1  0.9238666E-009  0.1301523E+03  0.7561462E-02  0.1119082E+00
         22   -1    0    0    0    0  0.00000000000E+00  0.00000000000E+00  0.96465620642E+03  0.96465620642E+03  0.00000000000E+00 0. -1.
         22   -1    0    0    0    0 -0.00000000000E+00 -0.00000000000E+00 -0.12869329927E+03  0.12869329927E+03  0.00000000000E+00 0. -1.
         24    2    1    2    0    0  0.54861278129E+01  0.30181007556E+02  0.28779844318E+02  0.90391731019E+02  0.80008716914E+02 0.  0.
         25    2    1    2    0    0 -0.29692267884E+02 -0.30524398608E+02 -0.50388947484E+02  0.14142261513E+03  0.12509172778E+03 0.  0.
        -24    2    1    2    0    0  0.24206140071E+02  0.34339105246E+00  0.85757201031E+03  0.86153515954E+03  0.78911489142E+02 0.  0.
        -13    1    3    3    0    0 -0.25259414716E+02  0.34567551248E+02  0.38779120392E+02  0.57764814632E+02  0.00000000000E+00 0.  1.
         14    1    3    3    0    0  0.30745542529E+02 -0.43865436921E+01 -0.99992760741E+01  0.32626916388E+02  0.00000000000E+00 0. -1.
         11    1    5    5    0    0  0.74791184357E+01  0.23318249762E+02  0.74596211206E+03  0.74636395318E+03  0.00000000000E+00 0. -1.
        -12    1    5    5    0    0  0.16727021636E+02 -0.22974858710E+02  0.11160989825E+03  0.11517120636E+03  0.00000000000E+00 0.  1.
          5    1    4    4  501    0 -0.25359300179E+02  0.47098993005E+02 -0.27379542225E+02  0.60237205945E+02  0.41800000000E+01 0. -1.
         -5    1    4    4    0  501 -0.43329677049E+01 -0.77623391613E+02 -0.23009405259E+02  0.81185409188E+02  0.41800000000E+01 0. -1.
</event>
<event>
11    1  0.9238666E-009  0.1340726E+03  0.7561462E-02  0.1114364E+00
         22   -1    0    0    0    0  0.00000000000E+00  0.00000000000E+00  0.10799606700E+04  0.10799606700E+04  0.00000000000E+00 0.  1.
         22   -1    0    0    0    0 -0.00000000000E+00 -0.00000000000E+00 -0.21375096452E+03  0.21375096452E+03  0.00000000000E+00 0.  1.
        -24    2    1    2    0    0  0.49447501374E+02  0.16852893857E+02 -0.15263472334E+03  0.18151475655E+03  0.83193585401E+02 0.  0.
         25    2    1    2    0    0 -0.21117449231E+02 -0.95824009763E+01  0.45196274235E+02  0.13502350512E+03  0.12510345583E+03 0.  0.
         24    2    1    2    0    0 -0.28330052143E+02 -0.72704928806E+01  0.97364815459E+03  0.97717337286E+03  0.77599096411E+02 0.  0.
        -11    1    5    5    0    0 -0.10425436160E+02 -0.29597239208E+02  0.83564249228E+03  0.83623146388E+03  0.00000000000E+00 0.  1.
         12    1    5    5    0    0 -0.17904615983E+02  0.22326746327E+02  0.13800566231E+03  0.14094190897E+03  0.00000000000E+00 0. -1.
         13    1    3    3    0    0  0.10293479325E+02  0.42291622962E+02 -0.10995068765E+03  0.11825265664E+03  0.00000000000E+00 0. -1.
        -14    1    3    3    0    0  0.39154022049E+02 -0.25438729105E+02 -0.42684035694E+02  0.63262099904E+02  0.00000000000E+00 0.  1.
          5    1    4    4  501    0  0.37432240794E+02  0.34027391918E+02  0.35806682142E+01  0.50885456041E+02  0.41800000000E+01 0.  1.
         -5    1    4    4    0  501 -0.58549690025E+02 -0.43609792894E+02  0.41615606021E+02  0.84138049079E+02  0.41800000000E+01 0.  1.
</event>
<event>
11    1  0.9238666E-009  0.1414845E+03  0.7561462E-02  0.1105912E+00
         22   -1    0    0    0    0  0.00000000000E+00  0.00000000000E+00  0.12728178182E+04  0.12728178182E+04  0.00000000000E+00 0. -1.
         22   -1    0    0    0    0 -0.00000000000E+00 -0.00000000000E+00 -0.17818739550E+03  0.17818739550E+03  0.00000000000E+00 0.  1.
         24    2    1    2    0    0  0.20231461090E+02 -0.61329616975E+02 -0.13687905965E+03  0.17192494222E+03  0.81557800680E+02 0.  0.
         25    2    1    2    0    0 -0.60320447473E+02  0.75500918152E+02  0.26638528105E+03  0.30975582860E+03  0.12509440583E+03 0.  0.
        -24    2    1    2    0    0  0.40088986382E+02 -0.14171301177E+02  0.96512420132E+03  0.96932444290E+03  0.79480809132E+02 0.  0.
        -11    1    3    3    0    0 -0.19796594077E+02 -0.35295292640E+02 -0.10982527467E+03  0.11704381135E+03  0.00000000000E+00 0.  1.
         12    1    3    3    0    0  0.40028055168E+02 -0.26034324336E+02 -0.27053784982E+02  0.54881130874E+02  0.00000000000E+00 0. -1.
         13    1    5    5    0    0  0.64143420392E+02 -0.52045963922E+01  0.66737325934E+03  0.67046889077E+03  0.00000000000E+00 0. -1.
        -14    1    5    5    0    0 -0.24054434009E+02 -0.89667047845E+01  0.29775094198E+03  0.29885555213E+03  0.00000000000E+00 0.  1.
          5    1    4    4  501    0 -0.42586351572E+02  0.45154610712E+02  0.27081511535E+02  0.67848484698E+02  0.41800000000E+01 0.  1.
         -5    1    4    4    0  501 -0.17734095901E+02  0.30346307440E+02  0.23930376951E+03  0.24190734390E+03  0.41800000000E+01 0.  1.
</event>
<event>
11    1  0.9238666E-009  0.1467646E+03  0.7561462E-02  0.1100231E+00
         22   -1    0    0    0    0  0.00000000000E+00  0.00000000000E+00  0.67453298062E+03  0.67453298062E+03  0.00000000000E+00 0.  1.
         22   -1    0    0    0    0 -0.00000000000E+00 -0.00000000000E+00 -0.29087879807E+03  0.29087879807E+03  0.00000000000E+00 0.  1.
         24    2    1    2    0    0 -0.65079912178E+02 -0.35767790686E+02 -0.24135842312E+03  0.26509501516E+03  0.80664421116E+02 0.  0.
         25    2    1    2    0    0  0.11250888307E+03  0.88461576478E+02  0.27622966232E+03  0.33531047308E+03  0.12508632113E+03 0.  0.
        -24    2    1    2    0    0 -0.47428970893E+02 -0.52693785792E+02  0.34878294336E+03  0.36500629044E+03  0.80956211286E+02 0.  0.
        -13    1    3    3    0    0  0.25064720414E+01 -0.75355696351E+01 -0.13901318324E+03  0.13923983743E+03  0.00000000000E+00 0.  1.
         14    1    3    3    0    0 -0.67586384219E+02 -0.28232221051E+02 -0.10234523988E+03  0.12585517774E+03  0.00000000000E+00 0. -1.
         11    1    5    5    0    0 -0.37477229607E+02 -0.29337877797E+02  0.67569627130E+02  0.82649309272E+02  0.00000000000E+00 0. -1.
        -12    1    5    5    0    0 -0.99517412857E+01 -0.23355907995E+02  0.28121331623E+03  0.28235698117E+03  0.00000000000E+00 0.  1.
          5    1    4    4  501    0  0.20071118507E+02  0.68090561760E+02  0.41866282605E+02  0.82519285128E+02  0.41800000000E+01 0. -1.
         -5    1    4    4    0  501  0.92437764564E+02  0.20371014718E+02  0.23436337971E+03  0.25279118796E+03  0.41800000000E+01 0. -1.
</event>
<event>
11    1  0.9238666E-009  0.2105096E+03  0.7561462E-02  0.1047331E+00
         22   -1    0    0    0    0  0.00000000000E+00  0.00000000000E+00  0.55058913014E+03  0.55058913014E+03  0.00000000000E+00 0. -1.
         22   -1    0    0    0    0 -0.00000000000E+00 -0.00000000000E+00 -0.18022797877E+04  0.18022797877E+04  0.00000000000E+00 0. -1.
         24    2    1    2    0    0  0.98164854206E+00  0.84948805314E+02 -0.16775087827E+04  0.16815081630E+04  0.78846198465E+02 0.  0.
         25    2    1    2    0    0  0.50108886381E+02 -0.23211013248E+03  0.74310807253E+02  0.27848836785E+03  0.12509061059E+03 0.  0.
        -24    2    1    2    0    0 -0.51090534923E+02  0.14716132716E+03  0.35150731789E+03  0.39287238700E+03  0.80775113541E+02 0.  0.
        -13    1    3    3    0    0 -0.28777612211E+02  0.62869261843E+01 -0.59971906507E+03  0.60044203169E+03  0.00000000000E+00 0.  1.
         14    1    3    3    0    0  0.29759260753E+02  0.78661879129E+02 -0.10777897176E+04  0.10810661313E+04  0.00000000000E+00 0. -1.
         11    1    5    5    0    0 -0.40251807046E+02  0.15297781036E+03  0.34356085447E+03  0.37822807822E+03  0.00000000000E+00 0. -1.
        -12    1    5    5    0    0 -0.10838727877E+02 -0.58164831922E+01  0.79464634167E+01  0.14644308777E+02  0.00000000000E+00 0.  1.
          5    1    4    4  501    0  0.70623608660E+01 -0.60455976422E+01  0.45382553563E+02  0.46513167595E+02  0.41800000000E+01 0. -1.
         -5    1    4    4    0  501  0.43046525515E+02 -0.22606453484E+03  0.28928253690E+02  0.23197520025E+03  0.41800000000E+01 0. -1.
</event>
<event>
11    1  0.9238666E-009  0.1349520E+03  0.7561462E-02  0.1113330E+00
         22   -1    0    0    0    0  0.00000000000E+00  0.00000000000E+00  0.76500198252E+03  0.76500198252E+03  0.00000000000E+00 0.  1.
         22   -1    0    0    0    0 -0.00000000000E+00 -0.00000000000E+00 -0.32705640404E+03  0.32705640404E+03  0.00000000000E+00 0.  1.
        -24    2    1    2    0    0  0.55042712988E+02  0.43133498572E+02 -0.17199850624E+03  0.20360289220E+03  0.83549103004E+02 0.  0.
         25    2    1    2    0    0  0.65707075595E+01 -0.26968942394E+02 -0.10512429232E+03  0.16573874425E+03  0.12509083284E+03 0.  0.
         24    2    1    2    0    0 -0.61613420548E+02 -0.16164556178E+02  0.71506837704E+03  0.72271675010E+03  0.83301924141E+02 0.  0.
        -13    1    5    5    0    0 -0.54531063692E+02 -0.36477894246E+02  0.66492059957E+03  0.66814944242E+03  0.00000000000E+00 0.  1.
         14    1    5    5    0    0 -0.70823568555E+01  0.20313338068E+02  0.50147777464E+02  0.54567307673E+02  0.00000000000E+00 0. -1.
         11    1    3    3    0    0  0.42442392614E+02 -0.16085688185E+02 -0.50799075292E+02  0.68122331916E+02  0.00000000000E+00 0. -1.
        -12    1    3    3    0    0  0.12600320374E+02  0.59219186757E+02 -0.12119943095E+03  0.13548056029E+03  0.00000000000E+00 0.  1.
          5    1    4    4  501    0 -0.28817203966E+02 -0.32071230941E+02  0.10556995700E+02  0.44586070209E+02  0.41800000000E+01 0. -1.
         -5    1    4    4    0  501  0.35387911526E+02  0.51022885473E+01 -0.11568128802E+03  0.12115267404E+03  0.41800000000E+01 0. -1.
</event>
<event>
11    1  0.9238666E-009  0.1330239E+03  0.7561462E-02  0.1115608E+00
         22   -1    0    0    0    0  0.00000000000E+00  0.00000000000E+00  0.41276899511E+03  0.41276899511E+03  0.00000000000E+00 0.  1.
         22   -1    0    0    0    0 -0.00000000000E+00 -0.00000000000E+00 -0.33702526775E+03  0.33702526775E+03  0.00000000000E+00 0.  1.
        -24    2    1    2    0    0 -0.25524860724E+02 -0.40446505243E+02 -0.27869295082E+03  0.29441811826E+03  0.82005056078E+02 0.  0.
         25    2    1    2    0    0  0.30550145508E+02 -0.32458717308E+01  0.51249473237E+02  0.13862781060E+03  0.12508922532E+03 0.  0.
         24    2    1    2    0    0 -0.50252847846E+01  0.43692376974E+02  0.30318720495E+03  0.31674833400E+03  0.80453393669E+02 0.  0.
        -11    1    5    5    0    0  0.74523455729E+00  0.64652972038E+02  0.17159438115E+03  0.18337173668E+03  0.00000000000E+00 0.  1.
         12    1    5    5    0    0 -0.57705193419E+01 -0.20960595064E+02  0.13159282380E+03  0.13337659732E+03  0.00000000000E+00 0. -1.
         11    1    3    3    0    0  0.10559019987E+02  0.20878084523E+02 -0.58104283708E+02  0.62637808883E+02  0.00000000000E+00 0. -1.
        -12    1    3    3    0    0 -0.36083880711E+02 -0.61324589766E+02 -0.22058866712E+03  0.23178030938E+03  0.00000000000E+00 0.  1.
          5    1    4    4  501    0  0.64365128622E+02  0.19810950933E+02 -0.64293334712E+01  0.67780176219E+02  0.41800000000E+01 0.  1.
         -5    1    4    4    0  501 -0.33814983114E+02 -0.23056822663E+02  0.57678806709E+02  0.70847634383E+02  0.41800000000E+01 0.  1.
</event>
<event>
11    1  0.9238666E-009  0.1500369E+03  0.7561462E-02  0.1096841E+00
         22   -1    0    0    0    0  0.00000000000E+00  0.00000000000E+00  0.16376626926E+04  0.16376626926E+04  0.00000000000E+00 0.  1.
         22   -1    0    0    0    0 -0.00000000000E+00 -0.00000000000E+00 -0.42805611265E+03  0.42805611265E+03  0.00000000000E+00 0. -1.
        -24    2    1    2    0    0 -0.70290003105E+02 -0.39434419025E+02 -0.37532751868E+03  0.39236622458E+03  0.81146472343E+02 0.  0.
         25    2    1    2    0    0  0.13017987299E+03  0.47914827694E+02  0.16299163518E+03  0.24790431540E+03  0.12509055284E+03 0.  0.
         24    2    1    2    0    0 -0.59889869880E+02 -0.84804086691E+01  0.14219424634E+04  0.14254482652E+04  0.79521530304E+02 0.  0.
        -11    1    5    5    0    0 -0.54780959792E+02 -0.36868453664E+02  0.11696267891E+04  0.11714892497E+04  0.00000000000E+00 0.  1.
         12    1    5    5    0    0 -0.51089100884E+01  0.28388044995E+02  0.25231567431E+03  0.25395901552E+03  0.00000000000E+00 0. -1.
         13    1    3    3    0    0 -0.90071283811E+01  0.62820152841E+01 -0.20921517615E+03  0.20950317899E+03  0.00000000000E+00 0. -1.
        -14    1    3    3    0    0 -0.61282874724E+02 -0.45716434309E+02 -0.16611234253E+03  0.18286304559E+03  0.00000000000E+00 0.  1.
          5    1    4    4  501    0  0.11878001025E+03  0.79322776728E+02  0.15935062074E+03  0.21403477866E+03  0.41800000000E+01 0.  1.
         -5    1    4    4    0  501  0.11399862736E+02 -0.31407949034E+02  0.36410144370E+01  0.33869536741E+02  0.41800000000E+01 0.  1.
</event>
<event>
11    1  0.9238666E-009  0.1763599E+03  0.7561462E-02  0.1072626E+00
         22   -1    0    0    0    0  0.00000000000E+00  0.00000000000E+00  0.25888514881E+04  0.25888514881E+04  0.00000000000E+00 0. -1.
         22   -1    0    0    0    0 -0.00000000000E+00 -0.00000000000E+00 -0.48260523615E+03  0.48260523615E+03  0.00000000000E+00 0. -1.
        -24    2    1    2    0    0 -0.58476661717E+02 -0.11198502592E+03 -0.45444702943E+03  0.47843927466E+03  0.80136577090E+02 0.  0.
         25    2    1    2    0    0  0.56769450532E+02  0.44154720826E+02  0.33512001478E+03  0.36486368842E+03  0.12509067486E+03 0.  0.
         24    2    1    2    0    0  0.17072111849E+01  0.67830305097E+02  0.22255732666E+04  0.22281537612E+04  0.82999720490E+02 0.  0.
        -13    1    5    5    0    0 -0.24558742747E+02  0.23948374759E+02  0.30897787628E+03  0.31087615626E+03  0.00000000000E+00 0.  1.
         14    1    5    5    0    0  0.26265953932E+02  0.43881930339E+02  0.19165953903E+04  0.19172776049E+04  0.00000000000E+00 0. -1.
         13    1    3    3    0    0 -0.65833004408E+02 -0.11514148462E+03 -0.45029395512E+03  0.46942112433E+03  0.00000000000E+00 0. -1.
        -14    1    3    3    0    0  0.73563426906E+01  0.31564586919E+01 -0.41530743094E+01  0.90181503355E+01  0.00000000000E+00 0.  1.
          5    1    4    4  501    0 -0.11115601047E+02 -0.38005008831E+01  0.23207880747E+03  0.23241352300E+03  0.41800000000E+01 0.  1.
         -5    1    4    4    0  501  0.67885051580E+02  0.47955221709E+02  0.10304120730E+03  0.13245016542E+03  0.41800000000E+01 0.  1.
</event>
<event>
11    1  0.9238666E-009  0.1376123E+03  0.7561462E-02  0.1110254E+00
         22   -1    0    0    0    0  0.00000000000E+00  0.00000000000E+00  0.24086248090E+03  0.24086248090E+03  0.00000000000E+00 0.  1.
         22   -1    0    0    0    0 -0.00000000000E+00 -0.00000000000E+00 -0.32682032835E+03  0.32682032835E+03  0.00000000000E+00 0.  1.
        -24    2    1    2    0    0  0.11894553203E+02 -0.12948437873E+02 -0.26083860801E+03  0.27370955941E+03  0.81061711331E+02 0.  0.
         25    2    1    2    0    0 -0.64960720084E+02  0.14539170951E+02  0.87120255005E+02  0.16633913621E+03  0.12508991469E+03 0.  0.
         24    2    1    2    0    0  0.53066166880E+02 -0.15907330785E+01  0.87760505552E+02  0.12763411363E+03  0.75960595889E+02 0.  0.
        -13    1    5    5    0    0 -0.10521044593E+01  0.16312549753E+02  0.63695751789E+02  0.65759828157E+02  0.00000000000E+00 0.  1.
         14    1    5    5    0    0  0.54118271340E+02 -0.17903282832E+02  0.24064753763E+02  0.61874285471E+02  0.00000000000E+00 0. -1.
         13    1    3    3    0    0 -0.13311484058E+02 -0.14244135784E+02 -0.10580481267E+02  0.22181920474E+02  0.00000000000E+00 0. -1.
        -14    1    3    3    0    0  0.25206037261E+02  0.12956979119E+01 -0.25025812674E+03  0.25152763893E+03  0.00000000000E+00 0.  1.
          5    1    4    4  501    0 -0.38216038868E+02  0.15733845280E+02 -0.26672369755E+02  0.49365040488E+02  0.41800000000E+01 0.  1.
         -5    1    4    4    0  501 -0.26744681216E+02 -0.11946743288E+01  0.11379262476E+03  0.11697409572E+03  0.41800000000E+01 0.  1.
</event>
<event>
11    1  0.9238666E-009  0.1609864E+03  0.7561462E-02  0.1086153E+00
         22   -1    0    0    0    0  0.00000000000E+00  0.00000000000E+00  0.90753812535E+03  0.90753812535E+03  0.00000000000E+00 0.  1.
         22   -1    0    0    0    0 -0.00000000000E+00 -0.00000000000E+00 -0.25455574142E+03  0.25455574142E+03  0.00000000000E+00 0.  1.
         24    2    1    2    0    0  0.82264138870E+02  0.36866945755E+02 -0.19905257271E+03  0.23103721028E+03  0.75031364096E+02 0.  0.
         25    2    1    2    0    0 -0.87036441912E+02  0.68849489664E+02  0.17856416049E+03  0.24464030707E+03  0.12509246972E+03 0.  0.
        -24    2    1    2    0    0  0.47723030421E+01 -0.10571643542E+03  0.67347079614E+03  0.68641634942E+03  0.80035941299E+02 0.  0.
        -13    1    3    3    0    0 -0.75236210531E+01  0.12478172536E+02 -0.72577837986E+02  0.74026024008E+02  0.00000000000E+00 0.  1.
         14    1    3    3    0    0  0.89787759923E+02  0.24388773219E+02 -0.12647473472E+03  0.15701118627E+03  0.00000000000E+00 0. -1.
         13    1    5    5    0    0 -0.34931995461E+01 -0.64866625416E+02  0.18318128032E+03  0.19435859383E+03  0.00000000000E+00 0. -1.
        -14    1    5    5    0    0  0.82655025882E+01 -0.40849810003E+02  0.49028951582E+03  0.49205775559E+03  0.00000000000E+00 0.  1.
          5    1    4    4  501    0 -0.59897174430E+02  0.62152620644E+01  0.16394704757E+03  0.17470663351E+03  0.41800000000E+01 0. -1.
         -5    1    4    4    0  501 -0.27139267482E+02  0.62634227600E+02  0.14617112925E+02  0.69933673554E+02  0.41800000000E+01 0. -1.
</event>
<event>
11    1  0.9238666E-009  0.1890523E+03  0.7561462E-02  0.1062547E+00
         22   -1    0    0    0    0  0.00000000000E+00  0.00000000000E+00  0.75025412915E+02  0.75025412915E+02  0.00000000000E+00 0.  1.
         22   -1    0    0    0    0 -0.00000000000E+00 -0.00000000000E+00 -0.15203346470E+04  0.15203346470E+04  0.00000000000E+00 0. -1.
        -24    2    1    2    0    0  0.13180499596E+03 -0.36509859980E+02 -0.80944247095E+03  0.82465237723E+03  0.78414939014E+02 0.  0.
         25    2    1    2    0    0 -0.14876391229E+03  0.28538245250E+02 -0.65655679349E+03  0.68531753919E+03  0.12509265925E+03 0.  0.
         24    2    1    2    0    0  0.16958916328E+02  0.79716147301E+01  0.20690030310E+02  0.85390143541E+02  0.80698499214E+02 0.  0.
        -11    1    5    5    0    0  0.49013223981E+02  0.26478696611E+01  0.19674339159E+02  0.52880875183E+02  0.00000000000E+00 0.  1.
         12    1    5    5    0    0 -0.32054307653E+02  0.53237450690E+01  0.10156911508E+01  0.32509268358E+02  0.00000000000E+00 0. -1.
         13    1    3    3    0    0  0.52816667234E+02  0.15678149209E+02 -0.43285869775E+03  0.43635084155E+03  0.00000000000E+00 0. -1.
        -14    1    3    3    0    0  0.78988328726E+02 -0.52188009189E+02 -0.37658377319E+03  0.38830153568E+03  0.00000000000E+00 0.  1.
          5    1    4    4  501    0 -0.11826539509E+03  0.42766321998E+02 -0.27690090128E+03  0.30415003453E+03  0.41800000000E+01 0.  1.
         -5    1    4    4    0  501 -0.30498517202E+02 -0.14228076748E+02 -0.37965589221E+03  0.38116750466E+03  0.41800000000E+01 0.  1.
</event>
<event>
11    1  0.9238666E-009  0.2084572E+03  0.7561462E-02  0.1048699E+00
         22   -1    0    0    0    0  0.00000000000E+00  0.00000000000E+00  0.46486354240E+03  0.46486354240E+03  0.00000000000E+00 0. -1.
         22   -1    0    0    0    0 -0.00000000000E+00 -0.00000000000E+00 -0.24206373280E+04  0.24206373280E+04  0.00000000000E+00 0. -1.
        -24    2    1    2    0    0  0.13397805207E+03 -0.99103018700E+02 -0.22847258807E+04  0.22921284448E+04  0.78159649080E+02 0.  0.
         25    2    1    2    0    0 -0.90555382536E+02  0.16180138860E+03 -0.22489959034E+02  0.22479646291E+03  0.12509070637E+03 0.  0.
         24    2    1    2    0    0 -0.43422669535E+02 -0.62698369901E+02  0.35144205419E+03  0.36857596265E+03  0.80747191729E+02 0.  0.
        -13    1    5    5    0    0 -0.20955083729E+02  0.98616828986E+01  0.28012634786E+02  0.36346609626E+02  0.00000000000E+00 0.  1.
         14    1    5    5    0    0 -0.22467585806E+02 -0.72560052799E+02  0.32342941940E+03  0.33222935302E+03  0.00000000000E+00 0. -1.
         13    1    3    3    0    0  0.10755041134E+03 -0.46753290400E+02 -0.11704188373E+04  0.11762793953E+04  0.00000000000E+00 0. -1.
        -14    1    3    3    0    0  0.26427640732E+02 -0.52349728300E+02 -0.11143070434E+04  0.11158490495E+04  0.00000000000E+00 0.  1.
          5    1    4    4  501    0 -0.28548194959E+02 -0.27293174316E+01  0.29542060029E+02  0.41384227911E+02  0.41800000000E+01 0.  1.
         -5    1    4    4    0  501 -0.62007187578E+02  0.16453070603E+03 -0.52032019064E+02  0.18341223500E+03  0.41800000000E+01 0.  1.
</event>
<event>
11    1  0.9238666E-009  0.1593458E+03  0.7561462E-02  0.1087694E+00
         22   -1    0    0    0    0  0.00000000000E+00  0.00000000000E+00  0.14085569931E+03  0.14085569931E+03  0.00000000000E+00 0.  1.
         22   -1    0    0    0    0 -0.00000000000E+00 -0.00000000000E+00 -0.21011696685E+04  0.21011696685E+04  0.00000000000E+00 0.  1.
        -24    2    1    2    0    0 -0.41459672946E+02 -0.24435192394E+00 -0.17669899340E+04  0.17694463121E+04  0.83473709388E+02 0.  0.
         25    2    1    2    0    0  0.75532061928E+02 -0.90708200829E+02 -0.27359139005E+03  0.32316529769E+03  0.12510192183E+03 0.  0.
         24    2    1    2    0    0 -0.34072388982E+02  0.90952552753E+02  0.80267354916E+02  0.14941375803E+03  0.80301483666E+02 0.  0.
        -13    1    5    5    0    0 -0.54499093655E+02  0.89927872200E+02  0.62523269383E+02  0.12233696343E+03  0.00000000000E+00 0.  1.
         14    1    5    5    0    0  0.20426704673E+02  0.10246805532E+01  0.17744085533E+02  0.27076794593E+02  0.00000000000E+00 0. -1.
         13    1    3    3    0    0 -0.53721424920E+02 -0.29284820990E+02 -0.12495201392E+04  0.12510172542E+04  0.00000000000E+00 0. -1.
        -14    1    3    3    0    0  0.12261751974E+02  0.29040469066E+02 -0.51746979486E+03  0.51842905782E+03  0.00000000000E+00 0.  1.
          5    1    4    4  501    0 -0.12196112027E+01 -0.93017010955E+02 -0.12520979188E+03  0.15604043118E+03  0.41800000000E+01 0.  1.
         -5    1    4    4    0  501  0.76751673130E+02  0.23088101264E+01 -0.14838159817E+03  0.16712486652E+03  0.41800000000E+01 0.  1.
</event>
<event>
11    1  0.9238666E-009  0.1932547E+03  0.7561462E-02  0.1059399E+00
         22   -1    0    0    0    0  0.00000000000E+00  0.00000000000E+00  0.18291296715E+04  0.18291296715E+04  0.00000000000E+00 0.  1.
         22   -1    0    0    0    0 -0.00000000000E+00 -0.00000000000E+00 -0.15308365414E+04  0.15308365414E+04  0.00000000000E+00 0. -1.
         24    2    1    2    0    0  0.60479709403E+00 -0.30385317384E+01 -0.14371664420E+04  0.14394448512E+04  0.80898078190E+02 0.  0.
         25    2    1    2    0    0 -0.11046306302E+03  0.10101289203E+03  0.19073207271E+02  0.19600259018E+03  0.12509010941E+03 0.  0.
        -24    2    1    2    0    0  0.10985826593E+03 -0.97974360290E+02  0.17163863648E+04  0.17245187715E+04  0.79467139251E+02 0.  0.
        -13    1    3    3    0    0  0.65293921543E+01  0.59507501924E+01 -0.16320330501E+02  0.18557951865E+02  0.00000000000E+00 0.  1.
         14    1    3    3    0    0 -0.59245950602E+01 -0.89892819308E+01 -0.14208461115E+04  0.14208868993E+04  0.00000000000E+00 0. -1.
         13    1    5    5    0    0  0.83221318450E+02 -0.53373119392E+02  0.71713053472E+03  0.72391344894E+03  0.00000000000E+00 0. -1.
        -14    1    5    5    0    0  0.26636947477E+02 -0.44601240898E+02  0.99925583006E+03  0.10006053226E+04  0.00000000000E+00 0.  1.
          5    1    4    4  501    0 -0.91424795213E+02  0.10336481472E+03  0.60059252902E+02  0.15055684761E+03  0.41800000000E+01 0.  1.
         -5    1    4    4    0  501 -0.19038267808E+02 -0.23519226905E+01 -0.40986045631E+02  0.45445742572E+02  0.41800000000E+01 0.  1.
</event>
<event>
11    1  0.9238666E-009  0.1389040E+03  0.7561462E-02  0.1108788E+00
         22   -1    0    0    0    0  0.00000000000E+00  0.00000000000E+00  0.22712877443E+03  0.22712877443E+03  0.00000000000E+00 0.  1.
         22   -1    0    0    0    0 -0.00000000000E+00 -0.00000000000E+00 -0.62443983770E+03  0.62443983770E+03  0.00000000000E+00 0.  1.
        -24    2    1    2    0    0  0.35922318711E+02 -0.10932122994E+02 -0.52095053870E+03  0.52846656237E+03  0.80483038462E+02 0.  0.
         25    2    1    2    0    0 -0.90350575187E+02  0.15328540241E+02 -0.12538662607E+02  0.15557458120E+03  0.12509213274E+03 0.  0.
         24    2    1    2    0    0  0.54428256476E+02 -0.43964172471E+01  0.13617813804E+03  0.16752746856E+03  0.80865343969E+02 0.  0.
        -13    1    5    5    0    0  0.16468013051E+02 -0.38586179139E+02  0.87139433981E+02  0.96712820396E+02  0.00000000000E+00 0.  1.
         14    1    5    5    0    0  0.37960243425E+02  0.34189761892E+02  0.49038704058E+02  0.70814648166E+02  0.00000000000E+00 0. -1.
         11    1    3    3    0    0 -0.12127769958E+02  0.10027318076E+02 -0.23627030344E+02  0.28387787424E+02  0.00000000000E+00 0. -1.
        -12    1    3    3    0    0  0.48050088669E+02 -0.20959441070E+02 -0.49732350836E+03  0.50007877495E+03  0.00000000000E+00 0.  1.
          5    1    4    4  501    0 -0.75357636665E+02 -0.14908376790E+02  0.44714741821E+02  0.88982659200E+02  0.41800000000E+01 0.  1.
         -5    1    4    4    0  501 -0.14992938522E+02  0.30236917031E+02 -0.57253404428E+02  0.66591922000E+02  0.41800000000E+01 0.  1.
</event>
<event>
11    1  0.9238666E-009  0.1254770E+03  0.7561462E-02  0.1124955E+00
         22   -1    0    0    0    0  0.00000000000E+00  0.00000000000E+00  0.56996692852E+03  0.56996692852E+03  0.00000000000E+00 0.  1.
         22   -1    0    0    0    0 -0.00000000000E+00 -0.00000000000E+00 -0.63594222801E+03  0.63594222801E+03  0.00000000000E+00 0.  1.
         24    2    1    2    0    0 -0.72940149557E+01  0.14834251088E+02 -0.57104193476E+03  0.57690857734E+03  0.80382570866E+02 0.  0.
         25    2    1    2    0    0  0.13571921149E+02 -0.21261965429E+02  0.10978584097E+02  0.12807871481E+03  0.12508940667E+03 0.  0.
        -24    2    1    2    0    0 -0.62779061936E+01  0.64277143408E+01  0.49408805117E+03  0.50092186438E+03  0.81969410694E+02 0.  0.
        -13    1    3    3    0    0  0.15822762351E+02 -0.26460177887E+02 -0.31704805424E+03  0.31854351275E+03  0.00000000000E+00 0.  1.
         14    1    3    3    0    0 -0.23116777307E+02  0.41294428975E+02 -0.25399388052E+03  0.25836506459E+03  0.00000000000E+00 0. -1.
         13    1    5    5    0    0 -0.18011128482E+01  0.11453992224E+02  0.65098797215E+01  0.13297235779E+02  0.00000000000E+00 0. -1.
        -14    1    5    5    0    0 -0.44767933453E+01 -0.50262778833E+01  0.48757817145E+03  0.48762462860E+03  0.00000000000E+00 0.  1.
          5    1    4    4  501    0  0.40246073198E+02 -0.19872063099E+02 -0.46373921466E+02  0.64673474407E+02  0.41800000000E+01 0. -1.
         -5    1    4    4    0  501 -0.26674152049E+02 -0.13899023299E+01  0.57352505563E+02  0.63405240402E+02  0.41800000000E+01 0. -1.
</event>
<event>
11    1  0.9238666E-009  0.1319622E+03  0.7561462E-02  0.1116881E+00
         22   -1    0    0    0    0  0.00000000000E+00  0.00000000000E+00  0.58568941255E+03  0.58568941255E+03  0.00000000000E+00 0.  1.
         22   -1    0    0    0    0 -0.00000000000E+00 -0.00000000000E+00 -0.45379033600E+03  0.45379033600E+03  0.00000000000E+00 0. -1.
         24    2    1    2    0    0 -0.31129430472E+02  0.13651474602E+02 -0.41930349140E+03  0.42852725866E+03  0.81638160890E+02 0.  0.
         25    2    1    2    0    0  0.14385149589E+02  0.29259296763E+02  0.14515239423E+03  0.19436821773E+03  0.12508695990E+03 0.  0.
        -24    2    1    2    0    0  0.16744280883E+02 -0.42910771364E+02  0.40605017372E+03  0.41658427216E+03  0.80895036887E+02 0.  0.
        -13    1    3    3    0    0  0.69385905369E+01 -0.28727966598E+02 -0.10394417498E+03  0.10806401629E+03  0.00000000000E+00 0.  1.
         14    1    3    3    0    0 -0.38068021009E+02  0.42379441199E+02 -0.31535931641E+03  0.32046324237E+03  0.00000000000E+00 0. -1.
         11    1    5    5    0    0  0.26053411189E+00 -0.65116508390E+02  0.30018692764E+03  0.30716838879E+03  0.00000000000E+00 0. -1.
        -12    1    5    5    0    0  0.16483746771E+02  0.22205737025E+02  0.10586324608E+03  0.10941588337E+03  0.00000000000E+00 0.  1.
          5    1    4    4  501    0 -0.71121919451E+01  0.30775106338E+02  0.16299461213E+03  0.16607951838E+03  0.41800000000E+01 0. -1.
         -5    1    4    4    0  501  0.21497341534E+02 -0.15158095752E+01 -0.17842217893E+02  0.28288699352E+02  0.41800000000E+01 0. -1.
</event>
<event>
11    1  0.9238666E-009  0.1809545E+03  0.7561462E-02  0.1068873E+00
         22   -1    0    0    0    0  0.00000000000E+00  0.00000000000E+00  0.27960838524E+03  0.27960838524E+03  0.00000000000E+00 0. -1.
         22   -1    0    0    0    0 -0.00000000000E+00 -0.00000000000E+00 -0.20354499547E+03  0.20354499547E+03  0.00000000000E+00 0.  1.
         24    2    1    2    0    0 -0.98709290007E+00  0.15146368724E+03 -0.62036947802E+02  0.18263973168E+03  0.81033732432E+02 0.  0.
         25    2    1    2    0    0  0.24422755707E+02 -0.93099428900E+02  0.48641854055E+02  0.16515896375E+03  0.12508988242E+03 0.  0.
        -24    2    1    2    0    0 -0.23435662807E+02 -0.58364258341E+02  0.89458483525E+02  0.13535468527E+03  0.79764989861E+02 0.  0.
        -13    1    3    3    0    0 -0.20811059786E+02  0.88322617978E+02 -0.71841354728E+02  0.11573748444E+03  0.00000000000E+00 0.  1.
         14    1    3    3    0    0  0.19823966886E+02  0.63141069263E+02  0.98044069258E+01  0.66902247242E+02  0.00000000000E+00 0. -1.
         13    1    5    5    0    0 -0.17425105229E+02 -0.76519308088E+02  0.85057287773E+02  0.11573063987E+03  0.00000000000E+00 0. -1.
        -14    1    5    5    0    0 -0.60105575788E+01  0.18155049747E+02  0.44011957528E+01  0.19624045398E+02  0.00000000000E+00 0.  1.
          5    1    4    4  501    0  0.36593522231E+02 -0.11908794757E+03  0.53687199490E+02  0.13572329541E+03  0.41800000000E+01 0.  1.
         -5    1    4    4    0  501 -0.12170766524E+02  0.25988518673E+02 -0.50453454346E+01  0.29435668349E+02  0.41800000000E+01 0.  1.
</event>
<event>
11    1  0.9238666E-009  0.1747970E+03  0.7561462E-02  0.1073931E+00
         22   -1    0    0    0    0  0.00000000000E+00  0.00000000000E+00  0.29795731190E+03  0.29795731190E+03  0.00000000000E+00 0.  1.
         22   -1    0    0    0    0 -0.00000000000E+00 -0.00000000000E+00 -0.88030189401E+03  0.88030189401E+03  0.00000000000E+00 0.  1.
         24    2    1    2    0    0  0.31733460060E+02 -0.12833825464E+03 -0.34286464228E+03  0.37601104974E+03  0.79689563354E+02 0.  0.
         25    2    1    2    0    0 -0.80280976207E+02  0.89384734137E+02 -0.49647806200E+03  0.52590726182E+03  0.12511321336E+03 0.  0.
        -24    2    1    2    0    0  0.48547516147E+02  0.38953520501E+02  0.25699812217E+03  0.27634089435E+03  0.80262176696E+02 0.  0.
        -11    1    3    3    0    0 -0.45724530147E+01 -0.10458592681E+03 -0.18797352243E+03  0.21515847311E+03  0.00000000000E+00 0.  1.
         12    1    3    3    0    0  0.36305913074E+02 -0.23752327828E+02 -0.15489111985E+03  0.16085257663E+03  0.00000000000E+00 0. -1.
         11    1    5    5    0    0 -0.72138960883E+01  0.15838047773E+02  0.63485715984E+01  0.18525345216E+02  0.00000000000E+00 0. -1.
        -12    1    5    5    0    0  0.55761412235E+02  0.23115472729E+02  0.25064955057E+03  0.25781554913E+03  0.00000000000E+00 0.  1.
          5    1    4    4  501    0 -0.10144094301E+03  0.77603446640E+02 -0.27698047686E+03  0.30503805797E+03  0.41800000000E+01 0.  1.
         -5    1    4    4    0  501  0.21159966799E+02  0.11781287498E+02 -0.21949758514E+03  0.22086920386E+03  0.41800000000E+01 0.  1.
</event>
<event>
11    1  0.1210843E-008  0.1463867E+03  0.7561462E-02  0.1100629E+00
         22   -1    0    0    0    0  0.00000000000E+00  0.00000000000E+00  0.64761641339E+03  0.64761641339E+03  0.00000000000E+00 0. -1.
         22   -1    0    0    0    0 -0.00000000000E+00 -0.00000000000E+00 -0.76497577221E+03  0.76497577221E+03  0.00000000000E+00 0. -1.
         24    2    1    2    0    0 -0.30665667651E+02  0.84041375189E+02 -0.50513237647E+03  0.51921194842E+03  0.80118622715E+02 0.  0.
         25    2    1    2    0    0 -0.92484320949E+01 -0.14718027507E+03 -0.20882891249E+03  0.28461454686E+03  0.12509339999E+03 0.  0.
        -24    2    1    2    0    0  0.39914099746E+02  0.63138899883E+02  0.59660193015E+03  0.60876569031E+03  0.95300296996E+02 0.  0.
        -11    1    3    3    0    0  0.16277027463E+02 -0.45036289607E+01 -0.12309548209E+03  0.12424862980E+03  0.00000000000E+00 0.  1.
         12    1    3    3    0    0 -0.46942695114E+02  0.88545004150E+02 -0.38203689439E+03  0.39496331862E+03  0.00000000000E+00 0. -1.
         13    1    5    5    0    0  0.27680260097E+02  0.73252606834E+02  0.58185056903E+03  0.58709643662E+03  0.00000000000E+00 0. -1.
        -14    1    5    5    0    0  0.12233839649E+02 -0.10113706951E+02  0.14751361114E+02  0.21669253691E+02  0.00000000000E+00 0.  1.
          5    1    4    4  501    0  0.29979876696E+02 -0.46561064071E+02 -0.74047498184E+01  0.56027032886E+02  0.41800000000E+01 0.  1.
         -5    1    4    4    0  501 -0.39228308791E+02 -0.10061921100E+03 -0.20142416268E+03  0.22858751397E+03  0.41800000000E+01 0.  1.
</event>
<event>
11    1  0.9238666E-009  0.1718451E+03  0.7561462E-02  0.1076437E+00
         22   -1    0    0    0    0  0.00000000000E+00  0.00000000000E+00  0.10125362009E+04  0.10125362009E+04  0.00000000000E+00 0. -1.
         22   -1    0    0    0    0 -0.00000000000E+00 -0.00000000000E+00 -0.25863117242E+03  0.25863117242E+03  0.00000000000E+00 0. -1.
         24    2    1    2    0    0 -0.55476509738E+01  0.51293562680E+02 -0.16930843278E+03  0.19451192848E+03  0.80670557873E+02 0.  0.
         25    2    1    2    0    0 -0.84837612357E+02 -0.12363960671E+03  0.62811299848E+02  0.20512755535E+03  0.12509149354E+03 0.  0.
        -24    2    1    2    0    0  0.90385263330E+02  0.72346044032E+02  0.86040216143E+03  0.87152788951E+03  0.76586793092E+02 0.  0.
        -13    1    3    3    0    0 -0.11003039611E+02  0.71543230805E+02 -0.11070461159E+03  0.13226871051E+03  0.00000000000E+00 0.  1.
         14    1    3    3    0    0  0.54553886375E+01 -0.20249668126E+02 -0.58603821191E+02  0.62243217965E+02  0.00000000000E+00 0. -1.
         11    1    5    5    0    0  0.80856830490E+02  0.85021540121E+02  0.81572512104E+03  0.82412011407E+03  0.00000000000E+00 0. -1.
        -12    1    5    5    0    0  0.95284328403E+01 -0.12675496090E+02  0.44677040397E+02  0.47407775440E+02  0.00000000000E+00 0.  1.
          5    1    4    4  501    0  0.27870519258E+02 -0.82499668487E+00  0.49315953495E+01  0.28622360069E+02  0.41800000000E+01 0. -1.
         -5    1    4    4    0  501 -0.11270813161E+03 -0.12281461003E+03  0.57879704498E+02  0.17650519528E+03  0.41800000000E+01 0. -1.
</event>
<event>
11    1  0.9238666E-009  0.1417621E+03  0.7561462E-02  0.1105607E+00
         22   -1    0    0    0    0  0.00000000000E+00  0.00000000000E+00  0.12080123082E+04  0.12080123082E+04  0.00000000000E+00 0. -1.
         22   -1    0    0    0    0 -0.00000000000E+00 -0.00000000000E+00 -0.31370368396E+03  0.31370368396E+03  0.00000000000E+00 0. -1.
        -24    2    1    2    0    0 -0.22102946317E+01  0.21205735621E+01 -0.27838109588E+03  0.29046977959E+03  0.82869029640E+02 0.  0.
         25    2    1    2    0    0 -0.64455742940E+02 -0.76404371653E+01  0.16051886665E+03  0.21360279566E+03  0.12508768398E+03 0.  0.
         24    2    1    2    0    0  0.66666037572E+02  0.55198636032E+01  0.10121708534E+04  0.10176434169E+04  0.81446042983E+02 0.  0.
        -11    1    5    5    0    0  0.16065958666E+02  0.68799573409E+01  0.34605285049E+02  0.38768216289E+02  0.00000000000E+00 0.  1.
         12    1    5    5    0    0  0.50600078905E+02 -0.13600937376E+01  0.97756556839E+03  0.97887520059E+03  0.00000000000E+00 0. -1.
         13    1    3    3    0    0  0.24402274164E+02  0.33712841127E+02 -0.13915496445E+03  0.14524507142E+03  0.00000000000E+00 0. -1.
        -14    1    3    3    0    0 -0.26612568796E+02 -0.31592267565E+02 -0.13922613144E+03  0.14522470817E+03  0.00000000000E+00 0.  1.
          5    1    4    4  501    0 -0.12327036893E+02  0.32777866447E+02 -0.47700650985E+01  0.35588906817E+02  0.41800000000E+01 0.  1.
         -5    1    4    4    0  501 -0.52128706047E+02 -0.40418303612E+02  0.16528893175E+03  0.17801388884E+03  0.41800000000E+01 0.  1.
</event>
<event>
11    1  0.9238666E-009  0.1640190E+03  0.7561462E-02  0.1083357E+00
         22   -1    0    0    0    0  0.00000000000E+00  0.00000000000E+00  0.93378069609E+03  0.93378069609E+03  0.00000000000E+00 0. -1.
         22   -1    0    0    0    0 -0.00000000000E+00 -0.00000000000E+00 -0.42251158475E+03  0.42251158475E+03  0.00000000000E+00 0.  1.
        -24    2    1    2    0    0 -0.16130858647E+02 -0.10507707563E+03 -0.34377192026E+03  0.36839185908E+03  0.78943221673E+02 0.  0.
         25    2    1    2    0    0 -0.49086501778E+02  0.11082798291E+03  0.56746300134E+02  0.18319254658E+03  0.12508812930E+03 0.  0.
         24    2    1    2    0    0  0.65217360424E+02 -0.57509072746E+01  0.79829473147E+03  0.80470787518E+03  0.77420340014E+02 0.  0.
        -11    1    5    5    0    0  0.79504504799E+01  0.24877050537E+02  0.98409083457E+02  0.10181564228E+03  0.00000000000E+00 0.  1.
         12    1    5    5    0    0  0.57266909944E+02 -0.30627957812E+02  0.69988564801E+03  0.70289223289E+03  0.00000000000E+00 0. -1.
         11    1    3    3    0    0 -0.30582871316E+02 -0.91303294338E+01 -0.12604483549E+03  0.13002298062E+03  0.00000000000E+00 0. -1.
        -12    1    3    3    0    0  0.14452012670E+02 -0.95946746200E+02 -0.21772708477E+03  0.23836887846E+03  0.00000000000E+00 0.  1.
          5    1    4    4  501    0 -0.43754083001E+02  0.69058813245E+02  0.95521144042E+02  0.12579865192E+03  0.41800000000E+01 0.  1.
         -5    1    4    4    0  501 -0.53324187764E+01  0.41769169664E+02 -0.38774843908E+02  0.57393894662E+02  0.41800000000E+01 0.  1.
</event>
<event>
11    1  0.9456390E-009  0.1774355E+03  0.7561462E-02  0.1071736E+00
         22   -1    0    0    0    0  0.00000000000E+00  0.00000000000E+00  0.21450801035E+03  0.21450801035E+03  0.00000000000E+00 0. -1.
         22   -1    0    0    0    0 -0.00000000000E+00 -0.00000000000E+00 -0.86027704748E+03  0.86027704748E+03  0.00000000000E+00 0. -1.
        -24    2    1    2    0    0 -0.37301859866E+02  0.57607908491E+01 -0.48854485313E+03  0.49732687556E+03  0.85048998636E+02 0.  0.
         25    2    1    2    0    0  0.70669837500E+02  0.11516407518E+03 -0.31199898947E+03  0.36228129895E+03  0.12508948796E+03 0.  0.
         24    2    1    2    0    0 -0.33367977634E+02 -0.12092486603E+03  0.15477480548E+03  0.21517688332E+03  0.81299480628E+02 0.  0.
        -11    1    5    5    0    0  0.23871616780E+02 -0.33377146305E+02  0.23368015082E+02  0.47222368768E+02  0.00000000000E+00 0.  1.
         12    1    5    5    0    0 -0.57239594414E+02 -0.87547719723E+02  0.13140679039E+03  0.16795451455E+03  0.00000000000E+00 0. -1.
         13    1    3    3    0    0 -0.43927734615E+02 -0.32018344743E+02 -0.30687025006E+03  0.31164751024E+03  0.00000000000E+00 0. -1.
        -14    1    3    3    0    0  0.66258747491E+01  0.37779135592E+02 -0.18167460308E+03  0.18567936532E+03  0.00000000000E+00 0.  1.
          5    1    4    4  501    0  0.55351562100E+02  0.14666524680E+02 -0.35128441318E+02  0.67308113646E+02  0.41800000000E+01 0. -1.
         -5    1    4    4    0  501  0.15318275400E+02  0.10049755050E+03 -0.27687054815E+03  0.29497318531E+03  0.41800000000E+01 0. -1.
</event>
<event>
11    1  0.9238666E-009  0.1731143E+03  0.7561462E-02  0.1075353E+00
         22   -1    0    0    0    0  0.00000000000E+00  0.00000000000E+00  0.32053684902E+03  0.32053684902E+03  0.00000000000E+00 0.  1.
         22   -1    0    0    0    0 -0.00000000000E+00 -0.00000000000E+00 -0.45451089422E+03  0.45451089422E+03  0.00000000000E+00 0. -1.
        -24    2    1    2    0    0  0.45957010713E+02  0.45081912529E+02 -0.33457101504E+03  0.34985110417E+03  0.79458198527E+02 0.  0.
         25    2    1    2    0    0 -0.18912085856E+02  0.82829782787E+02 -0.24093160896E+02  0.15312592960E+03  0.12509448431E+03 0.  0.
         24    2    1    2    0    0 -0.27044924857E+02 -0.12791169532E+03  0.22469013073E+03  0.27207070947E+03  0.80274443883E+02 0.  0.
        -13    1    5    5    0    0  0.18610330856E+02 -0.83228762668E+02  0.96093882016E+02  0.12848114846E+03  0.00000000000E+00 0.  1.
         14    1    5    5    0    0 -0.45655255713E+02 -0.44682932648E+02  0.12859624872E+03  0.14358956100E+03  0.00000000000E+00 0. -1.
         11    1    3    3    0    0 -0.11145644276E+02  0.71847729238E+01 -0.18330359761E+03  0.18378263042E+03  0.00000000000E+00 0. -1.
        -12    1    3    3    0    0  0.57102654989E+02  0.37897139605E+02 -0.15126741744E+03  0.16606847375E+03  0.00000000000E+00 0.  1.
          5    1    4    4  501    0 -0.31720733423E+02 -0.62247743197E+00  0.36931734985E+02  0.48867349591E+02  0.41800000000E+01 0.  1.
         -5    1    4    4    0  501  0.12808647566E+02  0.83452260219E+02 -0.61024895881E+02  0.10425858001E+03  0.41800000000E+01 0.  1.
</event>
<event>
11    1  0.9238666E-009  0.1890023E+03  0.7561462E-02  0.1062585E+00
         22   -1    0    0    0    0  0.00000000000E+00  0.00000000000E+00  0.11543667086E+04  0.11543667086E+04  0.00000000000E+00 0.  1.
         22   -1    0    0    0    0 -0.00000000000E+00 -0.00000000000E+00 -0.61691069270E+03  0.61691069270E+03  0.00000000000E+00 0. -1.
        -24    2    1    2    0    0  0.13575569541E+03  0.37224967273E+02 -0.56045164368E+03  0.58358144468E+03  0.81522700177E+02 0.  0.
         25    2    1    2    0    0 -0.16802514154E+03  0.60105097646E+00  0.21588171855E+03  0.30080726634E+03  0.12508911075E+03 0.  0.
         24    2    1    2    0    0  0.32269446129E+02 -0.37826018250E+02  0.88202594103E+03  0.88688869028E+03  0.78292167493E+02 0.  0.
        -13    1    5    5    0    0  0.12491030411E+02 -0.34628954107E+02  0.83450949766E+03  0.83532107120E+03  0.00000000000E+00 0.  1.
         14    1    5    5    0    0  0.19778415718E+02 -0.31970641431E+01  0.47516443371E+02  0.51567619085E+02  0.00000000000E+00 0. -1.
         13    1    3    3    0    0  0.10236466717E+03  0.62779464890E+02 -0.43503814866E+03  0.45130696547E+03  0.00000000000E+00 0. -1.
        -14    1    3    3    0    0  0.33391028237E+02 -0.25554497617E+02 -0.12541349502E+03  0.13227447921E+03  0.00000000000E+00 0.  1.
          5    1    4    4  501    0 -0.12238218885E+03 -0.44866848122E+02  0.19172378083E+03  0.23187478246E+03  0.41800000000E+01 0. -1.
         -5    1    4    4    0  501 -0.45642952691E+02  0.45467899098E+02  0.24157937721E+02  0.68932483879E+02  0.41800000000E+01 0. -1.
</event>
<event>
11    1  0.9238666E-009  0.1335846E+03  0.7561462E-02  0.1114941E+00
         22   -1    0    0    0    0  0.00000000000E+00  0.00000000000E+00  0.19070395061E+03  0.19070395061E+03  0.00000000000E+00 0. -1.
         22   -1    0    0    0    0 -0.00000000000E+00 -0.00000000000E+00 -0.67232713339E+03  0.67232713339E+03  0.00000000000E+00 0.  1.
        -24    2    1    2    0    0  0.15979776934E+01  0.28920821687E+02 -0.40375085527E+03  0.41251373139E+03  0.79459788532E+02 0.  0.
         25    2    1    2    0    0 -0.47813569230E+02 -0.34894370575E+02 -0.23246674500E+03  0.27054055756E+03  0.12509057220E+03 0.  0.
         24    2    1    2    0    0  0.46215591537E+02  0.59735488884E+01  0.15459441749E+03  0.17997679504E+03  0.79502507173E+02 0.  0.
        -13    1    5    5    0    0  0.65352097105E+02  0.87490859916E+01  0.84027711619E+02  0.10680870480E+03  0.00000000000E+00 0.  1.
         14    1    5    5    0    0 -0.19136505569E+02 -0.27755371033E+01  0.70566705873E+02  0.73168090240E+02  0.00000000000E+00 0. -1.
         13    1    3    3    0    0 -0.86175468309E+01  0.48934732798E+02 -0.15544409605E+03  0.16319233188E+03  0.00000000000E+00 0. -1.
        -14    1    3    3    0    0  0.10215524524E+02 -0.20013911111E+02 -0.24830675922E+03  0.24932139951E+03  0.00000000000E+00 0.  1.
          5    1    4    4  501    0  0.22967138568E+02 -0.56439864918E+02 -0.13436478131E+03  0.14759510379E+03  0.41800000000E+01 0. -1.
         -5    1    4    4    0  501 -0.70780707798E+02  0.21545494343E+02 -0.98101963684E+02  0.12294545376E+03  0.41800000000E+01 0. -1.
</event>
<event>
11    1  0.9238666E-009  0.1780706E+03  0.7561462E-02  0.1071214E+00
         22   -1    0    0    0    0  0.00000000000E+00  0.00000000000E+00  0.28421357904E+03  0.28421357904E+03  0.00000000000E+00 0.  1.
         22   -1    0    0    0    0 -0.00000000000E+00 -0.00000000000E+00 -0.89167277853E+03  0.89167277853E+03  0.00000000000E+00 0.  1.
        -24    2    1    2    0    0  0.13174824046E+02 -0.16268198253E+02 -0.70012386679E+03  0.70509427140E+03  0.80909038149E+02 0.  0.
         25    2    1    2    0    0 -0.12158866917E+03 -0.48580316003E+02 -0.11516936661E+03  0.21460530206E+03  0.12509037171E+03 0.  0.
         24    2    1    2    0    0  0.10841384512E+03  0.64848514255E+02  0.20783403390E+03  0.25618678411E+03  0.80484725821E+02 0.  0.
        -13    1    5    5    0    0  0.48655758135E+02  0.86022205038E+01  0.14393078897E+03  0.15217573069E+03  0.00000000000E+00 0.  1.
         14    1    5    5    0    0  0.59758086990E+02  0.56246293751E+02  0.63903244931E+02  0.10401105342E+03  0.00000000000E+00 0. -1.
         11    1    3    3    0    0  0.84952307051E+01  0.17968599577E+02 -0.46652456746E+02  0.50709873160E+02  0.00000000000E+00 0. -1.
        -12    1    3    3    0    0  0.46795933410E+01 -0.34236797830E+02 -0.65347141004E+03  0.65438439824E+03  0.00000000000E+00 0.  1.
          5    1    4    4  501    0 -0.11665139224E+03  0.80619983124E+01 -0.47905927830E+02  0.12643177389E+03  0.41800000000E+01 0.  1.
         -5    1    4    4    0  501 -0.49372769343E+01 -0.56642314315E+02 -0.67263438776E+02  0.88173528173E+02  0.41800000000E+01 0.  1.
</event>
<event>
11    1  0.9238666E-009  0.2565040E+03  0.7561462E-02  0.1020490E+00
         22   -1    0    0    0    0  0.00000000000E+00  0.00000000000E+00  0.10388682918E+04  0.10388682918E+04  0.00000000000E+00 0. -1.
         22   -1    0    0    0    0 -0.00000000000E+00 -0.00000000000E+00 -0.10670917764E+04  0.10670917764E+04  0.00000000000E+00 0.  1.
        -24    2    1    2    0    0  0.12952860750E+03 -0.17272610274E+03 -0.79181150986E+03  0.82451097142E+03  0.78999418372E+02 0.  0.
         25    2    1    2    0    0 -0.17941859974E+03  0.19697340794E+03 -0.17179687177E+03  0.34081108508E+03  0.12509385755E+03 0.  0.
         24    2    1    2    0    0  0.49889992238E+02 -0.24247305201E+02  0.93538489694E+03  0.94063801170E+03  0.82328734279E+02 0.  0.
        -11    1    5    5    0    0  0.52299083674E+02 -0.14091082418E+02  0.28115166596E+03  0.28632151862E+03  0.00000000000E+00 0.  1.
         12    1    5    5    0    0 -0.24090914358E+01 -0.10156222783E+02  0.65423323099E+03  0.65431649308E+03  0.00000000000E+00 0. -1.
         13    1    3    3    0    0  0.65995504264E+02 -0.91041962901E+02 -0.26899825113E+03  0.29155463417E+03  0.00000000000E+00 0. -1.
        -14    1    3    3    0    0  0.63533103239E+02 -0.81684139837E+02 -0.52281325873E+03  0.53295633725E+03  0.00000000000E+00 0.  1.
          5    1    4    4  501    0 -0.29640190018E+02  0.59566600420E+02 -0.10946739077E+03  0.12816903992E+03  0.41800000000E+01 0. -1.
         -5    1    4    4    0  501 -0.14977840972E+03  0.13740680752E+03 -0.62329480995E+02  0.21264204517E+03  0.41800000000E+01 0. -1.
</event>
<event>
11    1  0.9238666E-009  0.1321962E+03  0.7561462E-02  0.1116600E+00
         22   -1    0    0    0    0  0.00000000000E+00  0.00000000000E+00  0.90297617346E+03  0.90297617346E+03  0.00000000000E+00 0. -1.
         22   -1    0    0    0    0 -0.00000000000E+00 -0.00000000000E+00 -0.97021111568E+03  0.97021111568E+03  0.00000000000E+00 0. -1.
        -24    2    1    2    0    0  0.37056146413E+02 -0.21736727898E+02 -0.81091286972E+03  0.81599257504E+03  0.80115896696E+02 0.  0.
         25    2    1    2    0    0 -0.49087982473E+02 -0.55988859188E+01 -0.12569502125E+03  0.18408809313E+03  0.12509280603E+03 0.  0.
         24    2    1    2    0    0  0.12031836060E+02  0.27335613817E+02  0.86937294875E+03  0.87310662097E+03  0.74925607765E+02 0.  0.
        -13    1    5    5    0    0 -0.11727618789E+02 -0.14276678607E+02  0.73293846899E+02  0.75586695838E+02  0.00000000000E+00 0.  1.
         14    1    5    5    0    0  0.23759454849E+02  0.41612292424E+02  0.79607910185E+03  0.79751992513E+03  0.00000000000E+00 0. -1.
         13    1    3    3    0    0  0.33844576066E+02 -0.47599316728E+02 -0.68046493099E+03  0.68296681661E+03  0.00000000000E+00 0. -1.
        -14    1    3    3    0    0  0.32115703474E+01  0.25862588830E+02 -0.13044793873E+03  0.13302575843E+03  0.00000000000E+00 0.  1.
          5    1    4    4  501    0 -0.22576127203E+02  0.24994720680E+01  0.23105898209E+02  0.32669309942E+02  0.41800000000E+01 0. -1.
         -5    1    4    4    0  501 -0.26511855270E+02 -0.80983579868E+01 -0.14880091946E+03  0.15141878319E+03  0.41800000000E+01 0. -1.
</event>
<event>
11    1  0.9238666E-009  0.1449911E+03  0.7561462E-02  0.1102110E+00
         22   -1    0    0    0    0  0.00000000000E+00  0.00000000000E+00  0.39637221496E+03  0.39637221496E+03  0.00000000000E+00 0. -1.
         22   -1    0    0    0    0 -0.00000000000E+00 -0.00000000000E+00 -0.27098933590E+03  0.27098933590E+03  0.00000000000E+00 0.  1.
        -24    2    1    2    0    0  0.74603465887E+02 -0.26742751821E+02 -0.17754318156E+03  0.20863630015E+03  0.75674781290E+02 0.  0.
         25    2    1    2    0    0 -0.11483374891E+02  0.73402855729E+02  0.10055904940E+02  0.14583509508E+03  0.12508759573E+03 0.  0.
         24    2    1    2    0    0 -0.63120090996E+02 -0.46660103908E+02  0.29287015568E+03  0.31289015562E+03  0.77239952205E+02 0.  0.
        -13    1    5    5    0    0 -0.71421791197E+02 -0.28765511965E+02  0.14943787613E+03  0.16810772070E+03  0.00000000000E+00 0.  1.
         14    1    5    5    0    0  0.83017002003E+01 -0.17894591943E+02  0.14343227955E+03  0.14478243493E+03  0.00000000000E+00 0. -1.
         11    1    3    3    0    0 -0.80183519589E+00 -0.24457839863E+02 -0.13197342585E+02  0.27802854561E+02  0.00000000000E+00 0. -1.
        -12    1    3    3    0    0  0.75405301083E+02 -0.22849119579E+01 -0.16434583897E+03  0.18083344558E+03  0.00000000000E+00 0.  1.
          5    1    4    4  501    0  0.43348370101E+02 -0.43110090812E+01  0.23525465794E+02  0.49684866213E+02  0.41800000000E+01 0. -1.
         -5    1    4    4    0  501 -0.54831744992E+02  0.77713864810E+02 -0.13469560854E+02  0.96150228872E+02  0.41800000000E+01 0. -1.
</event>
<event>
11    1  0.9238666E-009  0.2407659E+03  0.7561462E-02  0.1028937E+00
         22   -1    0    0    0    0  0.00000000000E+00  0.00000000000E+00  0.12873484421E+04  0.12873484421E+04  0.00000000000E+00 0.  1.
         22   -1    0    0    0    0 -0.00000000000E+00 -0.00000000000E+00 -0.89379573897E+03  0.89379573897E+03  0.00000000000E+00 0.  1.
        -24    2    1    2    0    0 -0.51680542362E+02  0.22874441476E+03 -0.48140973584E+03  0.54143721686E+03  0.80025247859E+02 0.  0.
         25    2    1    2    0    0  0.37301008332E+02 -0.17227657161E+03 -0.34965536651E+03  0.41106835798E+03  0.12509091596E+03 0.  0.
         24    2    1    2    0    0  0.14379534030E+02 -0.56467843153E+02  0.12246178054E+04  0.12286386062E+04  0.80428023270E+02 0.  0.
        -13    1    5    5    0    0  0.17000577627E+02 -0.76879543091E+02  0.96780772468E+03  0.97100529130E+03  0.00000000000E+00 0.  1.
         14    1    5    5    0    0 -0.26210435969E+01  0.20411699938E+02  0.25681008076E+03  0.25763331489E+03  0.00000000000E+00 0. -1.
         13    1    3    3    0    0 -0.54275049532E+02  0.10189709841E+03 -0.17337577450E+03  0.20829776487E+03  0.00000000000E+00 0. -1.
        -14    1    3    3    0    0  0.25945071700E+01  0.12684731635E+03 -0.30803396134E+03  0.33313945199E+03  0.00000000000E+00 0.  1.
          5    1    4    4  501    0 -0.33168566110E+02 -0.43518199456E+01 -0.47421721333E+02  0.58184054248E+02  0.41800000000E+01 0.  1.
         -5    1    4    4    0  501  0.70469574441E+02 -0.16792475166E+03 -0.30223364518E+03  0.35288430373E+03  0.41800000000E+01 0.  1.
</event>
<event>
11    1  0.1001729E-008  0.1721273E+03  0.7561462E-02  0.1076195E+00
         22   -1    0    0    0    0  0.00000000000E+00  0.00000000000E+00  0.18214455442E+04  0.18214455442E+04  0.00000000000E+00 0.  1.
         22   -1    0    0    0    0 -0.00000000000E+00 -0.00000000000E+00 -0.35701497544E+03  0.35701497544E+03  0.00000000000E+00 0.  1.
         24    2    1    2    0    0 -0.64587590931E+02  0.39736902269E+02 -0.13883970889E+03  0.17764756897E+03  0.80818411833E+02 0.  0.
         25    2    1    2    0    0  0.24124498780E+02 -0.15059084511E+03 -0.14619678812E+03  0.24552254144E+03  0.12509285921E+03 0.  0.
        -24    2    1    2    0    0  0.40463092151E+02  0.11085394284E+03  0.17494670658E+04  0.17552904092E+04  0.80520481982E+02 0.  0.
        -11    1    3    3    0    0 -0.46681652246E+02  0.18140101689E+02 -0.14088186433E+03  0.14951902769E+03  0.00000000000E+00 0.  1.
         12    1    3    3    0    0 -0.17905938685E+02  0.21596800580E+02  0.20421554360E+01  0.28128541276E+02  0.00000000000E+00 0. -1.
         13    1    5    5    0    0 -0.13517992953E+02  0.20246927939E+01  0.63607481930E+02  0.65059567105E+02  0.00000000000E+00 0. -1.
        -14    1    5    5    0    0  0.53981085104E+02  0.10882925004E+03  0.16858595838E+04  0.16902308421E+04  0.00000000000E+00 0.  1.
          5    1    4    4  501    0  0.64707315615E+02 -0.11641899792E+03 -0.13771432843E+03  0.19163279580E+03  0.41800000000E+01 0.  1.
         -5    1    4    4    0  501 -0.40582816834E+02 -0.34171847182E+02 -0.84824596892E+01  0.53889745633E+02  0.41800000000E+01 0.  1.
</event>
<event>
11    1  0.9238666E-009  0.1309389E+03  0.7561462E-02  0.1118121E+00
         22   -1    0    0    0    0  0.00000000000E+00  0.00000000000E+00  0.13921917574E+04  0.13921917574E+04  0.00000000000E+00 0. -1.
         22   -1    0    0    0    0 -0.00000000000E+00 -0.00000000000E+00 -0.15486370708E+03  0.15486370708E+03  0.00000000000E+00 0.  1.
        -24    2    1    2    0    0 -0.38333213486E+02  0.91931675022E+01 -0.12855964703E+03  0.15720859343E+03  0.81443289597E+02 0.  0.
         25    2    1    2    0    0  0.20944316773E+02  0.10288126934E+02  0.39135180330E+03  0.41152067418E+03  0.12509405011E+03 0.  0.
         24    2    1    2    0    0  0.17388896713E+02 -0.19481294436E+02  0.97453589410E+03  0.97832619691E+03  0.81975875127E+02 0.  0.
        -11    1    5    5    0    0 -0.49898429608E+01  0.87945728477E+01  0.14865142282E+02  0.17978195110E+02  0.00000000000E+00 0.  1.
         12    1    5    5    0    0  0.22378739674E+02 -0.28275867284E+02  0.95967075182E+03  0.96034800180E+03  0.00000000000E+00 0. -1.
         13    1    3    3    0    0  0.15106051556E+02 -0.22711258438E+02 -0.29136751115E+02  0.39911706541E+02  0.00000000000E+00 0. -1.
        -14    1    3    3    0    0 -0.53439265042E+02  0.31904425941E+02 -0.99422895915E+02  0.11729688689E+03  0.00000000000E+00 0.  1.
          5    1    4    4  501    0 -0.18131846275E+02  0.57340179266E+02  0.13347833361E+03  0.14646022651E+03  0.41800000000E+01 0.  1.
         -5    1    4    4    0  501  0.39076163048E+02 -0.47052052331E+02  0.25787346969E+03  0.26506044767E+03  0.41800000000E+01 0.  1.
</event>
<event>
11    1  0.9238666E-009  0.1600421E+03  0.7561462E-02  0.1087038E+00
         22   -1    0    0    0    0  0.00000000000E+00  0.00000000000E+00  0.77591339021E+03  0.77591339021E+03  0.00000000000E+00 0. -1.
         22   -1    0    0    0    0 -0.00000000000E+00 -0.00000000000E+00 -0.14242683688E+04  0.14242683688E+04  0.00000000000E+00 0.  1.
         24    2    1    2    0    0  0.17466395747E+02 -0.87251324867E+02 -0.12662045459E+04  0.12718760559E+04  0.80479070953E+02 0.  0.
         25    2    1    2    0    0  0.60138331865E+02  0.14760736726E+03 -0.80825313583E+02  0.21814003720E+03  0.12509112952E+03 0.  0.
        -24    2    1    2    0    0 -0.77604727612E+02 -0.60356042395E+02  0.69867488097E+03  0.71016566581E+03  0.80767183921E+02 0.  0.
        -13    1    3    3    0    0  0.76299841579E+00 -0.91279761150E+02 -0.77280998898E+03  0.77818240537E+03  0.00000000000E+00 0.  1.
         14    1    3    3    0    0  0.16703397331E+02  0.40284362825E+01 -0.49339455696E+03  0.49369365058E+03  0.00000000000E+00 0. -1.
         13    1    5    5    0    0 -0.14888644551E+02  0.65613579106E+01  0.32476701500E+03  0.32517431815E+03  0.00000000000E+00 0. -1.
        -14    1    5    5    0    0 -0.62716083061E+02 -0.66917400306E+02  0.37390786597E+03  0.38499134766E+03  0.00000000000E+00 0.  1.
          5    1    4    4  501    0  0.85621284432E+01  0.33165599858E+02 -0.85764766506E+02  0.92446387876E+02  0.41800000000E+01 0.  1.
         -5    1    4    4    0  501  0.51576203422E+02  0.11444176740E+03  0.49394529235E+01  0.12569364933E+03  0.41800000000E+01 0.  1.
</event>
<event>
11    1  0.9238666E-009  0.1325057E+03  0.7561462E-02  0.1116228E+00
         22   -1    0    0    0    0  0.00000000000E+00  0.00000000000E+00  0.16633739091E+04  0.16633739091E+04  0.00000000000E+00 0.  1.
         22   -1    0    0    0    0 -0.00000000000E+00 -0.00000000000E+00 -0.93569764273E+02  0.93569764273E+02  0.00000000000E+00 0. -1.
         24    2    1    2    0    0 -0.24019197180E+02  0.34720796677E+02 -0.23011975124E+02  0.92941910097E+02  0.79537362907E+02 0.  0.
         25    2    1    2    0    0  0.12718877112E+02 -0.50304007362E+02  0.99143654167E+02  0.16783659767E+03  0.12508955338E+03 0.  0.
        -24    2    1    2    0    0  0.11300320068E+02  0.15583210685E+02  0.14936724658E+04  0.14961651656E+04  0.84156010142E+02 0.  0.
        -11    1    3    3    0    0 -0.42368354647E+02  0.12363391509E+02  0.13693052112E+02  0.46210719549E+02  0.00000000000E+00 0.  1.
         12    1    3    3    0    0  0.18349157467E+02  0.22357405168E+02 -0.36705027236E+02  0.46731190547E+02  0.00000000000E+00 0. -1.
         13    1    5    5    0    0  0.28967532152E+02 -0.92367219628E+00  0.18391803224E+03  0.18618757658E+03  0.00000000000E+00 0. -1.
        -14    1    5    5    0    0 -0.17667212084E+02  0.16506882881E+02  0.13097544335E+04  0.13099775890E+04  0.00000000000E+00 0.  1.
          5    1    4    4  501    0  0.21401104949E+02 -0.76151120397E+02  0.16770566687E+02  0.80967430105E+02  0.41800000000E+01 0. -1.
         -5    1    4    4    0  501 -0.86822278374E+01  0.25847113035E+02  0.82373087480E+02  0.86869167565E+02  0.41800000000E+01 0. -1.
</event>
<event>
11    1  0.9238666E-009  0.1870538E+03  0.7561462E-02  0.1064076E+00
         22   -1    0    0    0    0  0.00000000000E+00  0.00000000000E+00  0.17657435474E+04  0.17657435474E+04  0.00000000000E+00 0.  1.
         22   -1    0    0    0    0 -0.00000000000E+00 -0.00000000000E+00 -0.40198226269E+03  0.40198226269E+03  0.00000000000E+00 0. -1.
         24    2    1    2    0    0  0.22681343651E+02 -0.12681504637E+02 -0.37481253747E+03  0.38438005555E+03  0.81168497280E+02 0.  0.
         25    2    1    2    0    0 -0.15284448346E+03 -0.21980077100E+02  0.55662223195E+03  0.59103201097E+03  0.12508384776E+03 0.  0.
        -24    2    1    2    0    0  0.13016313981E+03  0.34661581737E+02  0.11819515902E+04  0.11923137436E+04  0.80365622387E+02 0.  0.
        -11    1    3    3    0    0  0.31604773611E+02 -0.10488953071E+02 -0.54040390208E+02  0.63476323344E+02  0.00000000000E+00 0.  1.
         12    1    3    3    0    0 -0.89234299600E+01 -0.21925515658E+01 -0.32077214727E+03  0.32090373221E+03  0.00000000000E+00 0. -1.
         11    1    5    5    0    0  0.58000572179E+02  0.55600629485E+02  0.53194061555E+03  0.53797426968E+03  0.00000000000E+00 0. -1.
        -12    1    5    5    0    0  0.72162567628E+02 -0.20939047748E+02  0.65001097469E+03  0.65433947390E+03  0.00000000000E+00 0.  1.
          5    1    4    4  501    0 -0.75262765380E+02 -0.68376128865E+02  0.36819990564E+03  0.38200578760E+03  0.41800000000E+01 0. -1.
         -5    1    4    4    0  501 -0.77581718078E+02  0.46396051765E+02  0.18842232631E+03  0.20902622336E+03  0.41800000000E+01 0. -1.
</event>
<event>
11    1  0.9238666E-009  0.1337093E+03  0.7561462E-02  0.1114794E+00
         22   -1    0    0    0    0  0.00000000000E+00  0.00000000000E+00  0.12713750358E+03  0.12713750358E+03  0.00000000000E+00 0.  1.
         22   -1    0    0    0    0 -0.00000000000E+00 -0.00000000000E+00 -0.75072740082E+03  0.75072740082E+03  0.00000000000E+00 0.  1.
        -24    2    1    2    0    0 -0.15583353351E-01 -0.34163292070E+02 -0.62332772181E+03  0.62930795853E+03  0.79523123238E+02 0.  0.
         25    2    1    2    0    0  0.42573319948E+01  0.73180171680E+02 -0.39958704238E+02  0.15038975594E+03  0.12508764225E+03 0.  0.
         24    2    1    2    0    0 -0.42417486414E+01 -0.39016879610E+02  0.39696528810E+02  0.98167189931E+02  0.80750687015E+02 0.  0.
        -11    1    5    5    0    0 -0.21125132716E+02  0.17938442159E+02  0.24154396818E+02  0.36762668905E+02  0.00000000000E+00 0.  1.
         12    1    5    5    0    0  0.16883384075E+02 -0.56955321768E+02  0.15542131992E+02  0.61404521026E+02  0.00000000000E+00 0. -1.
         11    1    3    3    0    0 -0.21794782062E+02  0.17070772719E+02 -0.29476615068E+03  0.29606335030E+03  0.00000000000E+00 0. -1.
        -12    1    3    3    0    0  0.21779198708E+02 -0.51234064789E+02 -0.32856157113E+03  0.33324460823E+03  0.00000000000E+00 0.  1.
          5    1    4    4  501    0  0.13676050184E+02 -0.27242867607E+02  0.16302538777E+02  0.34820300899E+02  0.41800000000E+01 0.  1.
         -5    1    4    4    0  501 -0.94187181894E+01  0.10042303929E+03 -0.56261243015E+02  0.11556945504E+03  0.41800000000E+01 0.  1.
</event>
<event>
11    1  0.9238666E-009  0.1428388E+03  0.7561462E-02  0.1104429E+00
         22   -1    0    0    0    0  0.00000000000E+00  0.00000000000E+00  0.22105820255E+03  0.22105820255E+03  0.00000000000E+00 0. -1.
         22   -1    0    0    0    0 -0.00000000000E+00 -0.00000000000E+00 -0.57419781475E+03  0.57419781475E+03  0.00000000000E+00 0.  1.
        -24    2    1    2    0    0 -0.69743472725E+02  0.36224524128E+00 -0.44253380707E+03  0.45502703103E+03  0.79681524561E+02 0.  0.
         25    2    1    2    0    0  0.59388369206E+02 -0.59976922614E+02 -0.58584596493E+02  0.16187519316E+03  0.12508882272E+03 0.  0.
         24    2    1    2    0    0  0.10355103519E+02  0.59614677373E+02  0.14797879137E+03  0.17835379311E+03  0.79064624796E+02 0.  0.
        -13    1    5    5    0    0  0.20741649517E+02  0.13586879826E+02  0.12199093044E+03  0.12448536636E+03  0.00000000000E+00 0.  1.
         14    1    5    5    0    0 -0.10386545998E+02  0.46027797547E+02  0.25987860930E+02  0.53868426750E+02  0.00000000000E+00 0. -1.
         11    1    3    3    0    0 -0.14484228911E+02  0.26500731438E+02 -0.55403527876E+02  0.63100178724E+02  0.00000000000E+00 0. -1.
        -12    1    3    3    0    0 -0.55259243814E+02 -0.26138486197E+02 -0.38713027920E+03  0.39192685231E+03  0.00000000000E+00 0.  1.
          5    1    4    4  501    0  0.47021157773E+02 -0.56336875367E+02  0.24665908520E+02  0.77528783349E+02  0.41800000000E+01 0. -1.
         -5    1    4    4    0  501  0.12367211433E+02 -0.36400472471E+01 -0.83250505013E+02  0.84346409808E+02  0.41800000000E+01 0. -1.
</event>
<event>
11    1  0.9238666E-009  0.2200804E+03  0.7561462E-02  0.1041167E+00
         22   -1    0    0    0    0  0.00000000000E+00  0.00000000000E+00  0.28706083706E+03  0.28706083706E+03  0.00000000000E+00 0.  1.
         22   -1    0    0    0    0 -0.00000000000E+00 -0.00000000000E+00 -0.11337009726E+04  0.11337009726E+04  0.00000000000E+00 0.  1.
         24    2    1    2    0    0  0.63236307310E+02  0.50747316690E+02 -0.39579678192E+03  0.41284360072E+03  0.84915401237E+02 0.  0.
         25    2    1    2    0    0  0.89912025770E+02 -0.14974460882E+03 -0.67470596490E+03  0.70808465112E+03  0.12509242117E+03 0.  0.
        -24    2    1    2    0    0 -0.15314833308E+03  0.98997292127E+02  0.22386261126E+03  0.29983355784E+03  0.80813476080E+02 0.  0.
        -13    1    3    3    0    0  0.53686834811E+02  0.51533981078E+02 -0.39632117337E+03  0.40324744252E+03  0.00000000000E+00 0.  1.
         14    1    3    3    0    0  0.95494724995E+01 -0.78666438750E+00  0.52439145039E+00  0.95961582037E+01  0.00000000000E+00 0. -1.
         13    1    5    5    0    0 -0.26615481922E+02  0.46309083797E+02  0.26713797093E+02  0.59720533112E+02  0.00000000000E+00 0. -1.
        -14    1    5    5    0    0 -0.12653285116E+03  0.52688208330E+02  0.19714881416E+03  0.24011302473E+03  0.00000000000E+00 0.  1.
          5    1    4    4  501    0  0.25616394323E+02 -0.19452370901E+02 -0.21529013108E+02  0.38930260688E+02  0.41800000000E+01 0.  1.
         -5    1    4    4    0  501  0.64295631446E+02 -0.13029223792E+03 -0.65317695179E+03  0.66915439044E+03  0.41800000000E+01 0.  1.
</event>
<event>
11    1  0.9238666E-009  0.1718396E+03  0.7561462E-02  0.1076442E+00
         22   -1    0    0    0    0  0.00000000000E+00  0.00000000000E+00  0.18741898081E+04  0.18741898081E+04  0.00000000000E+00 0. -1.
         22   -1    0    0    0    0 -0.00000000000E+00 -0.00000000000E+00 -0.47314862898E+03  0.47314862898E+03  0.00000000000E+00 0.  1.
         24    2    1    2    0    0 -0.13582495694E+02  0.18667275054E+02 -0.41355965354E+03  0.42197986535E+03  0.80637884274E+02 0.  0.
         25    2    1    2    0    0 -0.21482031732E+01  0.99211366805E+02  0.69367730451E+02  0.17408899384E+03  0.12509031005E+03 0.  0.
        -24    2    1    2    0    0  0.15730698867E+02 -0.11787864186E+03  0.17452331022E+04  0.17512695779E+04  0.83448932101E+02 0.  0.
        -13    1    3    3    0    0 -0.39576306577E+01  0.50202443744E+02 -0.22580876433E+03  0.23135588656E+03  0.00000000000E+00 0.  1.
         14    1    3    3    0    0 -0.96248650365E+01 -0.31535168691E+02 -0.18775088921E+03  0.19062397879E+03  0.00000000000E+00 0. -1.
         11    1    5    5    0    0 -0.21074172041E+02 -0.69112144260E+02  0.58764839587E+03  0.59207368323E+03  0.00000000000E+00 0. -1.
        -12    1    5    5    0    0  0.36804870909E+02 -0.48766497598E+02  0.11575847064E+04  0.11591958947E+04  0.00000000000E+00 0.  1.
          5    1    4    4  501    0 -0.27481065966E+02  0.81307197062E+02  0.98928095940E+02  0.13103552895E+03  0.41800000000E+01 0.  1.
         -5    1    4    4    0  501  0.25332862793E+02  0.17904169743E+02 -0.29560365489E+02  0.43053464893E+02  0.41800000000E+01 0.  1.
</event>
<event>
11    1  0.9238666E-009  0.1920729E+03  0.7561462E-02  0.1060275E+00
         22   -1    0    0    0    0  0.00000000000E+00  0.00000000000E+00  0.31233752953E+03  0.31233752953E+03  0.00000000000E+00 0. -1.
         22   -1    0    0    0    0 -0.00000000000E+00 -0.00000000000E+00 -0.85351325765E+03  0.85351325765E+03  0.00000000000E+00 0.  1.
        -24    2    1    2    0    0 -0.22677996394E+02  0.82655580846E+02 -0.69421387400E+03  0.70390754182E+03  0.78782536171E+02 0.  0.
         25    2    1    2    0    0  0.15287938634E+03 -0.12119308317E+03 -0.13680712526E+02  0.23213784540E+03  0.12506377251E+03 0.  0.
         24    2    1    2    0    0 -0.13020138994E+03  0.38537502320E+02  0.16671885841E+03  0.22980539997E+03  0.81103656370E+02 0.  0.
        -11    1    5    5    0    0 -0.11753266491E+03  0.20617853963E+02  0.88493985440E+02  0.14856045463E+03  0.00000000000E+00 0.  1.
         12    1    5    5    0    0 -0.12668725039E+02  0.17919648357E+02  0.78224872969E+02  0.81244945334E+02  0.00000000000E+00 0. -1.
         11    1    3    3    0    0  0.26478179301E+02  0.38664807644E+02 -0.20636315619E+03  0.21161713910E+03  0.00000000000E+00 0. -1.
        -12    1    3    3    0    0 -0.49156175694E+02  0.43990773202E+02 -0.48785071781E+03  0.49229040272E+03  0.00000000000E+00 0.  1.
          5    1    4    4  501    0  0.31331286402E+01  0.63299304240E+01  0.29586764460E+02  0.30703966283E+02  0.41800000000E+01 0. -1.
         -5    1    4    4    0  501  0.14974625770E+03 -0.12752301359E+03 -0.43267476986E+02  0.20143387911E+03  0.41800000000E+01 0. -1.
</event>
<event>
11    1  0.9238666E-009  0.1568552E+03  0.7561462E-02  0.1090073E+00
         22   -1    0    0    0    0  0.00000000000E+00  0.00000000000E+00  0.15327638585E+03  0.15327638585E+03  0.00000000000E+00 0. -1.
         22   -1    0    0    0    0 -0.00000000000E+00 -0.00000000000E+00 -0.11478503700E+04  0.11478503700E+04  0.00000000000E+00 0.  1.
         24    2    1    2    0    0 -0.63669462927E+02 -0.61157164466E+02 -0.84536914713E+03  0.85379190576E+03  0.80731803826E+02 0.  0.
         25    2    1    2    0    0  0.94568052870E+02  0.10903889817E+03 -0.24687359955E+03  0.31213303959E+03  0.12509141580E+03 0.  0.
        -24    2    1    2    0    0 -0.30898589943E+02 -0.47881733705E+02  0.97668762550E+02  0.13520181048E+03  0.74114499895E+02 0.  0.
        -11    1    3    3    0    0 -0.18828354420E+02 -0.71156661405E+02 -0.50487630382E+03  0.51021354309E+03  0.00000000000E+00 0.  1.
         12    1    3    3    0    0 -0.44841108507E+02  0.99994969392E+01 -0.34049284331E+03  0.34357836267E+03  0.00000000000E+00 0. -1.
         13    1    5    5    0    0 -0.39880138518E+02 -0.16865066338E+02  0.92985980518E+02  0.10257313724E+03  0.00000000000E+00 0. -1.
        -14    1    5    5    0    0  0.89815485746E+01 -0.31016667368E+02  0.46827820316E+01  0.32628673233E+02  0.00000000000E+00 0.  1.
          5    1    4    4  501    0  0.10788589593E+02  0.15296593275E+02  0.13167021705E+02  0.23264184744E+02  0.41800000000E+01 0.  1.
         -5    1    4    4    0  501  0.83779463277E+02  0.93742304897E+02 -0.26004062126E+03  0.28886885484E+03  0.41800000000E+01 0.  1.
</event>
<event>
11    1  0.9238666E-009  0.1430034E+03  0.7561462E-02  0.1104250E+00
         22   -1    0    0    0    0  0.00000000000E+00  0.00000000000E+00  0.17622880276E+03  0.17622880276E+03  0.00000000000E+00 0. -1.
         22   -1    0    0    0    0 -0.00000000000E+00 -0.00000000000E+00 -0.82399871798E+03  0.82399871798E+03  0.00000000000E+00 0.  1.
         24    2    1    2    0    0 -0.18468914056E+02  0.54840188786E+02 -0.38322691826E+03  0.39573299577E+03  0.79957400943E+02 0.  0.
         25    2    1    2    0    0 -0.50004673894E+02 -0.67670787794E+02 -0.39759848031E+03  0.42521907969E+03  0.12508761430E+03 0.  0.
        -24    2    1    2    0    0  0.68473587951E+02  0.12830599009E+02  0.13305548336E+03  0.17927544529E+03  0.97891098247E+02 0.  0.
        -13    1    3    3    0    0 -0.32834753606E+02 -0.58268728032E+01 -0.18337009001E+03  0.18637774384E+03  0.00000000000E+00 0.  1.
         14    1    3    3    0    0  0.14365839549E+02  0.60667061589E+02 -0.19985682826E+03  0.20935525192E+03  0.00000000000E+00 0. -1.
         11    1    5    5    0    0  0.35684261122E+02  0.92681794586E+01  0.14067372624E+03  0.14542476714E+03  0.00000000000E+00 0. -1.
        -12    1    5    5    0    0  0.32789326829E+02  0.35624195499E+01 -0.76182428848E+01  0.33850678156E+02  0.00000000000E+00 0.  1.
          5    1    4    4  501    0 -0.41318615303E+02 -0.88495208168E+02 -0.16719493091E+03  0.19367562356E+03  0.41800000000E+01 0. -1.
         -5    1    4    4    0  501 -0.86860585919E+01  0.20824420374E+02 -0.23040354940E+03  0.23154345612E+03  0.41800000000E+01 0. -1.
</event>
<event>
11    1  0.9238666E-009  0.2329606E+03  0.7561462E-02  0.1033389E+00
         22   -1    0    0    0    0  0.00000000000E+00  0.00000000000E+00  0.18839165400E+04  0.18839165400E+04  0.00000000000E+00 0. -1.
         22   -1    0    0    0    0 -0.00000000000E+00 -0.00000000000E+00 -0.12885939105E+03  0.12885939105E+03  0.00000000000E+00 0. -1.
         24    2    1    2    0    0  0.12565268752E+03 -0.15666196932E+03 -0.35824800875E+01  0.21602716367E+03  0.79519373541E+02 0.  0.
         25    2    1    2    0    0 -0.11629148709E+03  0.12524942918E+03  0.62493725991E+03  0.65985261447E+03  0.12509102494E+03 0.  0.
        -24    2    1    2    0    0 -0.93612004255E+01  0.31412540140E+02  0.11337023691E+04  0.11368961529E+04  0.78596571166E+02 0.  0.
        -13    1    3    3    0    0  0.30716589088E+02 -0.37526446490E+02  0.33874309322E+02  0.59154136486E+02  0.00000000000E+00 0.  1.
         14    1    3    3    0    0  0.94936098428E+02 -0.11913552283E+03 -0.37456789410E+02  0.15687302718E+03  0.00000000000E+00 0. -1.
         13    1    5    5    0    0 -0.50036071030E+01 -0.13204757801E+01  0.96383380432E+03  0.96384769652E+03  0.00000000000E+00 0. -1.
        -14    1    5    5    0    0 -0.43575933225E+01  0.32733015920E+02  0.16986856482E+03  0.17304845640E+03  0.00000000000E+00 0.  1.
          5    1    4    4  501    0 -0.18527272050E+02  0.67504586365E+02  0.96208131142E+02  0.11905295413E+03  0.41800000000E+01 0.  1.
         -5    1    4    4    0  501 -0.97764215040E+02  0.57744842814E+02  0.52872912877E+03  0.54079966034E+03  0.41800000000E+01 0.  1.
</event>
<event>
11    1  0.9238666E-009  0.2037624E+03  0.7561462E-02  0.1051894E+00
         22   -1    0    0    0    0  0.00000000000E+00  0.00000000000E+00  0.15240908512E+04  0.15240908512E+04  0.00000000000E+00 0. -1.
         22   -1    0    0    0    0 -0.00000000000E+00 -0.00000000000E+00 -0.21391785450E+03  0.21391785450E+03  0.00000000000E+00 0. -1.
        -24    2    1    2    0    0 -0.12210350497E+03 -0.97451291682E+02 -0.10269445518E+03  0.20340907975E+03  0.80144135282E+02 0.  0.
         25    2    1    2    0    0  0.22627052640E+03  0.49581534339E+01  0.24447894587E+03  0.35586627747E+03  0.12509163868E+03 0.  0.
         24    2    1    2    0    0 -0.10416702143E+03  0.92493138248E+02  0.11683885060E+04  0.11787333484E+04  0.69820175224E+02 0.  0.
        -11    1    5    5    0    0 -0.17156732408E+02  0.19266728879E+02  0.72372700532E+02  0.76833378755E+02  0.00000000000E+00 0.  1.
         12    1    5    5    0    0 -0.87010289023E+02  0.73226409369E+02  0.10960158054E+04  0.11018999697E+04  0.00000000000E+00 0. -1.
         13    1    3    3    0    0 -0.12996741683E+03 -0.10309113800E+03 -0.96409187137E+02  0.19186986094E+03  0.00000000000E+00 0. -1.
        -14    1    3    3    0    0  0.78639118567E+01  0.56398463225E+01 -0.62852680474E+01  0.11539218806E+02  0.00000000000E+00 0.  1.
          5    1    4    4  501    0  0.24038129849E+03  0.97135877274E+01  0.21545918967E+03  0.32298244111E+03  0.41800000000E+01 0. -1.
         -5    1    4    4    0  501 -0.14110772090E+02 -0.47554342935E+01  0.29019756198E+02  0.32883836365E+02  0.41800000000E+01 0. -1.
</event>
<event>
11    1  0.9238666E-009  0.1378891E+03  0.7561462E-02  0.1109939E+00
         22   -1    0    0    0    0  0.00000000000E+00  0.00000000000E+00  0.85468271933E+03  0.85468271933E+03  0.00000000000E+00 0. -1.
         22   -1    0    0    0    0 -0.00000000000E+00 -0.00000000000E+00 -0.54932105544E+03  0.54932105544E+03  0.00000000000E+00 0. -1.
         24    2    1    2    0    0  0.56166135491E+02  0.14043719874E+02 -0.51417720427E+03  0.52371351404E+03  0.80906035355E+02 0.  0.
         25    2    1    2    0    0 -0.69403587485E+02  0.19781079356E+02  0.16052224289E+03  0.21592360984E+03  0.12508983079E+03 0.  0.
        -24    2    1    2    0    0  0.13237451994E+02 -0.33824799231E+02  0.65901662527E+03  0.66436665089E+03  0.75899850235E+02 0.  0.
        -13    1    3    3    0    0  0.39732673154E+02  0.17592656133E+02 -0.98055931745E+02  0.10725275109E+03  0.00000000000E+00 0.  1.
         14    1    3    3    0    0  0.16433462338E+02 -0.35489362582E+01 -0.41612127252E+03  0.41646076295E+03  0.00000000000E+00 0. -1.
         11    1    5    5    0    0  0.14852163537E+02 -0.48633930726E+02  0.62694797039E+03  0.62900683904E+03  0.00000000000E+00 0. -1.
        -12    1    5    5    0    0 -0.16147115432E+01  0.14809131495E+02  0.32068654874E+02  0.35359811855E+02  0.00000000000E+00 0.  1.
          5    1    4    4  501    0  0.14563727985E+02 -0.34339860924E+02  0.76930459358E+02  0.85598459088E+02  0.41800000000E+01 0. -1.
         -5    1    4    4    0  501 -0.83967315470E+02  0.54120940281E+02  0.83591783531E+02  0.13032515075E+03  0.41800000000E+01 0. -1.
</event>
<event>
11    1  0.9238666E-009  0.1352380E+03  0.7561462E-02  0.1112996E+00
         22   -1    0    0    0    0  0.00000000000E+00  0.00000000000E+00  0.51485315819E+03  0.51485315819E+03  0.00000000000E+00 0. -1.
         22   -1    0    0    0    0 -0.00000000000E+00 -0.00000000000E+00 -0.81914197208E+02  0.81914197208E+02  0.00000000000E+00 0. -1.
        -24    2    1    2    0    0 -0.60885132099E+02 -0.35702278913E+02  0.33977692104E+02  0.11099985386E+03  0.78643702650E+02 0.  0.
         25    2    1    2    0    0  0.26773074674E+02 -0.56573482969E+01  0.76550871412E+02  0.14918560121E+03  0.12508998592E+03 0.  0.
         24    2    1    2    0    0  0.34112057425E+02  0.41359627210E+02  0.32241039746E+03  0.33658190032E+03  0.80403109447E+02 0.  0.
        -13    1    5    5    0    0 -0.16729408246E+02  0.38216444093E+02  0.98865489085E+02  0.10730682472E+03  0.00000000000E+00 0.  1.
         14    1    5    5    0    0  0.50841465671E+02  0.31431831168E+01  0.22354490838E+03  0.22927507560E+03  0.00000000000E+00 0. -1.
         11    1    3    3    0    0 -0.45622148120E+02 -0.22476957723E+02 -0.19008962328E+02  0.54294886281E+02  0.00000000000E+00 0. -1.
        -12    1    3    3    0    0 -0.15262983980E+02 -0.13225321190E+02  0.52986654432E+02  0.56704967582E+02  0.00000000000E+00 0.  1.
          5    1    4    4  501    0  0.51636000534E+02 -0.51618362024E+02  0.58804949303E+02  0.93841495681E+02  0.41800000000E+01 0.  1.
         -5    1    4    4    0  501 -0.24862925860E+02  0.45961013727E+02  0.17745922109E+02  0.55344105527E+02  0.41800000000E+01 0.  1.
</event>
<event>
11    1  0.9238666E-009  0.1508500E+03  0.7561462E-02  0.1096013E+00
         22   -1    0    0    0    0  0.00000000000E+00  0.00000000000E+00  0.15936678800E+03  0.15936678800E+03  0.00000000000E+00 0. -1.
         22   -1    0    0    0    0 -0.00000000000E+00 -0.00000000000E+00 -0.12011526819E+04  0.12011526819E+04  0.00000000000E+00 0. -1.
        -24    2    1    2    0    0  0.41411198806E+02 -0.18733670570E+02 -0.10756105568E+04  0.10795211104E+04  0.79761646163E+02 0.  0.
         25    2    1    2    0    0 -0.10238968206E+03  0.17208485942E+02  0.63973846734E+02  0.17470436275E+03  0.12509669187E+03 0.  0.
         24    2    1    2    0    0  0.60978483254E+02  0.15251846287E+01 -0.30149183847E+02  0.10629399672E+03  0.81662346550E+02 0.  0.
        -13    1    5    5    0    0  0.73044263841E+01  0.27958602343E+02 -0.36017578205E+02  0.46176877651E+02  0.00000000000E+00 0.  1.
         14    1    5    5    0    0  0.53674056870E+02 -0.26433417715E+02  0.58683943576E+01  0.60117119071E+02  0.00000000000E+00 0. -1.
         11    1    3    3    0    0  0.45185660468E+02 -0.37512596614E+02 -0.99232565297E+03  0.99406193990E+03  0.00000000000E+00 0. -1.
        -12    1    3    3    0    0 -0.37744616620E+01  0.18778926044E+02 -0.83284903814E+02  0.85459170529E+02  0.00000000000E+00 0.  1.
          5    1    4    4  501    0 -0.63566201960E+02 -0.52523020703E+02  0.35345182417E+02  0.89811380434E+02  0.41800000000E+01 0.  1.
         -5    1    4    4    0  501 -0.38823480100E+02  0.69731506644E+02  0.28628664316E+02  0.84892982316E+02  0.41800000000E+01 0.  1.
</event>
<event>
11    1  0.9238666E-009  0.1294786E+03  0.7561462E-02  0.1119911E+00
         22   -1    0    0    0    0  0.00000000000E+00  0.00000000000E+00  0.18960638225E+03  0.18960638225E+03  0.00000000000E+00 0. -1.
         22   -1    0    0    0    0 -0.00000000000E+00 -0.00000000000E+00 -0.37491109707E+03  0.37491109707E+03  0.00000000000E+00 0. -1.
         24    2    1    2    0    0 -0.18570170374E+02 -0.24641172233E+02 -0.28036232354E+03  0.29370579304E+03  0.81902514061E+02 0.  0.
         25    2    1    2    0    0  0.50593156177E+02  0.35999259849E+02 -0.29878424437E+01  0.13968723503E+03  0.12509189529E+03 0.  0.
        -24    2    1    2    0    0 -0.32022985803E+02 -0.11358087616E+02  0.98045451165E+02  0.13112445124E+03  0.80163791361E+02 0.  0.
        -11    1    3    3    0    0 -0.29076428087E+02 -0.25648481474E+02 -0.50822605377E+02  0.63923551916E+02  0.00000000000E+00 0.  1.
         12    1    3    3    0    0  0.10506257713E+02  0.10073092414E+01 -0.22953971816E+03  0.22978224113E+03  0.00000000000E+00 0. -1.
         11    1    5    5    0    0 -0.17078180942E+02  0.33540012506E+02  0.57958825228E+02  0.69107323238E+02  0.00000000000E+00 0. -1.
        -12    1    5    5    0    0 -0.14944804861E+02 -0.44898100122E+02  0.40086625936E+02  0.62017128004E+02  0.00000000000E+00 0.  1.
          5    1    4    4  501    0  0.72036291407E+01  0.14017668861E+02  0.58755171685E+02  0.60975650163E+02  0.41800000000E+01 0. -1.
         -5    1    4    4    0  501  0.43389527036E+02  0.21981590988E+02 -0.61743014129E+02  0.78711584868E+02  0.41800000000E+01 0. -1.
</event>
<event>
11    1  0.9238666E-009  0.1464699E+03  0.7561462E-02  0.1100541E+00
         22   -1    0    0    0    0  0.00000000000E+00  0.00000000000E+00  0.51347423587E+03  0.51347423587E+03  0.00000000000E+00 0.  1.
         22   -1    0    0    0    0 -0.00000000000E+00 -0.00000000000E+00 -0.28154847992E+03  0.28154847992E+03  0.00000000000E+00 0.  1.
         24    2    1    2    0    0  0.13857171810E+02  0.73207690005E+02 -0.21159857545E+03  0.23958219628E+03  0.84108766217E+02 0.  0.
         25    2    1    2    0    0  0.41170050240E+02 -0.10056055089E+03  0.91290419213E+02  0.18917537782E+03  0.12508391384E+03 0.  0.
        -24    2    1    2    0    0 -0.55027222050E+02  0.27352860887E+02  0.35223391219E+03  0.36626514169E+03  0.79405610349E+02 0.  0.
        -13    1    3    3    0    0  0.15416412908E+01  0.17079580634E+01 -0.13145965731E+03  0.13147979039E+03  0.00000000000E+00 0.  1.
         14    1    3    3    0    0  0.12315530519E+02  0.71499731941E+02 -0.80138918132E+02  0.10810240589E+03  0.00000000000E+00 0. -1.
         11    1    5    5    0    0 -0.18440829835E+02  0.42658227450E+01  0.10190463321E+02  0.21496673961E+02  0.00000000000E+00 0. -1.
        -12    1    5    5    0    0 -0.36586392215E+02  0.23087038142E+02  0.34204344887E+03  0.34476846773E+03  0.00000000000E+00 0.  1.
          5    1    4    4  501    0  0.73460805309E+02 -0.98081115350E+02  0.96597165187E+02  0.15609253610E+03  0.41800000000E+01 0. -1.
         -5    1    4    4    0  501 -0.32290755069E+02 -0.24794355415E+01 -0.53067459737E+01  0.33082841721E+02  0.41800000000E+01 0. -1.
</event>
<event>
11    1  0.9238666E-009  0.1614535E+03  0.7561462E-02  0.1085718E+00
         22   -1    0    0    0    0  0.00000000000E+00  0.00000000000E+00  0.99599246288E+03  0.99599246288E+03  0.00000000000E+00 0.  1.
         22   -1    0    0    0    0 -0.00000000000E+00 -0.00000000000E+00 -0.98147185002E+02  0.98147185002E+02  0.00000000000E+00 0. -1.
        -24    2    1    2    0    0  0.23789104433E+02  0.59241994914E+02 -0.33443735723E+02  0.10829641300E+03  0.80833743932E+02 0.  0.
         25    2    1    2    0    0 -0.92092363067E+02 -0.11378895792E+03  0.43782239337E+03  0.47829393758E+03  0.12509081627E+03 0.  0.
         24    2    1    2    0    0  0.68303258634E+02  0.54546963005E+02  0.49346662023E+03  0.50754929730E+03  0.80350965115E+02 0.  0.
        -11    1    5    5    0    0  0.36868928039E+02  0.68436435832E+02  0.25399728270E+03  0.26562658607E+03  0.00000000000E+00 0.  1.
         12    1    5    5    0    0  0.31434330595E+02 -0.13889472827E+02  0.23946933753E+03  0.24192271123E+03  0.00000000000E+00 0. -1.
         13    1    3    3    0    0 -0.15536017480E+02  0.52991367363E+02 -0.39669928979E+02  0.67993794712E+02  0.00000000000E+00 0. -1.
        -14    1    3    3    0    0  0.39325121913E+02  0.62506275512E+01  0.62261932560E+01  0.40302618286E+02  0.00000000000E+00 0.  1.
          5    1    4    4  501    0 -0.96722694756E+02 -0.20834092765E+02  0.21096358822E+03  0.23305031014E+03  0.41800000000E+01 0.  1.
         -5    1    4    4    0  501  0.46303316885E+01 -0.92954865155E+02  0.22685880515E+03  0.24524362745E+03  0.41800000000E+01 0.  1.
</event>
<event>
11    1  0.9238666E-009  0.2254240E+03  0.7561462E-02  0.1037872E+00
         22   -1    0    0    0    0  0.00000000000E+00  0.00000000000E+00  0.14094257148E+04  0.14094257148E+04  0.00000000000E+00 0.  1.
         22   -1    0    0    0    0 -0.00000000000E+00 -0.00000000000E+00 -0.25268825211E+04  0.25268825211E+04  0.00000000000E+00 0. -1.
        -24    2    1    2    0    0  0.95768371629E+02  0.15832960542E+03 -0.22680400241E+04  0.22773560600E+04  0.90029041101E+02 0.  0.
         25    2    1    2    0    0 -0.17761396039E+03 -0.15497215232E+03 -0.18071343652E+03  0.32228676489E+03  0.12509326826E+03 0.  0.
         24    2    1    2    0    0  0.81845588766E+02 -0.33574530974E+01  0.13312966543E+04  0.13366654109E+04  0.87256323396E+02 0.  0.
        -11    1    5    5    0    0  0.75325502790E+02  0.29192770713E+02  0.11047123416E+04  0.11076621809E+04  0.00000000000E+00 0.  1.
         12    1    5    5    0    0  0.65200859764E+01 -0.32550223811E+02  0.22658431270E+03  0.22900323000E+03  0.00000000000E+00 0. -1.
         13    1    3    3    0    0  0.10569580517E+03  0.97062638519E+02 -0.16297231323E+04  0.16360288038E+04  0.00000000000E+00 0. -1.
        -14    1    3    3    0    0 -0.99274335399E+01  0.61266966901E+02 -0.63831689184E+03  0.64132725623E+03  0.00000000000E+00 0.  1.
          5    1    4    4  501    0  0.85720954922E+01 -0.26825937243E+02  0.59892263683E+01  0.29093899061E+02  0.41800000000E+01 0.  1.
         -5    1    4    4    0  501 -0.18618605589E+03 -0.12814621508E+03 -0.18670266289E+03  0.29319286583E+03  0.41800000000E+01 0.  1.
</event>
<event>
11    1  0.9238666E-009  0.1386886E+03  0.7561462E-02  0.1109032E+00
         22   -1    0    0    0    0  0.00000000000E+00  0.00000000000E+00  0.93014455049E+02  0.93014455049E+02  0.00000000000E+00 0.  1.
         22   -1    0    0    0    0 -0.00000000000E+00 -0.00000000000E+00 -0.63832817984E+03  0.63832817984E+03  0.00000000000E+00 0.  1.
        -24    2    1    2    0    0  0.54959531463E+02 -0.91963102462E+01 -0.44628551741E+03  0.45705594506E+03  0.81389505730E+02 0.  0.
         25    2    1    2    0    0 -0.95610212943E+02  0.28413893034E+01 -0.95817703078E+02  0.18430332739E+03  0.12504918213E+03 0.  0.
         24    2    1    2    0    0  0.40650681480E+02  0.63549209428E+01 -0.32105043002E+01  0.89983362440E+02  0.79961461049E+02 0.  0.
        -13    1    5    5    0    0 -0.18338999926E+02 -0.10499296462E+02  0.15084552490E+02  0.25963394776E+02  0.00000000000E+00 0.  1.
         14    1    5    5    0    0  0.58989681406E+02  0.16854217404E+02 -0.18295056790E+02  0.64019967664E+02  0.00000000000E+00 0. -1.
         13    1    3    3    0    0  0.42590966848E+02  0.25090102532E+02 -0.13728743461E+03  0.14591553517E+03  0.00000000000E+00 0. -1.
        -14    1    3    3    0    0  0.12368564615E+02 -0.34286412778E+02 -0.30899808280E+03  0.31114040989E+03  0.00000000000E+00 0.  1.
          5    1    4    4  501    0 -0.30289193410E+02  0.40147666018E+02  0.12848029846E+02  0.52075086126E+02  0.41800000000E+01 0. -1.
         -5    1    4    4    0  501 -0.65321019533E+02 -0.37306276715E+02 -0.10866573292E+03  0.13222824126E+03  0.41800000000E+01 0. -1.
</event>
<event>
11    1  0.9238666E-009  0.1395839E+03  0.7561462E-02  0.1108024E+00
         22   -1    0    0    0    0  0.00000000000E+00  0.00000000000E+00  0.78372373123E+02  0.78372373123E+02  0.00000000000E+00 0.  1.
         22   -1    0    0    0    0 -0.00000000000E+00 -0.00000000000E+00 -0.59288558088E+03  0.59288558088E+03  0.00000000000E+00 0.  1.
        -24    2    1    2    0    0 -0.42124075231E+01  0.35952175295E+02 -0.36212982998E+03  0.37206037706E+03  0.77334385171E+02 0.  0.
         25    2    1    2    0    0  0.27067666893E+02 -0.84092986096E+02 -0.13471460370E+03  0.20396221256E+03  0.12509304857E+03 0.  0.
         24    2    1    2    0    0 -0.22855259370E+02  0.48140810801E+02 -0.17668774072E+02  0.95235364377E+02  0.76926513670E+02 0.  0.
        -13    1    5    5    0    0  0.27529062436E+02  0.23392541712E+02  0.81926004373E+00  0.36134906577E+02  0.00000000000E+00 0.  1.
         14    1    5    5    0    0 -0.50384321806E+02  0.24748269089E+02 -0.18488034116E+02  0.59100457800E+02  0.00000000000E+00 0. -1.
         11    1    3    3    0    0  0.49415889704E+01 -0.11134306923E+02 -0.77260223926E+01  0.14425100146E+02  0.00000000000E+00 0. -1.
        -12    1    3    3    0    0 -0.91539964934E+01  0.47086482218E+02 -0.35440380759E+03  0.35763527692E+03  0.00000000000E+00 0.  1.
          5    1    4    4  501    0 -0.41256214428E+02 -0.61124505778E+02 -0.37412737756E+02  0.82797740198E+02  0.41800000000E+01 0.  1.
         -5    1    4    4    0  501  0.68323881321E+02 -0.22968480318E+02 -0.97301865939E+02  0.12116447236E+03  0.41800000000E+01 0.  1.
</event>
<event>
11    1  0.9238666E-009  0.1484322E+03  0.7561462E-02  0.1098492E+00
         22   -1    0    0    0    0  0.00000000000E+00  0.00000000000E+00  0.82532074446E+03  0.82532074446E+03  0.00000000000E+00 0.  1.
         22   -1    0    0    0    0 -0.00000000000E+00 -0.00000000000E+00 -0.10612611203E+04  0.10612611203E+04  0.00000000000E+00 0. -1.
         24    2    1    2    0    0 -0.85542563357E+00 -0.12166051634E+02 -0.99753377142E+03  0.10008076886E+04  0.79960363883E+02 0.  0.
         25    2    1    2    0    0 -0.64713657982E+02 -0.34465158696E+02  0.33667930076E+02  0.14885272513E+03  0.12509156475E+03 0.  0.
        -24    2    1    2    0    0  0.65569083616E+02  0.46631210330E+02  0.72792546548E+03  0.73692145108E+03  0.81877758033E+02 0.  0.
        -11    1    3    3    0    0 -0.30329724138E+02  0.14756796120E+02 -0.25773323285E+03  0.25993090335E+03  0.00000000000E+00 0.  1.
         12    1    3    3    0    0  0.29474298504E+02 -0.26922847754E+02 -0.73980053856E+03  0.74087678521E+03  0.00000000000E+00 0. -1.
         13    1    5    5    0    0  0.19174728984E+02 -0.23732745406E+02  0.19206969875E+03  0.19447797463E+03  0.00000000000E+00 0. -1.
        -14    1    5    5    0    0  0.46394354631E+02  0.70363955736E+02  0.53585576673E+03  0.54244347645E+03  0.00000000000E+00 0.  1.
          5    1    4    4  501    0  0.13155590596E+02 -0.36711951934E+02  0.55391046345E+02  0.67871035014E+02  0.41800000000E+01 0. -1.
         -5    1    4    4    0  501 -0.77869248579E+02  0.22467932374E+01 -0.21723116269E+02  0.80981690119E+02  0.41800000000E+01 0. -1.
</event>
<event>
11    1  0.9238666E-009  0.1941561E+03  0.7561462E-02  0.1058735E+00
         22   -1    0    0    0    0  0.00000000000E+00  0.00000000000E+00  0.55478963597E+02  0.55478963597E+02  0.00000000000E+00 0.  1.
         22   -1    0    0    0    0 -0.00000000000E+00 -0.00000000000E+00 -0.38087171728E+04  0.38087171728E+04  0.00000000000E+00 0. -1.
        -24    2    1    2    0    0  0.97744713029E+02  0.10982219521E+03 -0.33528972966E+04  0.33571325911E+04  0.82486416764E+02 0.  0.
         25    2    1    2    0    0 -0.11428593424E+03 -0.12327611900E+03 -0.36053301476E+03  0.41700115046E+03  0.12509048114E+03 0.  0.
         24    2    1    2    0    0  0.16541221213E+02  0.13453923783E+02 -0.39807897864E+02  0.90062394894E+02  0.77922693597E+02 0.  0.
        -13    1    5    5    0    0  0.80093180299E+01 -0.14478216890E+02  0.18517761598E+02  0.24832950575E+02  0.00000000000E+00 0.  1.
         14    1    5    5    0    0  0.85319031834E+01  0.27932140673E+02 -0.58325659462E+02  0.65229444320E+02  0.00000000000E+00 0. -1.
         13    1    3    3    0    0  0.64234695291E+02  0.11733210590E+03 -0.27639282534E+04  0.27671632241E+04  0.00000000000E+00 0. -1.
        -14    1    3    3    0    0  0.33510017737E+02 -0.75099106862E+01 -0.58896904324E+03  0.58996936695E+03  0.00000000000E+00 0.  1.
          5    1    4    4  501    0 -0.55135188655E+02 -0.11274912975E+02 -0.22280080243E+03  0.22983620831E+03  0.41800000000E+01 0.  1.
         -5    1    4    4    0  501 -0.59150745587E+02 -0.11200120602E+03 -0.13773221234E+03  0.18716494215E+03  0.41800000000E+01 0.  1.
</event>
<event>
11    1  0.9238666E-009  0.1531067E+03  0.7561462E-02  0.1093746E+00
         22   -1    0    0    0    0  0.00000000000E+00  0.00000000000E+00  0.31405136278E+03  0.31405136278E+03  0.00000000000E+00 0.  1.
         22   -1    0    0    0    0 -0.00000000000E+00 -0.00000000000E+00 -0.50352494775E+03  0.50352494775E+03  0.00000000000E+00 0.  1.
         24    2    1    2    0    0  0.85905654593E+02  0.10571654897E+02 -0.42843510755E+03  0.44432120304E+03  0.79832003074E+02 0.  0.
         25    2    1    2    0    0 -0.11406978212E+03 -0.36625430746E+02  0.80824880257E+02  0.19113915517E+03  0.12509267765E+03 0.  0.
        -24    2    1    2    0    0  0.28164127530E+02  0.26053775849E+02  0.15813664232E+03  0.18211595231E+03  0.81774110368E+02 0.  0.
        -11    1    3    3    0    0  0.81532750689E+02  0.13145942040E+02 -0.43085555830E+03  0.43869911938E+03  0.00000000000E+00 0.  1.
         12    1    3    3    0    0  0.43729039036E+01 -0.25742871435E+01  0.24204507526E+01  0.56220836611E+01  0.00000000000E+00 0. -1.
         11    1    5    5    0    0 -0.17218372267E+02  0.39378525015E+02  0.72241228219E+02  0.84059119853E+02  0.00000000000E+00 0. -1.
        -12    1    5    5    0    0  0.45382499797E+02 -0.13324749165E+02  0.85895414104E+02  0.98056832461E+02  0.00000000000E+00 0.  1.
          5    1    4    4  501    0 -0.11267914536E+03  0.11366979990E+02  0.86561290408E+02  0.14260479456E+03  0.41800000000E+01 0.  1.
         -5    1    4    4    0  501 -0.13906367582E+01 -0.47992410736E+02 -0.57364101511E+01  0.48534360614E+02  0.41800000000E+01 0.  1.
</event>
<event>
11    1  0.9238666E-009  0.1318072E+03  0.7561462E-02  0.1117068E+00
         22   -1    0    0    0    0  0.00000000000E+00  0.00000000000E+00  0.10015332125E+04  0.10015332125E+04  0.00000000000E+00 0. -1.
         22   -1    0    0    0    0 -0.00000000000E+00 -0.00000000000E+00 -0.20480116689E+03  0.20480116689E+03  0.00000000000E+00 0. -1.
        -24    2    1    2    0    0 -0.43397310831E+01 -0.42093226604E+02 -0.17884949144E+03  0.20066971212E+03  0.80563762202E+02 0.  0.
         25    2    1    2    0    0  0.10593378260E+02  0.16921482125E+02  0.31869632157E+03  0.34294838206E+03  0.12509073169E+03 0.  0.
         24    2    1    2    0    0 -0.62536471767E+01  0.25171744479E+02  0.65688521548E+03  0.66271628521E+03  0.83797157121E+02 0.  0.
        -11    1    5    5    0    0  0.31174340136E+01  0.52730177679E+02  0.29740181956E+03  0.30205633963E+03  0.00000000000E+00 0.  1.
         12    1    5    5    0    0 -0.93710811903E+01 -0.27558433199E+02  0.35948339592E+03  0.36065994558E+03  0.00000000000E+00 0. -1.
         11    1    3    3    0    0 -0.27842511869E+01  0.14058802693E+02 -0.11390052506E+03  0.11479865677E+03  0.00000000000E+00 0. -1.
        -12    1    3    3    0    0 -0.15554798962E+01 -0.56152029297E+02 -0.64948966384E+02  0.85871055346E+02  0.00000000000E+00 0.  1.
          5    1    4    4  501    0 -0.50703859138E+02 -0.17554570135E+02  0.17177567082E+03  0.18000943795E+03  0.41800000000E+01 0.  1.
         -5    1    4    4    0  501  0.61297237398E+02  0.34476052260E+02  0.14692065074E+03  0.16293894411E+03  0.41800000000E+01 0.  1.
</event>
<event>
11    1  0.9238666E-009  0.1859522E+03  0.7561462E-02  0.1064927E+00
         22   -1    0    0    0    0  0.00000000000E+00  0.00000000000E+00  0.21747204652E+03  0.21747204652E+03  0.00000000000E+00 0. -1.
         22   -1    0    0    0    0 -0.00000000000E+00 -0.00000000000E+00 -0.98803770819E+03  0.98803770819E+03  0.00000000000E+00 0.  1.
         24    2    1    2    0    0 -0.14326132091E+02  0.77751178541E+02 -0.47224836600E+03  0.48506343197E+03  0.77572740189E+02 0.  0.
         25    2    1    2    0    0 -0.12419558658E+03 -0.70725410594E+02 -0.45685793020E+03  0.49476540537E+03  0.12508801115E+03 0.  0.
        -24    2    1    2    0    0  0.13852171867E+03 -0.70257679474E+01  0.15854063453E+03  0.22568091737E+03  0.80988367754E+02 0.  0.
        -13    1    3    3    0    0 -0.39799974949E+01  0.87261941531E+01 -0.28609263376E+03  0.28625335271E+03  0.00000000000E+00 0.  1.
         14    1    3    3    0    0 -0.10346134596E+02  0.69024984388E+02 -0.18615573223E+03  0.19881007926E+03  0.00000000000E+00 0. -1.
         11    1    5    5    0    0  0.43864614855E+01 -0.45724035292E+01  0.57198765008E+02  0.57548645830E+02  0.00000000000E+00 0. -1.
        -12    1    5    5    0    0  0.13413525718E+03 -0.24533644182E+01  0.10134186952E+03  0.16813227154E+03  0.00000000000E+00 0.  1.
          5    1    4    4  501    0 -0.66019334314E+02 -0.88653023717E+02 -0.18006393085E+03  0.21132534801E+03  0.41800000000E+01 0.  1.
         -5    1    4    4    0  501 -0.58176252263E+02  0.17927613123E+02 -0.27679399935E+03  0.28344005736E+03  0.41800000000E+01 0.  1.
</event>
<event>
11    1  0.9238666E-009  0.1522604E+03  0.7561462E-02  0.1094591E+00
         22   -1    0    0    0    0  0.00000000000E+00  0.00000000000E+00  0.10279681531E+04  0.10279681531E+04  0.00000000000E+00 0.  1.
         22   -1    0    0    0    0 -0.00000000000E+00 -0.00000000000E+00 -0.17790848205E+03  0.17790848205E+03  0.00000000000E+00 0.  1.
        -24    2    1    2    0    0  0.32237501164E+02 -0.87320266668E+02 -0.10147061549E+03  0.16045847575E+03  0.82380526699E+02 0.  0.
         25    2    1    2    0    0 -0.99496455538E+01  0.63613634451E+02  0.65589845304E+02  0.15522743098E+03  0.12509131699E+03 0.  0.
         24    2    1    2    0    0 -0.22287855610E+02  0.23706632217E+02  0.88594044123E+03  0.89019072841E+03  0.80562488999E+02 0.  0.
        -13    1    5    5    0    0 -0.47028919421E+02 -0.42446323324E+01  0.39017252714E+03  0.39301951237E+03  0.00000000000E+00 0.  1.
         14    1    5    5    0    0  0.24741063811E+02  0.27951264549E+02  0.49576791409E+03  0.49717121605E+03  0.00000000000E+00 0. -1.
         11    1    3    3    0    0  0.31550926671E+02 -0.18000685499E+01 -0.57921537054E+01  0.32128651779E+02  0.00000000000E+00 0. -1.
        -12    1    3    3    0    0  0.68657449331E+00 -0.85520198118E+02 -0.95678461781E+02  0.12832982397E+03  0.00000000000E+00 0.  1.
          5    1    4    4  501    0  0.13438719294E+02 -0.35796501680E+02  0.16900012361E+02  0.42012754332E+02  0.41800000000E+01 0.  1.
         -5    1    4    4    0  501 -0.23388364847E+02  0.99410136131E+02  0.48689832943E+02  0.11321467665E+03  0.41800000000E+01 0.  1.
</event>
<event>
11    1  0.9238666E-009  0.1513511E+03  0.7561462E-02  0.1095506E+00
         22   -1    0    0    0    0  0.00000000000E+00  0.00000000000E+00  0.24191727063E+03  0.24191727063E+03  0.00000000000E+00 0. -1.
         22   -1    0    0    0    0 -0.00000000000E+00 -0.00000000000E+00 -0.76046665279E+03  0.76046665279E+03  0.00000000000E+00 0. -1.
         24    2    1    2    0    0  0.10517971451E+02  0.85935931417E+02 -0.63318128253E+03  0.64417872027E+03  0.80944889073E+02 0.  0.
         25    2    1    2    0    0 -0.14895613839E+02 -0.72188778406E+02 -0.66650665351E+02  0.15976387428E+03  0.12509630407E+03 0.  0.
        -24    2    1    2    0    0  0.43776423879E+01 -0.13747153011E+02  0.18128256572E+03  0.19844132887E+03  0.79419420821E+02 0.  0.
        -11    1    3    3    0    0 -0.11046869140E+02 -0.12855697134E+02 -0.72777650341E+02  0.74725421750E+02  0.00000000000E+00 0.  1.
         12    1    3    3    0    0  0.21564840591E+02  0.98791628551E+02 -0.56040363219E+03  0.56945329852E+03  0.00000000000E+00 0. -1.
         11    1    5    5    0    0 -0.20388821311E+01  0.32886403360E+02  0.62110913346E+02  0.70309587703E+02  0.00000000000E+00 0. -1.
        -12    1    5    5    0    0  0.64165245190E+01 -0.46633556371E+02  0.11917165237E+03  0.12813174117E+03  0.00000000000E+00 0.  1.
          5    1    4    4  501    0  0.34538301546E+02 -0.74013251621E+02 -0.68882211359E+01  0.82071771515E+02  0.41800000000E+01 0. -1.
         -5    1    4    4    0  501 -0.49433915386E+02  0.18244732150E+01 -0.59762444216E+02  0.77692102761E+02  0.41800000000E+01 0. -1.
</event>
<event>
11    1  0.9238666E-009  0.2769304E+03  0.7561462E-02  0.1010457E+00
         22   -1    0    0    0    0  0.00000000000E+00  0.00000000000E+00  0.11376770204E+04  0.11376770204E+04  0.00000000000E+00 0.  1.
         22   -1    0    0    0    0 -0.00000000000E+00 -0.00000000000E+00 -0.37688427050E+03  0.37688427050E+03  0.00000000000E+00 0. -1.
         24    2    1    2    0    0 -0.74378659515E+02 -0.67160319185E+02 -0.29181509785E+03  0.31907412005E+03  0.81299134614E+02 0.  0.
         25    2    1    2    0    0  0.26763170031E+02  0.27414275780E+03  0.76493887456E+03  0.82258782653E+03  0.12509489045E+03 0.  0.
        -24    2    1    2    0    0  0.47615489484E+02 -0.20698243861E+03  0.28766897323E+03  0.37289934435E+03  0.10578997178E+03 0.  0.
        -11    1    3    3    0    0  0.27812878653E+01 -0.46189447154E+02 -0.14062160859E+03  0.14803931029E+03  0.00000000000E+00 0.  1.
         12    1    3    3    0    0 -0.77159947380E+02 -0.20970872031E+02 -0.15119348927E+03  0.17103480976E+03  0.00000000000E+00 0. -1.
         11    1    5    5    0    0 -0.25793141940E+02 -0.15858498490E+02  0.21679804205E+02  0.37239657032E+02  0.00000000000E+00 0. -1.
        -12    1    5    5    0    0  0.73408631424E+02 -0.19112394012E+03  0.26598916902E+03  0.33565968732E+03  0.00000000000E+00 0.  1.
          5    1    4    4  501    0  0.11961852524E+01  0.24164130471E+03  0.72769738276E+03  0.76678087109E+03  0.41800000000E+01 0.  1.
         -5    1    4    4    0  501  0.25566984779E+02  0.32501453083E+02  0.37241491802E+02  0.55806955434E+02  0.41800000000E+01 0.  1.
</event>
<event>
11    1  0.9238666E-009  0.1641547E+03  0.7561462E-02  0.1083233E+00
         22   -1    0    0    0    0  0.00000000000E+00  0.00000000000E+00  0.38649690899E+03  0.38649690899E+03  0.00000000000E+00 0. -1.
         22   -1    0    0    0    0 -0.00000000000E+00 -0.00000000000E+00 -0.18877883045E+03  0.18877883045E+03  0.00000000000E+00 0.  1.
         24    2    1    2    0    0  0.68043790171E+02  0.11027503882E+03 -0.17974791811E+02  0.15915044919E+03  0.90637910219E+02 0.  0.
         25    2    1    2    0    0 -0.56039847799E+02  0.64107881081E+02  0.13751528650E+03  0.20447000328E+03  0.12508894141E+03 0.  0.
        -24    2    1    2    0    0 -0.12003942373E+02 -0.17438291990E+03  0.78177583850E+02  0.21165528697E+03  0.90181641688E+02 0.  0.
        -11    1    3    3    0    0  0.84121232619E+02  0.87739523446E+02  0.71570647860E+01  0.12176136221E+03  0.00000000000E+00 0.  1.
         12    1    3    3    0    0 -0.16077442448E+02  0.22535515376E+02 -0.25131856597E+02  0.37389086977E+02  0.00000000000E+00 0. -1.
         11    1    5    5    0    0 -0.25897677492E+02 -0.66756791013E+02  0.74123419034E+02  0.10306037112E+03  0.00000000000E+00 0. -1.
        -12    1    5    5    0    0  0.13893735119E+02 -0.10762612889E+03  0.40541648160E+01  0.10859491585E+03  0.00000000000E+00 0.  1.
          5    1    4    4  501    0  0.35565078527E+02  0.30970267905E+02  0.74844964325E+02  0.88562257139E+02  0.41800000000E+01 0.  1.
         -5    1    4    4    0  501 -0.91604926326E+02  0.33137613177E+02  0.62670322173E+02  0.11590774614E+03  0.41800000000E+01 0.  1.
</event>
<event>
11    1  0.9238666E-009  0.1776668E+03  0.7561462E-02  0.1071546E+00
         22   -1    0    0    0    0  0.00000000000E+00  0.00000000000E+00  0.21224445573E+04  0.21224445573E+04  0.00000000000E+00 0.  1.
         22   -1    0    0    0    0 -0.00000000000E+00 -0.00000000000E+00 -0.45333652232E+03  0.45333652232E+03  0.00000000000E+00 0. -1.
        -24    2    1    2    0    0 -0.10708094562E+03 -0.69613988629E+02 -0.42197009171E+03  0.44762564683E+03  0.77443689723E+02 0.  0.
         25    2    1    2    0    0  0.15519948672E+02  0.10903860828E+03  0.41679821791E+03  0.44889005693E+03  0.12510492338E+03 0.  0.
         24    2    1    2    0    0  0.91560996950E+02 -0.39424619654E+02  0.16742799088E+04  0.16792653759E+04  0.82348484018E+02 0.  0.
        -13    1    5    5    0    0  0.73729620182E+02 -0.55315408509E+02  0.15483079005E+04  0.15510490663E+04  0.00000000000E+00 0.  1.
         14    1    5    5    0    0  0.17831376768E+02  0.15890788855E+02  0.12597200830E+03  0.12821630959E+03  0.00000000000E+00 0. -1.
         13    1    3    3    0    0 -0.77530131661E+02 -0.43479844186E+02 -0.16294579759E+03  0.18561452292E+03  0.00000000000E+00 0. -1.
        -14    1    3    3    0    0 -0.29550813961E+02 -0.26134144443E+02 -0.25902429412E+03  0.26201112392E+03  0.00000000000E+00 0.  1.
          5    1    4    4  501    0  0.66004117400E+02  0.74567150707E+02  0.31155040128E+03  0.32710537815E+03  0.41800000000E+01 0.  1.
         -5    1    4    4    0  501 -0.50484168728E+02  0.34471457577E+02  0.10524781663E+03  0.12178467877E+03  0.41800000000E+01 0.  1.
</event>
<event>
11    1  0.9238666E-009  0.1331081E+03  0.7561462E-02  0.1115508E+00
         22   -1    0    0    0    0  0.00000000000E+00  0.00000000000E+00  0.15667971793E+04  0.15667971793E+04  0.00000000000E+00 0.  1.
         22   -1    0    0    0    0 -0.00000000000E+00 -0.00000000000E+00 -0.39101371088E+03  0.39101371088E+03  0.00000000000E+00 0. -1.
        -24    2    1    2    0    0  0.48772917996E+02  0.75548029929E+01 -0.29435752229E+03  0.30874462492E+03  0.79000126018E+02 0.  0.
         25    2    1    2    0    0 -0.22822462368E+02  0.15293123835E+02 -0.41659014327E+02  0.13466996044E+03  0.12508309376E+03 0.  0.
         24    2    1    2    0    0 -0.25950455628E+02 -0.22847926828E+02  0.15118000050E+04  0.15143963048E+04  0.81617760774E+02 0.  0.
        -11    1    5    5    0    0 -0.43577893262E+02 -0.15144997750E+01  0.42235963526E+03  0.42460450774E+03  0.00000000000E+00 0.  1.
         12    1    5    5    0    0  0.17627437634E+02 -0.21333427053E+02  0.10894403698E+04  0.10897917971E+04  0.00000000000E+00 0. -1.
         11    1    3    3    0    0  0.19184448542E+02  0.29059471986E+02 -0.24417971947E+03  0.24665001800E+03  0.00000000000E+00 0. -1.
        -12    1    3    3    0    0  0.29588469454E+02 -0.21504668993E+02 -0.50177802822E+02  0.62094606925E+02  0.00000000000E+00 0.  1.
          5    1    4    4  501    0 -0.45928501619E+01 -0.16849476705E+02  0.40600779387E+02  0.44394761230E+02  0.41800000000E+01 0. -1.
         -5    1    4    4    0  501 -0.18229612206E+02  0.32142600540E+02 -0.82259793714E+02  0.90275199211E+02  0.41800000000E+01 0. -1.
</event>
<event>
11    1  0.9238666E-009  0.1895369E+03  0.7561462E-02  0.1062179E+00
         22   -1    0    0    0    0  0.00000000000E+00  0.00000000000E+00  0.12569793024E+04  0.12569793024E+04  0.00000000000E+00 0. -1.
         22   -1    0    0    0    0 -0.00000000000E+00 -0.00000000000E+00 -0.92697202171E+03  0.92697202171E+03  0.00000000000E+00 0. -1.
         24    2    1    2    0    0  0.31253129536E+02  0.13905582950E+03 -0.79299482671E+03  0.80974745519E+03  0.80850876119E+02 0.  0.
         25    2    1    2    0    0 -0.78901753207E+02 -0.12611588105E+03 -0.47353368407E+02  0.20005380113E+03  0.12509388367E+03 0.  0.
        -24    2    1    2    0    0  0.47648623671E+02 -0.12939948449E+02  0.11703554758E+04  0.11741500678E+04  0.80365467514E+02 0.  0.
        -11    1    3    3    0    0  0.15643210797E+02  0.35988460732E+02 -0.79280194297E+02  0.88460321940E+02  0.00000000000E+00 0.  1.
         12    1    3    3    0    0  0.15609918739E+02  0.10306736877E+03 -0.71371463241E+03  0.72128713325E+03  0.00000000000E+00 0. -1.
         13    1    5    5    0    0  0.39231424798E+02 -0.34768990056E+02  0.10622166735E+04  0.10635094023E+04  0.00000000000E+00 0. -1.
        -14    1    5    5    0    0  0.84171988725E+01  0.21829041608E+02  0.10813880231E+03  0.11064066549E+03  0.00000000000E+00 0.  1.
          5    1    4    4  501    0 -0.10093633385E+02 -0.43608087868E+01  0.35533418178E+02  0.37429858343E+02  0.41800000000E+01 0.  1.
         -5    1    4    4    0  501 -0.68808119822E+02 -0.12175507226E+03 -0.82886786585E+02  0.16262394278E+03  0.41800000000E+01 0.  1.
</event>
<event>
11    1  0.9238666E-009  0.1703402E+03  0.7561462E-02  0.1077736E+00
         22   -1    0    0    0    0  0.00000000000E+00  0.00000000000E+00  0.69793821783E+03  0.69793821783E+03  0.00000000000E+00 0.  1.
         22   -1    0    0    0    0 -0.00000000000E+00 -0.00000000000E+00 -0.14248609770E+03  0.14248609770E+03  0.00000000000E+00 0.  1.
        -24    2    1    2    0    0  0.44569061503E+02  0.73732503720E+02 -0.30005135537E+02  0.12150602723E+03  0.80252870027E+02 0.  0.
         25    2    1    2    0    0 -0.14922622974E+03 -0.32502246010E+02  0.11796503426E+03  0.22997707979E+03  0.12509534077E+03 0.  0.
         24    2    1    2    0    0  0.10465716823E+03 -0.41230257710E+02  0.46749222141E+03  0.48894120852E+03  0.88664938377E+02 0.  0.
        -11    1    5    5    0    0  0.94799866277E+02  0.47695813816E+01  0.28063262637E+03  0.29625062791E+03  0.00000000000E+00 0.  1.
         12    1    5    5    0    0  0.98573019565E+01 -0.45999839091E+02  0.18685959503E+03  0.19269058061E+03  0.00000000000E+00 0. -1.
         13    1    3    3    0    0  0.74065614843E+01  0.12202173620E+02 -0.45745481981E+02  0.47920760801E+02  0.00000000000E+00 0. -1.
        -14    1    3    3    0    0  0.37162500019E+02  0.61530330100E+02  0.15740346444E+02  0.73585266433E+02  0.00000000000E+00 0.  1.
          5    1    4    4  501    0 -0.43969239702E+02  0.43235724998E+02  0.13157958044E+02  0.63191979048E+02  0.41800000000E+01 0.  1.
         -5    1    4    4    0  501 -0.10525699003E+03 -0.75737971008E+02  0.10480707622E+03  0.16678510074E+03  0.41800000000E+01 0.  1.
</event>
<event>
11    1  0.1102944E-008  0.1795930E+03  0.7561462E-02  0.1069973E+00
         22   -1    0    0    0    0  0.00000000000E+00  0.00000000000E+00  0.10839277444E+04  0.10839277444E+04  0.00000000000E+00 0.  1.
         22   -1    0    0    0    0 -0.00000000000E+00 -0.00000000000E+00 -0.57156303653E+03  0.57156303653E+03  0.00000000000E+00 0.  1.
        -24    2    1    2    0    0  0.13117767810E+02 -0.56214243775E+01 -0.47036920948E+03  0.47694519250E+03  0.77626330410E+02 0.  0.
         25    2    1    2    0    0 -0.10936884157E+03  0.90098612309E+02  0.49127655235E+01  0.18907392085E+03  0.12508200843E+03 0.  0.
         24    2    1    2    0    0  0.96251073763E+02 -0.84477187932E+02  0.97782115179E+03  0.98947166753E+03  0.80742253384E+02 0.  0.
        -11    1    5    5    0    0  0.93481157499E+02 -0.84648580368E+02  0.97851730418E+03  0.98661047204E+03  0.00000000000E+00 0.  1.
         12    1    5    5    0    0  0.27699162642E+01  0.17139243615E+00 -0.69615239049E+00  0.28611954894E+01  0.00000000000E+00 0. -1.
         11    1    3    3    0    0  0.10784738030E+02 -0.33031723249E+02 -0.10623533583E+03  0.11177366368E+03  0.00000000000E+00 0. -1.
        -12    1    3    3    0    0  0.23330297798E+01  0.27410298872E+02 -0.36413387366E+03  0.36517152881E+03  0.00000000000E+00 0.  1.
          5    1    4    4  501    0 -0.24531776401E+02  0.91003122680E+02  0.32462839482E+02  0.99773166424E+02  0.41800000000E+01 0.  1.
         -5    1    4    4    0  501 -0.84837065172E+02 -0.90451037100E+00 -0.27550073958E+02  0.89300754426E+02  0.41800000000E+01 0.  1.
</event>
<event>
11    1  0.9238666E-009  0.1388442E+03  0.7561462E-02  0.1108856E+00
         22   -1    0    0    0    0  0.00000000000E+00  0.00000000000E+00  0.18834332477E+03  0.18834332477E+03  0.00000000000E+00 0. -1.
         22   -1    0    0    0    0 -0.00000000000E+00 -0.00000000000E+00 -0.60476413968E+03  0.60476413968E+03  0.00000000000E+00 0.  1.
         24    2    1    2    0    0  0.39918271515E+02  0.41652226751E+02 -0.39490052979E+03  0.40955661125E+03  0.91988113349E+02 0.  0.
         25    2    1    2    0    0 -0.58380906335E+01 -0.86026299034E+02 -0.15534951628E+03  0.21729270648E+03  0.12509212866E+03 0.  0.
        -24    2    1    2    0    0 -0.34080180882E+02  0.44374072283E+02  0.13382923115E+03  0.16625814672E+03  0.81246484345E+02 0.  0.
        -13    1    3    3    0    0  0.21574939671E+01  0.64431426412E+02 -0.23788939866E+03  0.24646993627E+03  0.00000000000E+00 0.  1.
         14    1    3    3    0    0  0.37760777548E+02 -0.22779199661E+02 -0.15701113113E+03  0.16308667499E+03  0.00000000000E+00 0. -1.
         11    1    5    5    0    0 -0.39760726853E+02  0.55475854168E+02  0.13728667427E+03  0.15331704644E+03  0.00000000000E+00 0. -1.
        -12    1    5    5    0    0  0.56805459708E+01 -0.11101781885E+02 -0.34574431173E+01  0.12941100280E+02  0.00000000000E+00 0.  1.
          5    1    4    4  501    0  0.51518940920E+02 -0.70543080638E+02 -0.64516218949E+02  0.10867539927E+03  0.41800000000E+01 0.  1.
         -5    1    4    4    0  501 -0.57357031554E+02 -0.15483218395E+02 -0.90833297333E+02  0.10861730721E+03  0.41800000000E+01 0.  1.
</event>
<event>
11    1  0.9238666E-009  0.1589246E+03  0.7561462E-02  0.1088093E+00
         22   -1    0    0    0    0  0.00000000000E+00  0.00000000000E+00  0.52256890270E+03  0.52256890270E+03  0.00000000000E+00 0. -1.
         22   -1    0    0    0    0 -0.00000000000E+00 -0.00000000000E+00 -0.36830033159E+03  0.36830033159E+03  0.00000000000E+00 0. -1.
         24    2    1    2    0    0 -0.17888958289E+02 -0.16632554548E+02 -0.30529546124E+03  0.31661085809E+03  0.80252477257E+02 0.  0.
         25    2    1    2    0    0 -0.68242107539E+02 -0.38911464396E+02  0.70098796531E+02  0.16350152340E+03  0.12509124500E+03 0.  0.
        -24    2    1    2    0    0  0.86131065828E+02  0.55544018944E+02  0.38946523582E+03  0.41075685280E+03  0.80835163544E+02 0.  0.
        -13    1    3    3    0    0 -0.29928236609E+02  0.24610394249E+02 -0.18094913593E+03  0.18505123789E+03  0.00000000000E+00 0.  1.
         14    1    3    3    0    0  0.12039278320E+02 -0.41242948797E+02 -0.12434632532E+03  0.13155962020E+03  0.00000000000E+00 0. -1.
         13    1    5    5    0    0  0.81993897361E+02  0.25715653260E+02  0.35376369342E+03  0.36405088217E+03  0.00000000000E+00 0. -1.
        -14    1    5    5    0    0  0.41371684674E+01  0.29828365685E+02  0.35701542402E+02  0.46705970627E+02  0.00000000000E+00 0.  1.
          5    1    4    4  501    0 -0.17455158926E+02 -0.65798753353E+02  0.79906700343E+02  0.10505575508E+03  0.41800000000E+01 0.  1.
         -5    1    4    4    0  501 -0.50786948614E+02  0.26887288957E+02 -0.98079038116E+01  0.58445768317E+02  0.41800000000E+01 0.  1.
</event>
<event>
11    1  0.9238666E-009  0.1420056E+03  0.7561462E-02  0.1105339E+00
         22   -1    0    0    0    0  0.00000000000E+00  0.00000000000E+00  0.35789302391E+03  0.35789302391E+03  0.00000000000E+00 0. -1.
         22   -1    0    0    0    0 -0.00000000000E+00 -0.00000000000E+00 -0.45816447171E+03  0.45816447171E+03  0.00000000000E+00 0.  1.
         24    2    1    2    0    0 -0.10892310148E+02  0.39042263244E+02 -0.36899435099E+03  0.37964617933E+03  0.79570407038E+02 0.  0.
         25    2    1    2    0    0 -0.52489062910E+02 -0.60274503899E+02 -0.94334539602E+00  0.14844789711E+03  0.12509104968E+03 0.  0.
        -24    2    1    2    0    0  0.63381373058E+02  0.21232240655E+02  0.26966624859E+03  0.28796341919E+03  0.75730038100E+02 0.  0.
        -11    1    3    3    0    0 -0.32296231069E+02 -0.50215324506E+01 -0.22916697058E+03  0.23148598821E+03  0.00000000000E+00 0.  1.
         12    1    3    3    0    0  0.21403920921E+02  0.44063795695E+02 -0.13982738040E+03  0.14816019112E+03  0.00000000000E+00 0. -1.
         11    1    5    5    0    0  0.42355359194E+02  0.44471986349E+02  0.22612295146E+03  0.23431458170E+03  0.00000000000E+00 0. -1.
        -12    1    5    5    0    0  0.21026013863E+02 -0.23239745694E+02  0.43543297128E+02  0.53648837487E+02  0.00000000000E+00 0.  1.
          5    1    4    4  501    0 -0.23019372140E+02  0.38410840451E+02  0.46823583469E+01  0.45218149427E+02  0.41800000000E+01 0. -1.
         -5    1    4    4    0  501 -0.29469690770E+02 -0.98685344351E+02 -0.56257037429E+01  0.10322974768E+03  0.41800000000E+01 0. -1.
</event>
<event>
11    1  0.9238666E-009  0.1448583E+03  0.7561462E-02  0.1102251E+00
         22   -1    0    0    0    0  0.00000000000E+00  0.00000000000E+00  0.13588449939E+03  0.13588449939E+03  0.00000000000E+00 0. -1.
         22   -1    0    0    0    0 -0.00000000000E+00 -0.00000000000E+00 -0.18306191948E+04  0.18306191948E+04  0.00000000000E+00 0. -1.
        -24    2    1    2    0    0  0.36401024681E+02  0.56302559666E+02 -0.16541127953E+04  0.16575769405E+04  0.83529404598E+02 0.  0.
         25    2    1    2    0    0  0.33737201498E+02 -0.87105883293E+01 -0.11120419896E+03  0.17096846891E+03  0.12509904230E+03 0.  0.
         24    2    1    2    0    0 -0.70138226179E+02 -0.47591971337E+02  0.70582298821E+02  0.13795828476E+03  0.82862904358E+02 0.  0.
        -11    1    5    5    0    0 -0.30848055095E+02  0.74344608415E+01 -0.95257096332E+01  0.33130240795E+02  0.00000000000E+00 0.  1.
         12    1    5    5    0    0 -0.39290171084E+02 -0.55026432178E+02  0.80108008454E+02  0.10482804396E+03  0.00000000000E+00 0. -1.
         11    1    3    3    0    0  0.52175616657E+02  0.69063867160E+02 -0.12920616750E+04  0.12949577154E+04  0.00000000000E+00 0. -1.
        -12    1    3    3    0    0 -0.15774591976E+02 -0.12761307494E+02 -0.36205112031E+03  0.36261922514E+03  0.00000000000E+00 0.  1.
          5    1    4    4  501    0  0.70502593448E+02 -0.15763129948E+02 -0.24439290246E+02  0.76379599739E+02  0.41800000000E+01 0.  1.
         -5    1    4    4    0  501 -0.36765391949E+02  0.70525416187E+01 -0.86764908709E+02  0.94588869175E+02  0.41800000000E+01 0.  1.
</event>
<event>
11    1  0.9238666E-009  0.1394031E+03  0.7561462E-02  0.1108227E+00
         22   -1    0    0    0    0  0.00000000000E+00  0.00000000000E+00  0.17530882952E+03  0.17530882952E+03  0.00000000000E+00 0. -1.
         22   -1    0    0    0    0 -0.00000000000E+00 -0.00000000000E+00 -0.43089859760E+03  0.43089859760E+03  0.00000000000E+00 0. -1.
        -24    2    1    2    0    0  0.14490247462E+02  0.14142935343E+02 -0.29800677018E+03  0.30957395311E+03  0.81351136939E+02 0.  0.
         25    2    1    2    0    0  0.31929323016E+02  0.31166742019E+02 -0.64634496852E+02  0.14770104592E+03  0.12508850190E+03 0.  0.
         24    2    1    2    0    0 -0.46419570479E+02 -0.45309677362E+02  0.10705149895E+03  0.14893242807E+03  0.80703787511E+02 0.  0.
        -13    1    5    5    0    0 -0.33999358257E+02  0.13909483841E+02  0.17089904536E+02  0.40515366710E+02  0.00000000000E+00 0.  1.
         14    1    5    5    0    0 -0.12420212222E+02 -0.59219161203E+02  0.89961594415E+02  0.10841706136E+03  0.00000000000E+00 0. -1.
         13    1    3    3    0    0  0.23694496818E+02 -0.13581652825E+02 -0.26100758512E+03  0.26243256270E+03  0.00000000000E+00 0. -1.
        -14    1    3    3    0    0 -0.92042493559E+01  0.27724588168E+02 -0.36999185057E+02  0.47141390414E+02  0.00000000000E+00 0.  1.
          5    1    4    4  501    0 -0.20244176476E+02 -0.39659654285E+02 -0.22884153538E+02  0.50238150269E+02  0.41800000000E+01 0.  1.
         -5    1    4    4    0  501  0.52173499493E+02  0.70826396305E+02 -0.41750343313E+02  0.97462895656E+02  0.41800000000E+01 0.  1.
</event>
<event>
11    1  0.9238666E-009  0.1373115E+03  0.7561462E-02  0.1110598E+00
         22   -1    0    0    0    0  0.00000000000E+00  0.00000000000E+00  0.38410425958E+03  0.38410425958E+03  0.00000000000E+00 0.  1.
         22   -1    0    0    0    0 -0.00000000000E+00 -0.00000000000E+00 -0.98816505587E+03  0.98816505587E+03  0.00000000000E+00 0.  1.
         24    2    1    2    0    0 -0.24663651868E+02  0.73799112756E+01 -0.47839800318E+03  0.48519332395E+03  0.76714753120E+02 0.  0.
         25    2    1    2    0    0 -0.14961191489E+02  0.33575035416E+02 -0.49147475521E+03  0.50846611785E+03  0.12505693799E+03 0.  0.
        -24    2    1    2    0    0  0.39624843357E+02 -0.40954946692E+02  0.36581196209E+03  0.37860987366E+03  0.79243983685E+02 0.  0.
        -13    1    3    3    0    0  0.10635241598E+02 -0.49419909960E+01 -0.37600706364E+03  0.37618990356E+03  0.00000000000E+00 0.  1.
         14    1    3    3    0    0 -0.35298893466E+02  0.12321902272E+02 -0.10239093954E+03  0.10900342038E+03  0.00000000000E+00 0. -1.
         11    1    5    5    0    0  0.23209782230E+02 -0.36930065604E+02  0.71095574404E+02  0.83409258697E+02  0.00000000000E+00 0. -1.
        -12    1    5    5    0    0  0.16415061128E+02 -0.40248810879E+01  0.29471638769E+03  0.29520061496E+03  0.00000000000E+00 0.  1.
          5    1    4    4  501    0 -0.23990015177E+02 -0.44755489379E+02 -0.21339674138E+03  0.21939511455E+03  0.41800000000E+01 0. -1.
         -5    1    4    4    0  501  0.90288236873E+01  0.78330524795E+02 -0.27807801383E+03  0.28907100330E+03  0.41800000000E+01 0. -1.
</event>
<event>
11    1  0.9238666E-009  0.1739795E+03  0.7561462E-02  0.1074620E+00
         22   -1    0    0    0    0  0.00000000000E+00  0.00000000000E+00  0.75782880446E+02  0.75782880446E+02  0.00000000000E+00 0.  1.
         22   -1    0    0    0    0 -0.00000000000E+00 -0.00000000000E+00 -0.19518289728E+04  0.19518289728E+04  0.00000000000E+00 0. -1.
         24    2    1    2    0    0  0.13370958076E+03 -0.48469568292E+02 -0.10139877556E+04  0.10271616353E+04  0.81622946590E+02 0.  0.
         25    2    1    2    0    0 -0.80816158619E+02  0.58944047595E+02 -0.88252020718E+03  0.89693648798E+03  0.12508994819E+03 0.  0.
        -24    2    1    2    0    0 -0.52893422145E+02 -0.10474479303E+02  0.20461870453E+02  0.10351372998E+03  0.85959149191E+02 0.  0.
        -11    1    3    3    0    0  0.63314425593E+02  0.18720074421E+02 -0.36600337063E+03  0.37191077557E+03  0.00000000000E+00 0.  1.
         12    1    3    3    0    0  0.70395155171E+02 -0.67189642713E+02 -0.64798438497E+03  0.65525085969E+03  0.00000000000E+00 0. -1.
         11    1    5    5    0    0 -0.72693001567E+02 -0.23760658288E+02  0.88366487038E+01  0.76986542457E+02  0.00000000000E+00 0. -1.
        -12    1    5    5    0    0  0.19799579422E+02  0.13286178985E+02  0.11625221749E+02  0.26527187526E+02  0.00000000000E+00 0.  1.
          5    1    4    4  501    0 -0.59654906315E+02 -0.31207375092E+02 -0.37792745354E+03  0.38390003992E+03  0.41800000000E+01 0.  1.
         -5    1    4    4    0  501 -0.21161252304E+02  0.90151422687E+02 -0.50459275364E+03  0.51303644806E+03  0.41800000000E+01 0.  1.
</event>
<event>
11    1  0.9238666E-009  0.1424494E+03  0.7561462E-02  0.1104854E+00
         22   -1    0    0    0    0  0.00000000000E+00  0.00000000000E+00  0.53387404817E+03  0.53387404817E+03  0.00000000000E+00 0.  1.
         22   -1    0    0    0    0 -0.00000000000E+00 -0.00000000000E+00 -0.30966735446E+03  0.30966735446E+03  0.00000000000E+00 0.  1.
         24    2    1    2    0    0  0.31534010807E+02  0.62916007195E+02 -0.23829718991E+03  0.26469082398E+03  0.91229730787E+02 0.  0.
         25    2    1    2    0    0 -0.21065271655E+02 -0.49588666222E+02  0.30844991433E+02  0.13964726878E+03  0.12508862735E+03 0.  0.
        -24    2    1    2    0    0 -0.10468739151E+02 -0.13327340973E+02  0.43165889220E+03  0.43920330988E+03  0.79264971320E+02 0.  0.
        -11    1    3    3    0    0  0.90102389415E+01  0.76802764874E+02 -0.21809885852E+03  0.23140216332E+03  0.00000000000E+00 0.  1.
         12    1    3    3    0    0  0.22523771865E+02 -0.13886757678E+02 -0.20198331390E+02  0.33288660664E+02  0.00000000000E+00 0. -1.
         11    1    5    5    0    0  0.33139480345E+01 -0.12075562622E+02  0.70525638959E+01  0.14371503808E+02  0.00000000000E+00 0. -1.
        -12    1    5    5    0    0 -0.13782687186E+02 -0.12517783509E+01  0.42460632830E+03  0.42483180607E+03  0.00000000000E+00 0.  1.
          5    1    4    4  501    0  0.70689047390E+01 -0.84480436571E+02 -0.34927856216E+00  0.84879373071E+02  0.41800000000E+01 0. -1.
         -5    1    4    4    0  501 -0.28134176395E+02  0.34891770348E+02  0.31194269995E+02  0.54767895705E+02  0.41800000000E+01 0. -1.
</event>
<event>
11    1  0.9238666E-009  0.1462859E+03  0.7561462E-02  0.1100735E+00
         22   -1    0    0    0    0  0.00000000000E+00  0.00000000000E+00  0.28980277450E+04  0.28980277450E+04  0.00000000000E+00 0. -1.
         22   -1    0    0    0    0 -0.00000000000E+00 -0.00000000000E+00 -0.53260309619E+02  0.53260309619E+02  0.00000000000E+00 0. -1.
        -24    2    1    2    0    0 -0.67771584460E+02  0.22762500675E+02  0.55570117944E+02  0.12066168766E+03  0.79750145848E+02 0.  0.
         25    2    1    2    0    0  0.71910500826E+02 -0.66443842908E+02  0.29771824043E+03  0.33744024804E+03  0.12507544093E+03 0.  0.
         24    2    1    2    0    0 -0.41389163652E+01  0.43681342233E+02  0.24914790770E+04  0.24931861190E+04  0.81140878327E+02 0.  0.
        -11    1    5    5    0    0  0.16424487068E+02  0.47880231218E+02  0.81217164655E+03  0.81374754302E+03  0.00000000000E+00 0.  1.
         12    1    5    5    0    0 -0.20563403433E+02 -0.41988889851E+01  0.16793074305E+04  0.16794385759E+04  0.00000000000E+00 0. -1.
         13    1    3    3    0    0 -0.64790539369E+02  0.21163076490E+02  0.32546577979E+01  0.68236959162E+02  0.00000000000E+00 0. -1.
        -14    1    3    3    0    0 -0.29810450914E+01  0.15994241859E+01  0.52315460146E+02  0.52424728496E+02  0.00000000000E+00 0.  1.
          5    1    4    4  501    0 -0.48787561664E+01 -0.79570151089E+02  0.16939864283E+03  0.18726607754E+03  0.41800000000E+01 0.  1.
         -5    1    4    4    0  501  0.76789256992E+02  0.13126308181E+02  0.12831959760E+03  0.15017417050E+03  0.41800000000E+01 0.  1.
</event>
<event>
11    1  0.9238666E-009  0.1481217E+03  0.7561462E-02  0.1098814E+00
         22   -1    0    0    0    0  0.00000000000E+00  0.00000000000E+00  0.31500026205E+03  0.31500026205E+03  0.00000000000E+00 0.  1.
         22   -1    0    0    0    0 -0.00000000000E+00 -0.00000000000E+00 -0.61169739734E+03  0.61169739734E+03  0.00000000000E+00 0.  1.
        -24    2    1    2    0    0 -0.32248600396E+02  0.80016824341E+02 -0.40152186482E+03  0.41912589562E+03  0.83690166946E+02 0.  0.
         25    2    1    2    0    0  0.20930235701E+02 -0.56119866219E+02 -0.17056469634E+03  0.21983545906E+03  0.12509116385E+03 0.  0.
         24    2    1    2    0    0  0.11318364694E+02 -0.23896958122E+02  0.27538942586E+03  0.28773630472E+03  0.79080182024E+02 0.  0.
        -13    1    5    5    0    0 -0.25086134893E+02  0.20624875266E+01  0.18694921027E+03  0.18863609209E+03  0.00000000000E+00 0.  1.
         14    1    5    5    0    0  0.36404499588E+02 -0.25959445649E+02  0.88440215588E+02  0.99100212622E+02  0.00000000000E+00 0. -1.
         13    1    3    3    0    0 -0.98903552416E+01  0.62633453803E+02 -0.11597310235E+03  0.13217612920E+03  0.00000000000E+00 0. -1.
        -14    1    3    3    0    0 -0.22358245154E+02  0.17383370537E+02 -0.28554876247E+03  0.28694976641E+03  0.00000000000E+00 0.  1.
          5    1    4    4  501    0 -0.52139549798E+02 -0.17838669562E+02 -0.80350908011E+02  0.97521749385E+02  0.41800000000E+01 0.  1.
         -5    1    4    4    0  501  0.73069785499E+02 -0.38281196656E+02 -0.90213788327E+02  0.12231370968E+03  0.41800000000E+01 0.  1.
</event>
<event>
11    1  0.9238666E-009  0.1401605E+03  0.7561462E-02  0.1107379E+00
         22   -1    0    0    0    0  0.00000000000E+00  0.00000000000E+00  0.48409665490E+03  0.48409665490E+03  0.00000000000E+00 0. -1.
         22   -1    0    0    0    0 -0.00000000000E+00 -0.00000000000E+00 -0.16865644709E+04  0.16865644709E+04  0.00000000000E+00 0. -1.
         24    2    1    2    0    0 -0.31542186694E+02 -0.54436905474E+02 -0.15245245236E+04  0.15279294975E+04  0.80219947590E+02 0.  0.
         25    2    1    2    0    0  0.71378230629E+02  0.38243361853E+02 -0.12000566972E+03  0.19133067382E+03  0.12509460199E+03 0.  0.
        -24    2    1    2    0    0 -0.39836043935E+02  0.16193543621E+02  0.44206237739E+03  0.45140095443E+03  0.80588677272E+02 0.  0.
        -11    1    3    3    0    0 -0.25257060277E+02  0.30854296306E+00 -0.13686675759E+03  0.13917802853E+03  0.00000000000E+00 0.  1.
         12    1    3    3    0    0 -0.62851264171E+01 -0.54745448437E+02 -0.13876577661E+04  0.13887514690E+04  0.00000000000E+00 0. -1.
         13    1    5    5    0    0  0.19659105878E+02  0.24217007287E+02  0.16221032501E+03  0.16518212200E+03  0.00000000000E+00 0. -1.
        -14    1    5    5    0    0 -0.59495149813E+02 -0.80234636659E+01  0.27985205237E+03  0.28621883243E+03  0.00000000000E+00 0.  1.
          5    1    4    4  501    0  0.22747922744E+02 -0.31057214099E+02  0.62861134528E+01  0.39230168991E+02  0.41800000000E+01 0. -1.
         -5    1    4    4    0  501  0.48630307885E+02  0.69300575952E+02 -0.12629178318E+03  0.15210050483E+03  0.41800000000E+01 0. -1.
</event>
<event>
11    1  0.9238666E-009  0.1397222E+03  0.7561462E-02  0.1107869E+00
         22   -1    0    0    0    0  0.00000000000E+00  0.00000000000E+00  0.35947062437E+03  0.35947062437E+03  0.00000000000E+00 0.  1.
         22   -1    0    0    0    0 -0.00000000000E+00 -0.00000000000E+00 -0.14216992590E+04  0.14216992590E+04  0.00000000000E+00 0. -1.
         24    2    1    2    0    0 -0.28630965748E+02  0.67535941742E+01 -0.12544946000E+04  0.12574127397E+04  0.80403690401E+02 0.  0.
         25    2    1    2    0    0  0.82236081200E+00  0.49932389894E+02 -0.12917784227E+03  0.18661785523E+03  0.12508152989E+03 0.  0.
        -24    2    1    2    0    0  0.27808604936E+02 -0.56685984068E+02  0.32144380756E+03  0.33713928847E+03  0.79687885582E+02 0.  0.
        -11    1    3    3    0    0  0.59946540650E+01  0.38181257179E+02 -0.61130090540E+03  0.61252146184E+03  0.00000000000E+00 0.  1.
         12    1    3    3    0    0 -0.34625619814E+02 -0.31427663005E+02 -0.64319369457E+03  0.64489127787E+03  0.00000000000E+00 0. -1.
         11    1    5    5    0    0 -0.44443464654E+01 -0.14015159755E+02  0.40231344070E+01  0.15243442161E+02  0.00000000000E+00 0. -1.
        -12    1    5    5    0    0  0.32252951402E+02 -0.42670824313E+02  0.31742067316E+03  0.32189584631E+03  0.00000000000E+00 0.  1.
          5    1    4    4  501    0  0.41312689419E+02  0.64850870965E+02 -0.11955672658E+03  0.14220990486E+03  0.41800000000E+01 0.  1.
         -5    1    4    4    0  501 -0.40490328607E+02 -0.14918481071E+02 -0.96211156895E+01  0.44407950361E+02  0.41800000000E+01 0.  1.
</event>
<event>
11    1  0.9238666E-009  0.1757736E+03  0.7561462E-02  0.1073114E+00
         22   -1    0    0    0    0  0.00000000000E+00  0.00000000000E+00  0.73485084023E+03  0.73485084023E+03  0.00000000000E+00 0. -1.
         22   -1    0    0    0    0 -0.00000000000E+00 -0.00000000000E+00 -0.36085570153E+03  0.36085570153E+03  0.00000000000E+00 0. -1.
        -24    2    1    2    0    0  0.10163313205E+02  0.11953669872E+03 -0.29090090078E+03  0.32488340372E+03  0.80830542899E+02 0.  0.
         25    2    1    2    0    0  0.47324785567E+02 -0.20829819075E+03  0.35219658165E+03  0.43048868462E+03  0.12510117451E+03 0.  0.
         24    2    1    2    0    0 -0.57488098772E+02  0.88761492039E+02  0.31269945783E+03  0.34033445341E+03  0.82843860835E+02 0.  0.
        -11    1    5    5    0    0 -0.24841657152E+01  0.26985644119E+02  0.14215851717E+02  0.30602067052E+02  0.00000000000E+00 0.  1.
         12    1    5    5    0    0 -0.55003933056E+02  0.61775847921E+02  0.29848360612E+03  0.30973238636E+03  0.00000000000E+00 0. -1.
         13    1    3    3    0    0 -0.91031518756E+01  0.11261630276E+03 -0.27945197109E+03  0.30142777438E+03  0.00000000000E+00 0. -1.
        -14    1    3    3    0    0  0.19266465081E+02  0.69203959597E+01 -0.11448929690E+02  0.23455629345E+02  0.00000000000E+00 0.  1.
          5    1    4    4  501    0  0.51377625322E+02 -0.10492724119E+03  0.28235444388E+03  0.30559923217E+03  0.41800000000E+01 0.  1.
         -5    1    4    4    0  501 -0.40528397556E+01 -0.10337094957E+03  0.69842137769E+02  0.12488945245E+03  0.41800000000E+01 0.  1.
</event>
<event>
11    1  0.9238666E-009  0.1821891E+03  0.7561462E-02  0.1067886E+00
         22   -1    0    0    0    0  0.00000000000E+00  0.00000000000E+00  0.19550847613E+04  0.19550847613E+04  0.00000000000E+00 0. -1.
         22   -1    0    0    0    0 -0.00000000000E+00 -0.00000000000E+00 -0.30861791475E+03  0.30861791475E+03  0.00000000000E+00 0.  1.
        -24    2    1    2    0    0  0.60279493853E+02  0.11423296786E+03 -0.22899855066E+03  0.27555133448E+03  0.82494929559E+02 0.  0.
         25    2    1    2    0    0 -0.16372427451E+03 -0.98539582065E+02  0.18865878790E+03  0.29623563943E+03  0.12509088104E+03 0.  0.
         24    2    1    2    0    0  0.10344478065E+03 -0.15693385796E+02  0.16868066093E+04  0.16919157021E+04  0.79467609409E+02 0.  0.
        -11    1    5    5    0    0  0.39698380365E+02 -0.17834802459E+02  0.25484945106E+03  0.25853874814E+03  0.00000000000E+00 0.  1.
         12    1    5    5    0    0  0.63746400287E+02  0.21414166634E+01  0.14319571582E+04  0.14333769540E+04  0.00000000000E+00 0. -1.
         11    1    3    3    0    0 -0.20100481801E+02  0.34375419943E+02 -0.54626703950E+02  0.67600115750E+02  0.00000000000E+00 0. -1.
        -12    1    3    3    0    0  0.80379975655E+02  0.79857547917E+02 -0.17437184671E+03  0.20795121873E+03  0.00000000000E+00 0.  1.
          5    1    4    4  501    0 -0.18181930397E+03 -0.83701528758E+02  0.18419932087E+03  0.27204975174E+03  0.41800000000E+01 0.  1.
         -5    1    4    4    0  501  0.18095029463E+02 -0.14838053307E+02  0.44594670346E+01  0.24185887692E+02  0.41800000000E+01 0.  1.
</event>
<event>
11    1  0.9238666E-009  0.1455541E+03  0.7561462E-02  0.1101510E+00
         22   -1    0    0    0    0  0.00000000000E+00  0.00000000000E+00  0.91533584482E+03  0.91533584482E+03  0.00000000000E+00 0.  1.
         22   -1    0    0    0    0 -0.00000000000E+00 -0.00000000000E+00 -0.29204323194E+03  0.29204323194E+03  0.00000000000E+00 0. -1.
        -24    2    1    2    0    0 -0.64380876143E+01  0.17774534464E+02 -0.15714575086E+03  0.17801441827E+03  0.81467558268E+02 0.  0.
         25    2    1    2    0    0  0.26325285046E+02 -0.88930557966E+02 -0.70826649588E+02  0.17107451710E+03  0.12509361030E+03 0.  0.
         24    2    1    2    0    0 -0.19887197432E+02  0.71156023502E+02  0.85126501333E+03  0.85829014139E+03  0.80939258660E+02 0.  0.
        -13    1    5    5    0    0  0.28769978296E+02  0.34977199250E+02  0.47702568641E+03  0.47917076457E+03  0.00000000000E+00 0.  1.
         14    1    5    5    0    0 -0.48657175728E+02  0.36178824252E+02  0.37423932691E+03  0.37911937682E+03  0.00000000000E+00 0. -1.
         13    1    3    3    0    0  0.34719680824E+02  0.16416576740E+02 -0.10342911038E+03  0.11032923956E+03  0.00000000000E+00 0. -1.
        -14    1    3    3    0    0 -0.41157768438E+02  0.13579577248E+01 -0.53716640487E+02  0.67685178711E+02  0.00000000000E+00 0.  1.
          5    1    4    4  501    0 -0.42600283553E+02  0.34286063304E+00 -0.21528599445E+02  0.47915078068E+02  0.41800000000E+01 0. -1.
         -5    1    4    4    0  501  0.68925568599E+02 -0.89273418600E+02 -0.49298050143E+02  0.12315943903E+03  0.41800000000E+01 0. -1.
</event>
<event>
11    1  0.9238666E-009  0.1429778E+03  0.7561462E-02  0.1104278E+00
         22   -1    0    0    0    0  0.00000000000E+00  0.00000000000E+00  0.10067757034E+04  0.10067757034E+04  0.00000000000E+00 0. -1.
         22   -1    0    0    0    0 -0.00000000000E+00 -0.00000000000E+00 -0.73526844531E+03  0.73526844531E+03  0.00000000000E+00 0. -1.
         24    2    1    2    0    0 -0.67772893838E+02  0.12748221701E+02 -0.70961762503E+03  0.71737417813E+03  0.79453479477E+02 0.  0.
         25    2    1    2    0    0  0.92781539382E+02 -0.49413505401E+01  0.29796299693E+03  0.33624854263E+03  0.12509318082E+03 0.  0.
        -24    2    1    2    0    0 -0.25008645544E+02 -0.78068711610E+01  0.68316188618E+03  0.68842142793E+03  0.80793069742E+02 0.  0.
        -13    1    3    3    0    0 -0.43811621424E+01  0.73883401495E+01 -0.50991055223E+01  0.99891455595E+01  0.00000000000E+00 0.  1.
         14    1    3    3    0    0 -0.63391731696E+02  0.53598815516E+01 -0.70451851950E+03  0.70738503257E+03  0.00000000000E+00 0. -1.
         11    1    5    5    0    0  0.67790265751E+01 -0.33078279648E+02  0.48316222749E+03  0.48434065063E+03  0.00000000000E+00 0. -1.
        -12    1    5    5    0    0 -0.31787672119E+02  0.25271408487E+02  0.19999965869E+03  0.20408077729E+03  0.00000000000E+00 0.  1.
          5    1    4    4  501    0  0.27196694901E+02 -0.13179833063E+02 -0.51131549103E+00  0.30513964944E+02  0.41800000000E+01 0. -1.
         -5    1    4    4    0  501  0.65584844481E+02  0.82384825229E+01  0.29847431242E+03  0.30573457769E+03  0.41800000000E+01 0. -1.
</event>
<event>
11    1  0.9238666E-009  0.1331456E+03  0.7561462E-02  0.1115463E+00
         22   -1    0    0    0    0  0.00000000000E+00  0.00000000000E+00  0.10686122831E+04  0.10686122831E+04  0.00000000000E+00 0. -1.
         22   -1    0    0    0    0 -0.00000000000E+00 -0.00000000000E+00 -0.16974547231E+03  0.16974547231E+03  0.00000000000E+00 0. -1.
        -24    2    1    2    0    0  0.40335119646E+02  0.19612607601E+02 -0.14211566170E+03  0.17034528151E+03  0.82517133854E+02 0.  0.
         25    2    1    2    0    0 -0.65569284400E+02 -0.45473399867E+02  0.59837135514E+03  0.61649142344E+03  0.12508491263E+03 0.  0.
         24    2    1    2    0    0  0.25234164755E+02  0.25860792265E+02  0.44261111732E+03  0.45152105043E+03  0.81615648984E+02 0.  0.
        -11    1    5    5    0    0 -0.19166502925E+02  0.30901169285E+02  0.29671995782E+03  0.29893974387E+03  0.00000000000E+00 0.  1.
         12    1    5    5    0    0  0.44400667679E+02 -0.50403770194E+01  0.14589115950E+03  0.15258130656E+03  0.00000000000E+00 0. -1.
         13    1    3    3    0    0  0.27646722800E+02 -0.51555861034E+00 -0.14385468762E+03  0.14648815049E+03  0.00000000000E+00 0. -1.
        -14    1    3    3    0    0  0.12688396845E+02  0.20128166212E+02  0.17390259235E+01  0.23857131024E+02  0.00000000000E+00 0.  1.
          5    1    4    4  501    0 -0.23262186308E+02 -0.42422849762E+02  0.63581006670E+02  0.80005276719E+02  0.41800000000E+01 0.  1.
         -5    1    4    4    0  501 -0.42307098092E+02 -0.30505501050E+01  0.53479034847E+03  0.53648614672E+03  0.41800000000E+01 0.  1.
</event>
<event>
11    1  0.9238666E-009  0.1475133E+03  0.7561462E-02  0.1099447E+00
         22   -1    0    0    0    0  0.00000000000E+00  0.00000000000E+00  0.13398720220E+04  0.13398720220E+04  0.00000000000E+00 0. -1.
         22   -1    0    0    0    0 -0.00000000000E+00 -0.00000000000E+00 -0.65433630569E+03  0.65433630569E+03  0.00000000000E+00 0.  1.
        -24    2    1    2    0    0  0.96546249703E+01 -0.40914646167E+02 -0.62357481750E+03  0.63028077372E+03  0.81492825748E+02 0.  0.
         25    2    1    2    0    0 -0.80239916359E+02  0.68060325133E+02  0.24761176700E+03  0.29669707111E+03  0.12508762054E+03 0.  0.
         24    2    1    2    0    0  0.70585291389E+02 -0.27145678966E+02  0.10614987668E+04  0.10672304829E+04  0.80511492177E+02 0.  0.
        -13    1    5    5    0    0 -0.12316631299E+02 -0.23729819631E+02  0.31585076207E+03  0.31698029536E+03  0.00000000000E+00 0.  1.
         14    1    5    5    0    0  0.82901922688E+02 -0.34158593351E+01  0.74564800475E+03  0.75025018751E+03  0.00000000000E+00 0. -1.
         11    1    3    3    0    0  0.53611572042E+01 -0.42297401495E+02 -0.13261459685E+03  0.13929983301E+03  0.00000000000E+00 0. -1.
        -12    1    3    3    0    0  0.42934677661E+01  0.13827553282E+01 -0.49096022066E+03  0.49098094071E+03  0.00000000000E+00 0.  1.
          5    1    4    4  501    0 -0.10710089958E+03  0.38730837202E+02  0.13214056379E+03  0.17449722473E+03  0.41800000000E+01 0. -1.
         -5    1    4    4    0  501  0.26860983223E+02  0.29329487931E+02  0.11547120322E+03  0.12219984638E+03  0.41800000000E+01 0. -1.
</event>
<event>
11    1  0.9238666E-009  0.2024566E+03  0.7561462E-02  0.1052800E+00
         22   -1    0    0    0    0  0.00000000000E+00  0.00000000000E+00  0.58412353972E+03  0.58412353972E+03  0.00000000000E+00 0. -1.
         22   -1    0    0    0    0 -0.00000000000E+00 -0.00000000000E+00 -0.84188327791E+03  0.84188327791E+03  0.00000000000E+00 0.  1.
         24    2    1    2    0    0  0.42898613450E+02  0.15392826038E+03 -0.62702864543E+03  0.65230001522E+03  0.82438991322E+02 0.  0.
         25    2    1    2    0    0 -0.59356352275E+02 -0.14600077704E+03 -0.14809893610E+03  0.24983717585E+03  0.12508363646E+03 0.  0.
        -24    2    1    2    0    0  0.16457738826E+02 -0.79274833356E+01  0.51736784333E+03  0.52386962656E+03  0.80225919544E+02 0.  0.
        -13    1    3    3    0    0  0.14032881716E+02  0.11436713670E+03 -0.29543900518E+03  0.31711349626E+03  0.00000000000E+00 0.  1.
         14    1    3    3    0    0  0.28865731733E+02  0.39561123675E+02 -0.33158964024E+03  0.33518651896E+03  0.00000000000E+00 0. -1.
         11    1    5    5    0    0 -0.20014018306E+02 -0.13236800040E+01  0.40601451118E+03  0.40650965099E+03  0.00000000000E+00 0. -1.
        -12    1    5    5    0    0  0.36471757131E+02 -0.66038033316E+01  0.11135333215E+03  0.11735997558E+03  0.00000000000E+00 0.  1.
          5    1    4    4  501    0  0.26320316789E+02 -0.83096774600E+02 -0.10107726447E+03  0.13353620789E+03  0.41800000000E+01 0. -1.
         -5    1    4    4    0  501 -0.85676669064E+02 -0.62904002441E+02 -0.47021671627E+02  0.11630096796E+03  0.41800000000E+01 0. -1.
</event>
<event>
11    1  0.9238666E-009  0.1321890E+03  0.7561462E-02  0.1116608E+00
         22   -1    0    0    0    0  0.00000000000E+00  0.00000000000E+00  0.11115034620E+04  0.11115034620E+04  0.00000000000E+00 0.  1.
         22   -1    0    0    0    0 -0.00000000000E+00 -0.00000000000E+00 -0.11105218928E+04  0.11105218928E+04  0.00000000000E+00 0. -1.
        -24    2    1    2    0    0  0.34320939325E+02 -0.26091662328E+02 -0.10657882175E+04  0.10696427716E+04  0.79827517712E+02 0.  0.
         25    2    1    2    0    0 -0.28178505867E+02 -0.27823018434E+01  0.58936754672E+02  0.14116191397E+03  0.12510545754E+03 0.  0.
         24    2    1    2    0    0 -0.61424334585E+01  0.28873964172E+02  0.10078330320E+04  0.10112206693E+04  0.77255331437E+02 0.  0.
        -11    1    5    5    0    0  0.52028193187E+01  0.54093699339E+02  0.72753491547E+03  0.72956168407E+03  0.00000000000E+00 0.  1.
         12    1    5    5    0    0 -0.11345252777E+02 -0.25219735168E+02  0.28029811657E+03  0.28165898522E+03  0.00000000000E+00 0. -1.
         13    1    3    3    0    0  0.12730726547E+02 -0.24326235649E+02 -0.10000615148E+04  0.10004383392E+04  0.00000000000E+00 0. -1.
        -14    1    3    3    0    0  0.21590212778E+02 -0.17654266793E+01 -0.65726702707E+02  0.69204432429E+02  0.00000000000E+00 0.  1.
          5    1    4    4  501    0  0.31598038728E+02 -0.22164476047E+02 -0.17107370585E+02  0.42424457312E+02  0.41800000000E+01 0. -1.
         -5    1    4    4    0  501 -0.59776544595E+02  0.19382174204E+02  0.76044125257E+02  0.98737456655E+02  0.41800000000E+01 0. -1.
</event>
<event>
11    1  0.9238666E-009  0.3033335E+03  0.7561462E-02  0.9987902E-01
         22   -1    0    0    0    0  0.00000000000E+00  0.00000000000E+00  0.21549884433E+03  0.21549884433E+03  0.00000000000E+00 0.  1.
         22   -1    0    0    0    0 -0.00000000000E+00 -0.00000000000E+00 -0.46537621644E+03  0.46537621644E+03  0.00000000000E+00 0.  1.
         24    2    1    2    0    0 -0.87421621899E+02 -0.84202408745E+02 -0.33674742898E+03  0.36534752095E+03  0.73125881371E+02 0.  0.
         25    2    1    2    0    0  0.25120473286E+02 -0.11551575741E+01 -0.37396419332E+02  0.13296144576E+03  0.12509149177E+03 0.  0.
        -24    2    1    2    0    0  0.62301148614E+02  0.85357566319E+02  0.12426647620E+03  0.18256609407E+03  0.81980938945E+02 0.  0.
        -11    1    3    3    0    0 -0.80793429466E+02 -0.42572752671E+02 -0.28092931831E+03  0.29540023595E+03  0.00000000000E+00 0.  1.
         12    1    3    3    0    0 -0.66281924332E+01 -0.41629656075E+02 -0.55818110669E+02  0.69947284997E+02  0.00000000000E+00 0. -1.
         11    1    5    5    0    0  0.30757604497E+02 -0.10682240592E+02  0.33349274554E+02  0.46608095989E+02  0.00000000000E+00 0. -1.
        -12    1    5    5    0    0  0.31543544117E+02  0.96039806912E+02  0.90917201644E+02  0.13595799808E+03  0.00000000000E+00 0.  1.
          5    1    4    4  501    0  0.43000665820E+02 -0.54800941438E+02 -0.29301352796E+02  0.75685151246E+02  0.41800000000E+01 0. -1.
         -5    1    4    4    0  501 -0.17880192534E+02  0.53645783864E+02 -0.80950665355E+01  0.57276294517E+02  0.41800000000E+01 0. -1.
</event>
<event>
11    1  0.9238666E-009  0.1424097E+03  0.7561462E-02  0.1104897E+00
         22   -1    0    0    0    0  0.00000000000E+00  0.00000000000E+00  0.29580363590E+03  0.29580363590E+03  0.00000000000E+00 0. -1.
         22   -1    0    0    0    0 -0.00000000000E+00 -0.00000000000E+00 -0.79790715218E+03  0.79790715218E+03  0.00000000000E+00 0.  1.
        -24    2    1    2    0    0 -0.10740692265E+02 -0.69421864522E+02 -0.65544076164E+03  0.66426921415E+03  0.81952663811E+02 0.  0.
         25    2    1    2    0    0  0.29272370353E+02  0.46192491229E+02 -0.95373240343E+02  0.16653444538E+03  0.12508816335E+03 0.  0.
         24    2    1    2    0    0 -0.18531678088E+02  0.23229373293E+02  0.24871048571E+03  0.26290712856E+03  0.79876314814E+02 0.  0.
        -13    1    5    5    0    0  0.11706024741E+02 -0.25393776339E+02  0.82842214138E+02  0.87434017038E+02  0.00000000000E+00 0.  1.
         14    1    5    5    0    0 -0.30237702828E+02  0.48623149633E+02  0.16586827157E+03  0.17547311152E+03  0.00000000000E+00 0. -1.
         13    1    3    3    0    0 -0.43937703763E+01 -0.48452269497E+02 -0.13728737592E+03  0.14565284489E+03  0.00000000000E+00 0. -1.
        -14    1    3    3    0    0 -0.63469218887E+01 -0.20969595026E+02 -0.51815338572E+03  0.51861636926E+03  0.00000000000E+00 0.  1.
          5    1    4    4  501    0 -0.15837922927E+01 -0.83274458041E+01  0.27211643931E+02  0.28806261769E+02  0.41800000000E+01 0. -1.
         -5    1    4    4    0  501  0.30856162645E+02  0.54519937033E+02 -0.12258488427E+03  0.13772818361E+03  0.41800000000E+01 0. -1.
</event>
<event>
11    1  0.9238666E-009  0.1500102E+03  0.7561462E-02  0.1096868E+00
         22   -1    0    0    0    0  0.00000000000E+00  0.00000000000E+00  0.73947366753E+03  0.73947366753E+03  0.00000000000E+00 0. -1.
         22   -1    0    0    0    0 -0.00000000000E+00 -0.00000000000E+00 -0.21349488176E+04  0.21349488176E+04  0.00000000000E+00 0.  1.
         24    2    1    2    0    0 -0.93024169487E+01  0.32424586378E+02 -0.19103041941E+04  0.19123484598E+04  0.81710642523E+02 0.  0.
         25    2    1    2    0    0  0.69276386486E+02 -0.88507513454E+02 -0.18591370041E+03  0.25068674094E+03  0.12508853033E+03 0.  0.
        -24    2    1    2    0    0 -0.59973969537E+02  0.56082927076E+02  0.70074274444E+03  0.71138728434E+03  0.91045607847E+02 0.  0.
        -13    1    3    3    0    0 -0.23659558044E+02 -0.10615138751E+02 -0.13370948908E+04  0.13373463287E+04  0.00000000000E+00 0.  1.
         14    1    3    3    0    0  0.14357141095E+02  0.43039725129E+02 -0.57320930329E+03  0.57500213114E+03  0.00000000000E+00 0. -1.
         13    1    5    5    0    0 -0.36240830430E+02 -0.19624613564E+02  0.30478624280E+03  0.30756003812E+03  0.00000000000E+00 0. -1.
        -14    1    5    5    0    0 -0.23733139107E+02  0.75707540640E+02  0.39595650164E+03  0.40382724622E+03  0.00000000000E+00 0.  1.
          5    1    4    4  501    0  0.19527004949E+02 -0.20251725028E+01 -0.13885047448E+03  0.14029373439E+03  0.41800000000E+01 0. -1.
         -5    1    4    4    0  501  0.49749381537E+02 -0.86482340951E+02 -0.47063225933E+02  0.11039300655E+03  0.41800000000E+01 0. -1.
</event>
<event>
11    1  0.9238666E-009  0.1397544E+03  0.7561462E-02  0.1107833E+00
         22   -1    0    0    0    0  0.00000000000E+00  0.00000000000E+00  0.88258626203E+03  0.88258626203E+03  0.00000000000E+00 0.  1.
         22   -1    0    0    0    0 -0.00000000000E+00 -0.00000000000E+00 -0.42503134200E+03  0.42503134200E+03  0.00000000000E+00 0. -1.
        -24    2    1    2    0    0 -0.19604576935E+02  0.27466351246E+02 -0.39088597817E+03  0.40027914852E+03  0.79327226851E+02 0.  0.
         25    2    1    2    0    0  0.53721751317E+02 -0.73680676759E+02  0.21260300589E+03  0.26298739885E+03  0.12508982833E+03 0.  0.
         24    2    1    2    0    0 -0.34117174382E+02  0.46214325512E+02  0.63583789231E+03  0.64435105665E+03  0.87170599610E+02 0.  0.
        -13    1    5    5    0    0 -0.59253548005E+02  0.39100055236E+02  0.55175839992E+03  0.55630668624E+03  0.00000000000E+00 0.  1.
         14    1    5    5    0    0  0.25136373623E+02  0.71142702770E+01  0.84079492392E+02  0.88044370413E+02  0.00000000000E+00 0. -1.
         13    1    3    3    0    0 -0.27060732935E+02  0.11053709818E+02 -0.37533497774E+03  0.37647153051E+03  0.00000000000E+00 0. -1.
        -14    1    3    3    0    0  0.74561559998E+01  0.16412641428E+02 -0.15551000434E+02  0.23807618013E+02  0.00000000000E+00 0.  1.
          5    1    4    4  501    0  0.65731417754E+02  0.90059558929E+01  0.63028162921E+02  0.91606485811E+02  0.41800000000E+01 0.  1.
         -5    1    4    4    0  501 -0.12009666437E+02 -0.82686632651E+02  0.14957484297E+03  0.17138091304E+03  0.41800000000E+01 0.  1.
</event>
<event>
11    1  0.9238666E-009  0.1477849E+03  0.7561462E-02  0.1099164E+00
         22   -1    0    0    0    0  0.00000000000E+00  0.00000000000E+00  0.58490968491E+02  0.58490968491E+02  0.00000000000E+00 0.  1.
         22   -1    0    0    0    0 -0.00000000000E+00 -0.00000000000E+00 -0.10046369530E+04  0.10046369530E+04  0.00000000000E+00 0. -1.
        -24    2    1    2    0    0  0.38120786256E+02 -0.30376888058E+02 -0.63090145986E+03  0.63807855846E+03  0.82046602830E+02 0.  0.
         25    2    1    2    0    0 -0.52547441419E+02  0.97890977678E+02 -0.25380046068E+03  0.30398325806E+03  0.12508904921E+03 0.  0.
         24    2    1    2    0    0  0.14426655164E+02 -0.67514089620E+02 -0.61444063961E+02  0.12106610496E+03  0.78200691160E+02 0.  0.
        -13    1    5    5    0    0  0.29234932123E+02 -0.19599232074E+02  0.73267206202E+01  0.35951244613E+02  0.00000000000E+00 0.  1.
         14    1    5    5    0    0 -0.14808276960E+02 -0.47914857545E+02 -0.68770784581E+02  0.85114860348E+02  0.00000000000E+00 0. -1.
         11    1    3    3    0    0  0.43090977634E+02 -0.41374597501E+02 -0.25196268983E+03  0.25894765250E+03  0.00000000000E+00 0. -1.
        -12    1    3    3    0    0 -0.49701913782E+01  0.10997709443E+02 -0.37893877004E+03  0.37913090596E+03  0.00000000000E+00 0.  1.
          5    1    4    4  501    0 -0.24947793623E+02  0.43813512802E+01  0.60817863600E+01  0.26382743812E+02  0.41800000000E+01 0.  1.
         -5    1    4    4    0  501 -0.27599647796E+02  0.93509626398E+02 -0.25988224704E+03  0.27760051425E+03  0.41800000000E+01 0.  1.
</event>
<event>
11    1  0.9238666E-009  0.1301779E+03  0.7561462E-02  0.1119051E+00
         22   -1    0    0    0    0  0.00000000000E+00  0.00000000000E+00  0.81995528129E+03  0.81995528129E+03  0.00000000000E+00 0.  1.
         22   -1    0    0    0    0 -0.00000000000E+00 -0.00000000000E+00 -0.66523608768E+03  0.66523608768E+03  0.00000000000E+00 0.  1.
        -24    2    1    2    0    0  0.30247553989E+02  0.20312162421E+02 -0.64468488258E+03  0.65082923008E+03  0.81440717276E+02 0.  0.
         25    2    1    2    0    0 -0.65882817440E+01  0.10261075344E+02  0.27348524732E+03  0.30098136349E+03  0.12508759148E+03 0.  0.
         24    2    1    2    0    0 -0.23659272245E+02 -0.30573237764E+02  0.52591882887E+03  0.53338077540E+03  0.80062181930E+02 0.  0.
        -13    1    5    5    0    0 -0.45447362284E+02  0.64953468893E+01  0.27130987435E+03  0.27516667711E+03  0.00000000000E+00 0.  1.
         14    1    5    5    0    0  0.21788090039E+02 -0.37068584654E+02  0.25460895452E+03  0.25821409830E+03  0.00000000000E+00 0. -1.
         11    1    3    3    0    0  0.23113926330E+02  0.19247974881E+02 -0.71121519403E+02  0.77220519615E+02  0.00000000000E+00 0. -1.
        -12    1    3    3    0    0  0.71336276589E+01  0.10641875397E+01 -0.57356336318E+03  0.57360871047E+03  0.00000000000E+00 0.  1.
          5    1    4    4  501    0 -0.58770274535E+01  0.24328602790E+02  0.28256990701E+03  0.28370697051E+03  0.41800000000E+01 0. -1.
         -5    1    4    4    0  501 -0.71125429049E+00 -0.14067527446E+02 -0.90846596942E+01  0.17274392982E+02  0.41800000000E+01 0. -1.
</event>
<event>
11    1  0.9238666E-009  0.4020201E+03  0.7561462E-02  0.9643816E-01
         22   -1    0    0    0    0  0.00000000000E+00  0.00000000000E+00  0.10895000909E+04  0.10895000909E+04  0.00000000000E+00 0.  1.
         22   -1    0    0    0    0 -0.00000000000E+00 -0.00000000000E+00 -0.17418306698E+04  0.17418306698E+04  0.00000000000E+00 0. -1.
         24    2    1    2    0    0 -0.16180799361E+03  0.33696019750E+03 -0.14581630272E+04  0.15075535385E+04  0.82184280117E+02 0.  0.
         25    2    1    2    0    0  0.35124597863E+03 -0.35089389992E+03  0.21044263724E+02  0.51243508551E+03  0.12508632749E+03 0.  0.
        -24    2    1    2    0    0 -0.18943798502E+03  0.13933702415E+02  0.78478818467E+03  0.81134213674E+03  0.79389355788E+02 0.  0.
        -13    1    3    3    0    0 -0.50979931356E+02  0.20075270442E+03 -0.78830943808E+03  0.81506586967E+03  0.00000000000E+00 0.  1.
         14    1    3    3    0    0 -0.11082806225E+03  0.13620749308E+03 -0.66985358916E+03  0.69248766882E+03  0.00000000000E+00 0. -1.
         11    1    5    5    0    0 -0.38784262124E+02 -0.85920617163E+01  0.31450795018E+03  0.31700677160E+03  0.00000000000E+00 0. -1.
        -12    1    5    5    0    0 -0.15065372290E+03  0.22525764131E+02  0.47028023450E+03  0.49433536514E+03  0.00000000000E+00 0.  1.
          5    1    4    4  501    0  0.21044531141E+02 -0.54112244490E+01 -0.23699800030E+02  0.32423857920E+02  0.41800000000E+01 0. -1.
         -5    1    4    4    0  501  0.33020144749E+03 -0.34548267547E+03  0.44744063754E+02  0.48001122759E+03  0.41800000000E+01 0. -1.
</event>
<event>
11    1  0.9238666E-009  0.1537433E+03  0.7561462E-02  0.1093114E+00
         22   -1    0    0    0    0  0.00000000000E+00  0.00000000000E+00  0.11173693828E+03  0.11173693828E+03  0.00000000000E+00 0. -1.
         22   -1    0    0    0    0 -0.00000000000E+00 -0.00000000000E+00 -0.17221677534E+04  0.17221677534E+04  0.00000000000E+00 0.  1.
         24    2    1    2    0    0 -0.64967109745E+02 -0.60532620969E+02 -0.15678417188E+04  0.15729567192E+04  0.90444800054E+02 0.  0.
         25    2    1    2    0    0  0.59387679539E+02  0.86968785324E+02 -0.57915928993E+02  0.17346628778E+03  0.12508330050E+03 0.  0.
        -24    2    1    2    0    0  0.55794302056E+01 -0.26436164354E+02  0.15326832621E+02  0.87481684703E+02  0.81781003498E+02 0.  0.
        -11    1    3    3    0    0 -0.65460777835E+02 -0.82196425043E+02 -0.13023417819E+04  0.13065739484E+04  0.00000000000E+00 0.  1.
         12    1    3    3    0    0  0.49366809012E+00  0.21663804074E+02 -0.26549993688E+03  0.26638277084E+03  0.00000000000E+00 0. -1.
         13    1    5    5    0    0  0.33522812166E+02 -0.22833072551E+02  0.34626788555E+02  0.53330503685E+02  0.00000000000E+00 0. -1.
        -14    1    5    5    0    0 -0.27943381960E+02 -0.36030918034E+01 -0.19299955934E+02  0.34151181019E+02  0.00000000000E+00 0.  1.
          5    1    4    4  501    0  0.54233240333E+02  0.11775779152E+03 -0.57703730403E+02  0.14196948518E+03  0.41800000000E+01 0.  1.
         -5    1    4    4    0  501  0.51544392063E+01 -0.30789006192E+02 -0.21219859069E+00  0.31496802601E+02  0.41800000000E+01 0.  1.
</event>
<event>
11    1  0.9238666E-009  0.1627229E+03  0.7561462E-02  0.1084544E+00
         22   -1    0    0    0    0  0.00000000000E+00  0.00000000000E+00  0.37735123441E+03  0.37735123441E+03  0.00000000000E+00 0. -1.
         22   -1    0    0    0    0 -0.00000000000E+00 -0.00000000000E+00 -0.36987803496E+03  0.36987803496E+03  0.00000000000E+00 0. -1.
        -24    2    1    2    0    0 -0.53476729869E+02  0.82843178500E+02 -0.27137396872E+03  0.29940101628E+03  0.79211014326E+02 0.  0.
         25    2    1    2    0    0  0.91967680521E+02 -0.13072214593E+03  0.70426253997E+02  0.21483483452E+03  0.12509122740E+03 0.  0.
         24    2    1    2    0    0 -0.38490950652E+02  0.47878967434E+02  0.20842091418E+03  0.23299341857E+03  0.84099386579E+02 0.  0.
        -11    1    5    5    0    0 -0.24339955677E+02  0.74197843175E+01  0.60794429475E+01  0.26161924016E+02  0.00000000000E+00 0.  1.
         12    1    5    5    0    0 -0.14150994974E+02  0.40459183116E+02  0.20234147123E+03  0.20683149455E+03  0.00000000000E+00 0. -1.
         11    1    3    3    0    0 -0.70375475265E+02  0.80621877562E+02 -0.25084181324E+03  0.27271635435E+03  0.00000000000E+00 0. -1.
        -12    1    3    3    0    0  0.16898745396E+02  0.22213009384E+01 -0.20532155482E+02  0.26684661934E+02  0.00000000000E+00 0.  1.
          5    1    4    4  501    0  0.37982399747E+02 -0.55551774802E+02  0.97296207675E+02  0.11837519505E+03  0.41800000000E+01 0.  1.
         -5    1    4    4    0  501  0.53985280774E+02 -0.75170371132E+02 -0.26869953678E+02  0.96459639472E+02  0.41800000000E+01 0.  1.
</event>
<event>
11    1  0.9238666E-009  0.1873494E+03  0.7561462E-02  0.1063848E+00
         22   -1    0    0    0    0  0.00000000000E+00  0.00000000000E+00  0.10960019602E+04  0.10960019602E+04  0.00000000000E+00 0.  1.
         22   -1    0    0    0    0 -0.00000000000E+00 -0.00000000000E+00 -0.49253808497E+03  0.49253808497E+03  0.00000000000E+00 0.  1.
         24    2    1    2    0    0  0.11124033230E+03 -0.88190031924E+02 -0.40784407941E+03  0.43769327115E+03  0.71321197683E+02 0.  0.
         25    2    1    2    0    0 -0.63449714142E+01  0.18269356827E+03  0.13437131036E+03  0.25907509538E+03  0.12508819868E+03 0.  0.
        -24    2    1    2    0    0 -0.10489536089E+03 -0.94503536343E+02  0.87693664430E+03  0.89177167866E+03  0.79403360260E+02 0.  0.
        -11    1    3    3    0    0  0.38562662146E+02 -0.57787890297E+02 -0.27128574954E+03  0.28004013476E+03  0.00000000000E+00 0.  1.
         12    1    3    3    0    0  0.72677670156E+02 -0.30402141627E+02 -0.13655832988E+03  0.15765313639E+03  0.00000000000E+00 0. -1.
         11    1    5    5    0    0 -0.32706977079E+02 -0.73065983826E+02  0.32461194330E+03  0.33433710245E+03  0.00000000000E+00 0. -1.
        -12    1    5    5    0    0 -0.72188383809E+02 -0.21437552517E+02  0.55232470101E+03  0.55743457621E+03  0.00000000000E+00 0.  1.
          5    1    4    4  501    0  0.10977127155E+02  0.10073848803E+03  0.14239584794E+03  0.17482216737E+03  0.41800000000E+01 0. -1.
         -5    1    4    4    0  501 -0.17322098569E+02  0.81955080236E+02 -0.80245375804E+01  0.84252928013E+02  0.41800000000E+01 0. -1.
</event>
<event>
11    1  0.9238666E-009  0.2848347E+03  0.7561462E-02  0.1006822E+00
         22   -1    0    0    0    0  0.00000000000E+00  0.00000000000E+00  0.13544484477E+04  0.13544484477E+04  0.00000000000E+00 0. -1.
         22   -1    0    0    0    0 -0.00000000000E+00 -0.00000000000E+00 -0.51215617856E+03  0.51215617856E+03  0.00000000000E+00 0. -1.
        -24    2    1    2    0    0  0.68336910471E+02 -0.24501676175E+03 -0.37328176043E+03  0.45916965622E+03  0.82427869381E+02 0.  0.
         25    2    1    2    0    0 -0.42122667695E+02  0.26200229845E+03  0.13289127912E+03  0.32207120567E+03  0.12510094295E+03 0.  0.
         24    2    1    2    0    0 -0.26214242776E+02 -0.16985536697E+02  0.10826827505E+04  0.10853637644E+04  0.69547594535E+02 0.  0.
        -13    1    5    5    0    0 -0.43157105730E+02  0.42129550441E+01  0.44601241092E+03  0.44811533723E+03  0.00000000000E+00 0.  1.
         14    1    5    5    0    0  0.16942862954E+02 -0.21198491741E+02  0.63667033953E+03  0.63724842714E+03  0.00000000000E+00 0. -1.
         13    1    3    3    0    0  0.78214044500E+02 -0.22285557189E+03 -0.36242255157E+03  0.43258773511E+03  0.00000000000E+00 0. -1.
        -14    1    3    3    0    0 -0.98771340297E+01 -0.22161189860E+02 -0.10859208852E+02  0.26581921104E+02  0.00000000000E+00 0.  1.
          5    1    4    4  501    0 -0.21859041558E+02  0.15180332510E+03  0.14268500042E+03  0.20951980564E+03  0.41800000000E+01 0. -1.
         -5    1    4    4    0  501 -0.20263626137E+02  0.11019897335E+03 -0.97937213003E+01  0.11255140003E+03  0.41800000000E+01 0. -1.
</event>
<event>
11    1  0.9238666E-009  0.1461501E+03  0.7561462E-02  0.1100879E+00
         22   -1    0    0    0    0  0.00000000000E+00  0.00000000000E+00  0.64745476299E+03  0.64745476299E+03  0.00000000000E+00 0.  1.
         22   -1    0    0    0    0 -0.00000000000E+00 -0.00000000000E+00 -0.30627999443E+03  0.30627999443E+03  0.00000000000E+00 0. -1.
        -24    2    1    2    0    0  0.33479222389E+01  0.81508554865E+02 -0.23418748766E+03  0.26041731939E+03  0.79489293398E+02 0.  0.
         25    2    1    2    0    0 -0.21440176636E+02  0.79035747673E-01  0.23029834073E+02  0.12898718400E+03  0.12509049907E+03 0.  0.
         24    2    1    2    0    0  0.18092254397E+02 -0.81587590613E+02  0.55233242215E+03  0.56433025403E+03  0.80085369750E+02 0.  0.
        -13    1    5    5    0    0  0.15288241045E+02 -0.87699707416E+02  0.55008227816E+03  0.55723916028E+03  0.00000000000E+00 0.  1.
         14    1    5    5    0    0  0.28040133520E+01  0.61121168038E+01  0.22501439847E+01  0.70910937558E+01  0.00000000000E+00 0. -1.
         11    1    3    3    0    0  0.28680409824E+02  0.99555826887E+00 -0.73655270741E+02  0.79048440540E+02  0.00000000000E+00 0. -1.
        -12    1    3    3    0    0 -0.25332487585E+02  0.80512996596E+02 -0.16053221692E+03  0.18136887885E+03  0.00000000000E+00 0.  1.
          5    1    4    4  501    0  0.29567199275E+02  0.48087059473E+02  0.72845541607E+01  0.57071198437E+02  0.41800000000E+01 0.  1.
         -5    1    4    4    0  501 -0.51007375912E+02 -0.48008023725E+02  0.15745279912E+02  0.71915985559E+02  0.41800000000E+01 0.  1.
</event>
<event>
11    1  0.9238666E-009  0.1579483E+03  0.7561462E-02  0.1089023E+00
         22   -1    0    0    0    0  0.00000000000E+00  0.00000000000E+00  0.26852242767E+03  0.26852242767E+03  0.00000000000E+00 0. -1.
         22   -1    0    0    0    0 -0.00000000000E+00 -0.00000000000E+00 -0.69683360281E+03  0.69683360281E+03  0.00000000000E+00 0.  1.
         24    2    1    2    0    0 -0.32057501986E+02  0.38584991233E+02 -0.32952019268E+03  0.34306636302E+03  0.81206447226E+02 0.  0.
         25    2    1    2    0    0 -0.44783095801E+02 -0.96973452203E+02 -0.32438831179E+03  0.36371020877E+03  0.12509181841E+03 0.  0.
        -24    2    1    2    0    0  0.76840597787E+02  0.58388460970E+02  0.22559732933E+03  0.25857945869E+03  0.81581196463E+02 0.  0.
        -11    1    3    3    0    0  0.13441311181E+02  0.14089893879E+02 -0.23098078183E+03  0.23180016292E+03  0.00000000000E+00 0.  1.
         12    1    3    3    0    0 -0.45498813167E+02  0.24495097354E+02 -0.98539410847E+02  0.11126620010E+03  0.00000000000E+00 0. -1.
         11    1    5    5    0    0  0.85576186672E+02  0.50825579030E+02  0.22607499855E+03  0.24701503634E+03  0.00000000000E+00 0. -1.
        -12    1    5    5    0    0 -0.87355888851E+01  0.75628819407E+01 -0.47766922592E+00  0.11564422351E+02  0.00000000000E+00 0.  1.
          5    1    4    4  501    0 -0.65869974945E+02 -0.11010085719E+03 -0.20639621167E+03  0.24305950083E+03  0.41800000000E+01 0.  1.
         -5    1    4    4    0  501  0.21086879145E+02  0.13127404986E+02 -0.11799210013E+03  0.12065070794E+03  0.41800000000E+01 0.  1.
</event>
<event>
11    1  0.9238666E-009  0.1540589E+03  0.7561462E-02  0.1092802E+00
         22   -1    0    0    0    0  0.00000000000E+00  0.00000000000E+00  0.14413229556E+03  0.14413229556E+03  0.00000000000E+00 0.  1.
         22   -1    0    0    0    0 -0.00000000000E+00 -0.00000000000E+00 -0.22052710080E+04  0.22052710080E+04  0.00000000000E+00 0. -1.
         24    2    1    2    0    0  0.24382122999E+02  0.22192985260E+02 -0.10439513653E+04  0.10478076257E+04  0.83542509731E+02 0.  0.
         25    2    1    2    0    0 -0.31837371192E+02  0.67894556754E+02 -0.11275115372E+04  0.11369050009E+04  0.12508966981E+03 0.  0.
        -24    2    1    2    0    0  0.74552481935E+01 -0.90087542014E+02  0.11032419004E+03  0.16469067694E+03  0.82342250456E+02 0.  0.
        -13    1    3    3    0    0  0.35265713040E+02  0.17035970221E+02 -0.20153983142E+03  0.20531000571E+03  0.00000000000E+00 0.  1.
         14    1    3    3    0    0 -0.10883590041E+02  0.51570150382E+01 -0.84241153387E+03  0.84249762002E+03  0.00000000000E+00 0. -1.
         11    1    5    5    0    0 -0.81971516426E+00 -0.73849532154E+02  0.25810574858E+02  0.78234334578E+02  0.00000000000E+00 0. -1.
        -12    1    5    5    0    0  0.82749633578E+01 -0.16238009860E+02  0.84513615185E+02  0.86456342361E+02  0.00000000000E+00 0.  1.
          5    1    4    4  501    0 -0.24580421282E+02 -0.10309217153E+00 -0.87233615576E+03  0.87269241362E+03  0.41800000000E+01 0. -1.
         -5    1    4    4    0  501 -0.72569499108E+01  0.67997648926E+02 -0.25517538143E+03  0.26421258727E+03  0.41800000000E+01 0. -1.
</event>
<event>
11    1  0.9238666E-009  0.1373177E+03  0.7561462E-02  0.1110591E+00
         22   -1    0    0    0    0  0.00000000000E+00  0.00000000000E+00  0.13706573154E+04  0.13706573154E+04  0.00000000000E+00 0.  1.
         22   -1    0    0    0    0 -0.00000000000E+00 -0.00000000000E+00 -0.97735511300E+03  0.97735511300E+03  0.00000000000E+00 0.  1.
         24    2    1    2    0    0 -0.23846924782E+00 -0.11851672881E+02 -0.74682282265E+03  0.75109283370E+03  0.79092334523E+02 0.  0.
         25    2    1    2    0    0  0.40310931242E+01  0.68264011278E+02 -0.20415074240E+03  0.24900299476E+03  0.12509492727E+03 0.  0.
        -24    2    1    2    0    0 -0.37926238764E+01 -0.56412338397E+02  0.13442757675E+04  0.13479166000E+04  0.81271677252E+02 0.  0.
        -11    1    3    3    0    0  0.20164203327E+02  0.28305112869E+02 -0.35045436589E+03  0.35217330547E+03  0.00000000000E+00 0.  1.
         12    1    3    3    0    0 -0.20402672575E+02 -0.40156785750E+02 -0.39636845676E+03  0.39891952823E+03  0.00000000000E+00 0. -1.
         13    1    5    5    0    0 -0.24862531603E+02  0.10494436391E+02  0.26728964339E+03  0.26864852900E+03  0.00000000000E+00 0. -1.
        -14    1    5    5    0    0  0.21069907727E+02 -0.66906774788E+02  0.10769861241E+04  0.10792680710E+04  0.00000000000E+00 0.  1.
          5    1    4    4  501    0 -0.10562955743E+02  0.10630800858E+01  0.15246554121E+02  0.19043003593E+02  0.41800000000E+01 0.  1.
         -5    1    4    4    0  501  0.14594048867E+02  0.67200931192E+02 -0.21939729652E+03  0.22995999117E+03  0.41800000000E+01 0.  1.
</event>
<event>
11    1  0.9238666E-009  0.1587573E+03  0.7561462E-02  0.1088252E+00
         22   -1    0    0    0    0  0.00000000000E+00  0.00000000000E+00  0.13518563382E+04  0.13518563382E+04  0.00000000000E+00 0.  1.
         22   -1    0    0    0    0 -0.00000000000E+00 -0.00000000000E+00 -0.44381468589E+03  0.44381468589E+03  0.00000000000E+00 0. -1.
        -24    2    1    2    0    0  0.41541202950E+02 -0.27769629189E+02 -0.41957300642E+03  0.43059205065E+03  0.82892596309E+02 0.  0.
         25    2    1    2    0    0 -0.10405029123E+03 -0.44352291223E+02  0.49015111367E+03  0.51835352019E+03  0.12509463945E+03 0.  0.
         24    2    1    2    0    0  0.62509088285E+02  0.72121920412E+02  0.83746354508E+03  0.84672545328E+03  0.80559582696E+02 0.  0.
        -11    1    5    5    0    0  0.32489595349E+02  0.83646817637E+02  0.52522433293E+03  0.53283483727E+03  0.00000000000E+00 0.  1.
         12    1    5    5    0    0  0.30019492936E+02 -0.11524897225E+02  0.31223921215E+03  0.31389061601E+03  0.00000000000E+00 0. -1.
         13    1    3    3    0    0  0.71211602003E+01  0.28668514732E+02 -0.16200706449E+03  0.16467812121E+03  0.00000000000E+00 0. -1.
        -14    1    3    3    0    0  0.34420042750E+02 -0.56438143921E+02 -0.25756594193E+03  0.26591392945E+03  0.00000000000E+00 0.  1.
          5    1    4    4  501    0 -0.73648990864E+02  0.32048613901E+02  0.17453258287E+03  0.19217279306E+03  0.41800000000E+01 0.  1.
         -5    1    4    4    0  501 -0.30401300371E+02 -0.76400905124E+02  0.31561853080E+03  0.32618072713E+03  0.41800000000E+01 0.  1.
</event>
<event>
11    1  0.9238666E-009  0.1498620E+03  0.7561462E-02  0.1097020E+00
         22   -1    0    0    0    0  0.00000000000E+00  0.00000000000E+00  0.21902530860E+03  0.21902530860E+03  0.00000000000E+00 0.  1.
         22   -1    0    0    0    0 -0.00000000000E+00 -0.00000000000E+00 -0.19404170883E+04  0.19404170883E+04  0.00000000000E+00 0. -1.
         24    2    1    2    0    0  0.30543154208E+02 -0.29457083210E+02 -0.79471838523E+03  0.79975881983E+03  0.78969956697E+02 0.  0.
         25    2    1    2    0    0 -0.59198628197E+02 -0.48180695240E+02 -0.11227611235E+04  0.11322837890E+04  0.12509269138E+03 0.  0.
        -24    2    1    2    0    0  0.28655473989E+02  0.77637778450E+02  0.19608772898E+03  0.22739978810E+03  0.80071876079E+02 0.  0.
        -13    1    3    3    0    0  0.42861512586E+00 -0.49452396646E+02 -0.33621455870E+03  0.33983224203E+03  0.00000000000E+00 0.  1.
         14    1    3    3    0    0  0.30114539082E+02  0.19995313436E+02 -0.45850382653E+03  0.45992657780E+03  0.00000000000E+00 0. -1.
         13    1    5    5    0    0 -0.31157735333E+01  0.97258936343E+01 -0.60048734285E+01  0.11847343862E+02  0.00000000000E+00 0. -1.
        -14    1    5    5    0    0  0.31771247522E+02  0.67911884815E+02  0.20209260241E+03  0.21555244424E+03  0.00000000000E+00 0.  1.
          5    1    4    4  501    0 -0.90209811580E+02 -0.61948048297E+02 -0.93952588294E+03  0.94588674159E+03  0.41800000000E+01 0.  1.
         -5    1    4    4    0  501  0.31011183383E+02  0.13767353058E+02 -0.18323524051E+03  0.18639704737E+03  0.41800000000E+01 0.  1.
</event>
<event>
11    1  0.9238666E-009  0.2075473E+03  0.7561462E-02  0.1049311E+00
         22   -1    0    0    0    0  0.00000000000E+00  0.00000000000E+00  0.97377024638E+03  0.97377024638E+03  0.00000000000E+00 0. -1.
         22   -1    0    0    0    0 -0.00000000000E+00 -0.00000000000E+00 -0.18197466705E+03  0.18197466705E+03  0.00000000000E+00 0.  1.
         24    2    1    2    0    0  0.21133398616E+02  0.20179049205E+02 -0.78944734568E+02  0.11663820308E+03  0.80736514283E+02 0.  0.
         25    2    1    2    0    0  0.52885757403E+01  0.14621483535E+03  0.51853373822E+02  0.19935817187E+03  0.12509261052E+03 0.  0.
        -24    2    1    2    0    0 -0.26421974357E+02 -0.16639388455E+03  0.81888694008E+03  0.83974853847E+03  0.78846316871E+02 0.  0.
        -13    1    3    3    0    0 -0.22421146146E+02  0.45986398893E+01 -0.64089807309E+02  0.68054086462E+02  0.00000000000E+00 0.  1.
         14    1    3    3    0    0  0.43554544763E+02  0.15580409315E+02 -0.14854927259E+02  0.48584116621E+02  0.00000000000E+00 0. -1.
         13    1    5    5    0    0 -0.46109189595E+02 -0.90967513977E+02  0.35506769687E+03  0.36942416722E+03  0.00000000000E+00 0. -1.
        -14    1    5    5    0    0  0.19687215238E+02 -0.75426370577E+02  0.46381924321E+03  0.47032437125E+03  0.00000000000E+00 0.  1.
          5    1    4    4  501    0  0.57968268503E+02  0.10238966054E+03  0.56416079573E+02  0.13055347247E+03  0.41800000000E+01 0.  1.
         -5    1    4    4    0  501 -0.52679692763E+02  0.43825174809E+02 -0.45627057510E+01  0.68804699406E+02  0.41800000000E+01 0.  1.
</event>
<event>
11    1  0.9238666E-009  0.2112438E+03  0.7561462E-02  0.1046846E+00
         22   -1    0    0    0    0  0.00000000000E+00  0.00000000000E+00  0.38527977287E+03  0.38527977287E+03  0.00000000000E+00 0.  1.
         22   -1    0    0    0    0 -0.00000000000E+00 -0.00000000000E+00 -0.19285587367E+04  0.19285587367E+04  0.00000000000E+00 0.  1.
         24    2    1    2    0    0 -0.19085275483E+02 -0.78916848695E+00 -0.17043606908E+04  0.17063612244E+04  0.80364128952E+02 0.  0.
         25    2    1    2    0    0 -0.50297118511E+02  0.15714865502E+03 -0.14148958986E+03  0.25078347937E+03  0.12509016580E+03 0.  0.
        -24    2    1    2    0    0  0.69382393994E+02 -0.15635948653E+03  0.30257131682E+03  0.35669380583E+03  0.80117811588E+02 0.  0.
        -13    1    3    3    0    0 -0.99028571116E+01 -0.25171722206E+02 -0.15122419126E+04  0.15124838129E+04  0.00000000000E+00 0.  1.
         14    1    3    3    0    0 -0.91824183714E+01  0.24382553719E+02 -0.19211877819E+03  0.19387741144E+03  0.00000000000E+00 0. -1.
         13    1    5    5    0    0  0.57332963175E+01 -0.14366097320E+01 -0.41502793636E+01  0.72221432402E+01  0.00000000000E+00 0. -1.
        -14    1    5    5    0    0  0.63649097676E+02 -0.15492287680E+03  0.30672159618E+03  0.34947166259E+03  0.00000000000E+00 0.  1.
          5    1    4    4  501    0 -0.16809022531E+02  0.18994728796E+02 -0.99106614860E+02  0.10238621230E+03  0.41800000000E+01 0. -1.
         -5    1    4    4    0  501 -0.33488095980E+02  0.13815392622E+03 -0.42382975000E+02  0.14839726706E+03  0.41800000000E+01 0. -1.
</event>
<event>
11    1  0.9238666E-009  0.1504400E+03  0.7561462E-02  0.1096430E+00
         22   -1    0    0    0    0  0.00000000000E+00  0.00000000000E+00  0.36476428380E+03  0.36476428380E+03  0.00000000000E+00 0. -1.
         22   -1    0    0    0    0 -0.00000000000E+00 -0.00000000000E+00 -0.13621567628E+04  0.13621567628E+04  0.00000000000E+00 0.  1.
        -24    2    1    2    0    0 -0.52892639843E+00  0.60140337628E+02 -0.91950474337E+03  0.92371852243E+03  0.64418907344E+02 0.  0.
         25    2    1    2    0    0  0.23330931709E+02 -0.13921231220E+03 -0.41019558842E+03  0.45147848538E+03  0.12509197323E+03 0.  0.
         24    2    1    2    0    0 -0.22802005311E+02  0.79071974571E+02  0.33230785282E+03  0.35172403874E+03  0.80678260841E+02 0.  0.
        -13    1    5    5    0    0 -0.23535460939E+01  0.33859613208E+02  0.29780278355E+02  0.45153931885E+02  0.00000000000E+00 0.  1.
         14    1    5    5    0    0 -0.20448459217E+02  0.45212361363E+02  0.30252757447E+03  0.30657010686E+03  0.00000000000E+00 0. -1.
         11    1    3    3    0    0 -0.24350943608E+01 -0.60473398868E+01 -0.39459971029E+03  0.39465355866E+03  0.00000000000E+00 0. -1.
        -12    1    3    3    0    0  0.19061679624E+01  0.66187677515E+02 -0.52490503308E+03  0.52906496377E+03  0.00000000000E+00 0.  1.
          5    1    4    4  501    0  0.61123413309E+02 -0.13308261937E+03 -0.28439063510E+03  0.31991023892E+03  0.41800000000E+01 0.  1.
         -5    1    4    4    0  501 -0.37792481599E+02 -0.61296928329E+01 -0.12580495331E+03  0.13156824646E+03  0.41800000000E+01 0.  1.
</event>
<event>
11    1  0.9238666E-009  0.1341514E+03  0.7561462E-02  0.1114271E+00
         22   -1    0    0    0    0  0.00000000000E+00  0.00000000000E+00  0.13888386508E+04  0.13888386508E+04  0.00000000000E+00 0. -1.
         22   -1    0    0    0    0 -0.00000000000E+00 -0.00000000000E+00 -0.38359043174E+02  0.38359043174E+02  0.00000000000E+00 0.  1.
         24    2    1    2    0    0 -0.90039188601E+01  0.44351686063E+02  0.64253100431E+02  0.11168285509E+03  0.79350214838E+02 0.  0.
         25    2    1    2    0    0  0.44304805839E+02 -0.54043420273E+02  0.40057196240E+03  0.42542457398E+03  0.12507823147E+03 0.  0.
        -24    2    1    2    0    0 -0.35300886979E+02  0.96917342103E+01  0.88565454477E+03  0.89009026488E+03  0.80849394735E+02 0.  0.
        -13    1    3    3    0    0 -0.10350023173E+02  0.33441920006E+02 -0.10168464255E+02  0.36453842852E+02  0.00000000000E+00 0.  1.
         14    1    3    3    0    0  0.13461043130E+01  0.10909766057E+02  0.74421564686E+02  0.75229012239E+02  0.00000000000E+00 0. -1.
         11    1    5    5    0    0  0.13588041401E+02  0.23136197353E+02  0.54734202923E+03  0.54799928417E+03  0.00000000000E+00 0. -1.
        -12    1    5    5    0    0 -0.48888928380E+02 -0.13444463142E+02  0.33831251554E+03  0.34209098071E+03  0.00000000000E+00 0.  1.
          5    1    4    4  501    0 -0.33096313708E+02  0.14172832714E+02  0.15195428544E+03  0.15621719634E+03  0.41800000000E+01 0. -1.
         -5    1    4    4    0  501  0.77401119547E+02 -0.68216252987E+02  0.24861767696E+03  0.26920737764E+03  0.41800000000E+01 0. -1.
</event>
<event>
11    1  0.9238666E-009  0.1906253E+03  0.7561462E-02  0.1061358E+00
         22   -1    0    0    0    0  0.00000000000E+00  0.00000000000E+00  0.12682826179E+04  0.12682826179E+04  0.00000000000E+00 0. -1.
         22   -1    0    0    0    0 -0.00000000000E+00 -0.00000000000E+00 -0.82574984481E+03  0.82574984481E+03  0.00000000000E+00 0.  1.
        -24    2    1    2    0    0  0.61720400980E+02  0.41957232560E+02 -0.74727527010E+03  0.75469761575E+03  0.74688316690E+02 0.  0.
         25    2    1    2    0    0  0.48598194703E+02  0.59753438582E+02  0.10308211264E+02  0.14725862435E+03  0.12508631130E+03 0.  0.
         24    2    1    2    0    0 -0.11031859568E+03 -0.10171067114E+03  0.11794998319E+04  0.11920762226E+04  0.85502127650E+02 0.  0.
        -11    1    5    5    0    0  0.34998144576E+01  0.11566139358E+02  0.76498742161E+02  0.77447284220E+02  0.00000000000E+00 0.  1.
         12    1    5    5    0    0 -0.11381841014E+03 -0.11327681050E+03  0.11030010897E+04  0.11146289384E+04  0.00000000000E+00 0. -1.
         13    1    3    3    0    0  0.41034203038E+02 -0.12143337021E+02 -0.43469890124E+03  0.43680018451E+03  0.00000000000E+00 0. -1.
        -14    1    3    3    0    0  0.20686197943E+02  0.54100569581E+02 -0.31257636886E+03  0.31789743123E+03  0.00000000000E+00 0.  1.
          5    1    4    4  501    0 -0.27757011907E+02 -0.20142973455E+02  0.12223636735E+02  0.36648066587E+02  0.41800000000E+01 0. -1.
         -5    1    4    4    0  501  0.76355206610E+02  0.79896412036E+02 -0.19154254703E+01  0.11061055776E+03  0.41800000000E+01 0. -1.
</event>
<event>
11    1  0.9238666E-009  0.3180425E+03  0.7561462E-02  0.9928317E-01
         22   -1    0    0    0    0  0.00000000000E+00  0.00000000000E+00  0.14433033358E+03  0.14433033358E+03  0.00000000000E+00 0.  1.
         22   -1    0    0    0    0 -0.00000000000E+00 -0.00000000000E+00 -0.11780112614E+04  0.11780112614E+04  0.00000000000E+00 0. -1.
        -24    2    1    2    0    0  0.12019553565E+03  0.26129939262E+02 -0.27701638466E+03  0.31412232926E+03  0.82492544214E+02 0.  0.
         25    2    1    2    0    0 -0.26837101927E+03  0.17640417889E+03 -0.21630732766E+03  0.40691437311E+03  0.12509599807E+03 0.  0.
         24    2    1    2    0    0  0.14817548362E+03 -0.20253411815E+03 -0.54035721547E+03  0.60130489258E+03  0.81274907359E+02 0.  0.
        -13    1    5    5    0    0  0.70321075757E+02 -0.12776257514E+03 -0.22636311237E+03  0.26927418730E+03  0.00000000000E+00 0.  1.
         14    1    5    5    0    0  0.77854407862E+02 -0.74771543011E+02 -0.31399410310E+03  0.33203070528E+03  0.00000000000E+00 0. -1.
         11    1    3    3    0    0  0.83725347519E+02 -0.20233022045E+02 -0.19420458800E+03  0.21244936102E+03  0.00000000000E+00 0. -1.
        -12    1    3    3    0    0  0.36470188129E+02  0.46362961307E+02 -0.82811796663E+02  0.10167296824E+03  0.00000000000E+00 0.  1.
          5    1    4    4  501    0 -0.50230678166E+02  0.53130267082E+01 -0.87663963397E+02  0.10126101007E+03  0.41800000000E+01 0. -1.
         -5    1    4    4    0  501 -0.21814034110E+03  0.17109115218E+03 -0.12864336426E+03  0.30565336304E+03  0.41800000000E+01 0. -1.
</event>
<event>
11    1  0.9238666E-009  0.2088636E+03  0.7561462E-02  0.1048427E+00
         22   -1    0    0    0    0  0.00000000000E+00  0.00000000000E+00  0.13779437775E+03  0.13779437775E+03  0.00000000000E+00 0.  1.
         22   -1    0    0    0    0 -0.00000000000E+00 -0.00000000000E+00 -0.19490282291E+04  0.19490282291E+04  0.00000000000E+00 0. -1.
         24    2    1    2    0    0  0.91643661980E+02 -0.44253254297E+02 -0.15362332149E+04  0.15417044040E+04  0.80517498597E+02 0.  0.
         25    2    1    2    0    0 -0.23862891178E+03  0.26269936419E+02 -0.26303420747E+03  0.37744877092E+03  0.12508682294E+03 0.  0.
        -24    2    1    2    0    0  0.14698524980E+03  0.17983317877E+02 -0.11966429033E+02  0.16766943194E+03  0.77728885259E+02 0.  0.
        -13    1    3    3    0    0 -0.34313038840E+01 -0.14371589139E+02 -0.50101534109E+02  0.52234855612E+02  0.00000000000E+00 0.  1.
         14    1    3    3    0    0  0.95074965864E+02 -0.29881665157E+02 -0.14861316808E+04  0.14894695484E+04  0.00000000000E+00 0. -1.
         11    1    5    5    0    0 -0.86776104214E+01  0.57591821020E+01  0.29278371231E+01  0.10818564199E+02  0.00000000000E+00 0. -1.
        -12    1    5    5    0    0  0.15566286022E+03  0.12224135775E+02 -0.14894266156E+02  0.15685086774E+03  0.00000000000E+00 0.  1.
          5    1    4    4  501    0 -0.98046256653E+02 -0.29315518742E+02 -0.17414094665E+03  0.20202725010E+03  0.41800000000E+01 0. -1.
         -5    1    4    4    0  501 -0.14058265512E+03  0.55585455162E+02 -0.88893260816E+02  0.17542152082E+03  0.41800000000E+01 0. -1.
</event>
<event>
11    1  0.9238666E-009  0.1558194E+03  0.7561462E-02  0.1091077E+00
         22   -1    0    0    0    0  0.00000000000E+00  0.00000000000E+00  0.21921314069E+04  0.21921314069E+04  0.00000000000E+00 0. -1.
         22   -1    0    0    0    0 -0.00000000000E+00 -0.00000000000E+00 -0.35931895390E+03  0.35931895390E+03  0.00000000000E+00 0.  1.
        -24    2    1    2    0    0 -0.55639465673E+01 -0.92765755857E+02 -0.32504629059E+03  0.34761366898E+03  0.80893317870E+02 0.  0.
         25    2    1    2    0    0  0.75826680602E+02  0.87308971387E+02  0.31712757789E+03  0.35998324758E+03  0.12508195675E+03 0.  0.
         24    2    1    2    0    0 -0.70262734034E+02  0.54567844703E+01  0.18407311657E+04  0.18438534443E+04  0.80855866868E+02 0.  0.
        -13    1    5    5    0    0  0.11292959272E+02  0.12899594116E+02  0.12516417163E+03  0.12633289484E+03  0.00000000000E+00 0.  1.
         14    1    5    5    0    0 -0.81555693306E+02 -0.74428096453E+01  0.17155669941E+04  0.17175205494E+04  0.00000000000E+00 0. -1.
         11    1    3    3    0    0  0.26554926491E+02 -0.72844318069E+01 -0.42174845441E+02  0.50368091642E+02  0.00000000000E+00 0. -1.
        -12    1    3    3    0    0 -0.32118873058E+02 -0.85481324050E+02 -0.28287144515E+03  0.29724557734E+03  0.00000000000E+00 0.  1.
          5    1    4    4  501    0  0.85710753531E+02  0.10209931138E+02  0.11863729951E+03  0.14677485207E+03  0.41800000000E+01 0. -1.
         -5    1    4    4    0  501 -0.98840729289E+01  0.77099040249E+02  0.19849027838E+03  0.21320839551E+03  0.41800000000E+01 0. -1.
</event>
<event>
11    1  0.9238666E-009  0.1454482E+03  0.7561462E-02  0.1101623E+00
         22   -1    0    0    0    0  0.00000000000E+00  0.00000000000E+00  0.18473131372E+04  0.18473131372E+04  0.00000000000E+00 0. -1.
         22   -1    0    0    0    0 -0.00000000000E+00 -0.00000000000E+00 -0.30595531244E+03  0.30595531244E+03  0.00000000000E+00 0. -1.
        -24    2    1    2    0    0 -0.27664038385E+02  0.22081185880E-01 -0.28488049458E+03  0.29694330566E+03  0.79076741677E+02 0.  0.
         25    2    1    2    0    0 -0.43086058042E+02  0.31892908429E+02  0.34303806522E+03  0.36904782244E+03  0.12509042749E+03 0.  0.
         24    2    1    2    0    0  0.70750096427E+02 -0.31914989615E+02  0.14832002541E+04  0.14872773216E+04  0.78017271415E+02 0.  0.
        -11    1    5    5    0    0  0.39090319815E+02  0.21167861538E+02  0.43766766575E+03  0.43991944388E+03  0.00000000000E+00 0.  1.
         12    1    5    5    0    0  0.31659776612E+02 -0.53082851153E+02  0.10455325884E+04  0.10473578777E+04  0.00000000000E+00 0. -1.
         11    1    3    3    0    0 -0.38090570168E+01 -0.35415552754E+02 -0.18358293991E+03  0.18700659378E+03  0.00000000000E+00 0. -1.
        -12    1    3    3    0    0 -0.23854981368E+02  0.35437633940E+02 -0.10129755467E+03  0.10993671188E+03  0.00000000000E+00 0.  1.
          5    1    4    4  501    0 -0.99233317734E+01  0.55729196732E+02  0.58305602881E+02  0.81370950647E+02  0.41800000000E+01 0. -1.
         -5    1    4    4    0  501 -0.33162726269E+02 -0.23836288303E+02  0.28473246234E+03  0.28767687179E+03  0.41800000000E+01 0. -1.
</event>
<event>
11    1  0.9238666E-009  0.1335001E+03  0.7561462E-02  0.1115042E+00
         22   -1    0    0    0    0  0.00000000000E+00  0.00000000000E+00  0.12207855051E+04  0.12207855051E+04  0.00000000000E+00 0.  1.
         22   -1    0    0    0    0 -0.00000000000E+00 -0.00000000000E+00 -0.37027597122E+02  0.37027597122E+02  0.00000000000E+00 0. -1.
         24    2    1    2    0    0  0.31965673741E+02  0.37658496712E+02  0.65080201714E+02  0.11507936810E+03  0.81042344708E+02 0.  0.
         25    2    1    2    0    0 -0.17454414903E+02 -0.28762259995E+02  0.42683418856E+03  0.44605664240E+03  0.12508868655E+03 0.  0.
        -24    2    1    2    0    0 -0.14511258837E+02 -0.88962367175E+01  0.69184351769E+03  0.69667709170E+03  0.80136118444E+02 0.  0.
        -11    1    3    3    0    0  0.14683449228E+02  0.26424382013E+02  0.82643543485E+02  0.87998902980E+02  0.00000000000E+00 0.  1.
         12    1    3    3    0    0  0.17282224512E+02  0.11234114700E+02 -0.17563341770E+02  0.27080465124E+02  0.00000000000E+00 0. -1.
         13    1    5    5    0    0  0.12073853614E+02  0.30937441082E+02  0.23608934332E+03  0.23841367668E+03  0.00000000000E+00 0. -1.
        -14    1    5    5    0    0 -0.26585112452E+02 -0.39833677799E+02  0.45575417437E+03  0.45826341502E+03  0.00000000000E+00 0.  1.
          5    1    4    4  501    0 -0.10686893098E+02 -0.53167490212E+02  0.41362980193E+03  0.41719069638E+03  0.41800000000E+01 0.  1.
         -5    1    4    4    0  501 -0.67675218047E+01  0.24405230218E+02  0.13204386630E+02  0.28865946020E+02  0.41800000000E+01 0.  1.
</event>
<event>
11    1  0.9238666E-009  0.1307108E+03  0.7561462E-02  0.1118399E+00
         22   -1    0    0    0    0  0.00000000000E+00  0.00000000000E+00  0.15486895871E+03  0.15486895871E+03  0.00000000000E+00 0.  1.
         22   -1    0    0    0    0 -0.00000000000E+00 -0.00000000000E+00 -0.85131038805E+03  0.85131038805E+03  0.00000000000E+00 0. -1.
         24    2    1    2    0    0  0.36295415617E+02  0.12318520046E+02 -0.64224283564E+03  0.64837551406E+03  0.80286014838E+02 0.  0.
         25    2    1    2    0    0 -0.35006302717E+02 -0.58104863947E+01 -0.17366205937E+03  0.21694411970E+03  0.12508811785E+03 0.  0.
        -24    2    1    2    0    0 -0.12891129002E+01 -0.65080336513E+01  0.11946346566E+03  0.14085971299E+03  0.74336550926E+02 0.  0.
        -13    1    3    3    0    0 -0.83235134125E+01  0.26335596617E+02 -0.89676466799E+02  0.93833433392E+02  0.00000000000E+00 0.  1.
         14    1    3    3    0    0  0.44618929029E+02 -0.14017076571E+02 -0.55256636884E+03  0.55454208067E+03  0.00000000000E+00 0. -1.
         13    1    5    5    0    0 -0.35658802119E+01  0.24793655972E+02  0.99748588305E+01  0.26961800512E+02  0.00000000000E+00 0. -1.
        -14    1    5    5    0    0  0.22767673117E+01 -0.31301689624E+02  0.10948860683E+03  0.11389791248E+03  0.00000000000E+00 0.  1.
          5    1    4    4  501    0 -0.33720702930E+02  0.49287180373E+02 -0.13991736104E+03  0.15218624208E+03  0.41800000000E+01 0.  1.
         -5    1    4    4    0  501 -0.12855997864E+01 -0.55097666767E+02 -0.33744698323E+02  0.64757877628E+02  0.41800000000E+01 0.  1.
</event>
<event>
11    1  0.9238666E-009  0.1264454E+03  0.7561462E-02  0.1123715E+00
         22   -1    0    0    0    0  0.00000000000E+00  0.00000000000E+00  0.73092838980E+03  0.73092838980E+03  0.00000000000E+00 0.  1.
         22   -1    0    0    0    0 -0.00000000000E+00 -0.00000000000E+00 -0.15994551807E+03  0.15994551807E+03  0.00000000000E+00 0.  1.
        -24    2    1    2    0    0  0.17656083827E+02 -0.25578733401E+01 -0.12426500426E+03  0.14996002314E+03  0.82024004083E+02 0.  0.
         25    2    1    2    0    0 -0.27001468475E+02  0.14774075527E+02  0.19285759295E+03  0.23192328043E+03  0.12508798599E+03 0.  0.
         24    2    1    2    0    0  0.93453846479E+01 -0.12216202187E+02  0.50239028304E+03  0.50899060430E+03  0.80242550812E+02 0.  0.
        -11    1    5    5    0    0  0.10684310888E+02 -0.10857460592E+02  0.50529007105E+03  0.50551962855E+03  0.00000000000E+00 0.  1.
         12    1    5    5    0    0 -0.13389262401E+01 -0.13587415946E+01 -0.28997880045E+01  0.34709757516E+01  0.00000000000E+00 0. -1.
         11    1    3    3    0    0  0.20421440589E+01  0.29907647552E+02 -0.12405889323E+02  0.32442931808E+02  0.00000000000E+00 0. -1.
        -12    1    3    3    0    0  0.15613939768E+02 -0.32465520892E+02 -0.11185911493E+03  0.11751709133E+03  0.00000000000E+00 0.  1.
          5    1    4    4  501    0  0.23410529464E+02  0.45541436584E+02  0.15076516436E+03  0.15927863171E+03  0.41800000000E+01 0. -1.
         -5    1    4    4    0  501 -0.50411997939E+02 -0.30767361057E+02  0.42092428587E+02  0.72644648716E+02  0.41800000000E+01 0. -1.
</event>
<event>
11    1  0.9238666E-009  0.1909812E+03  0.7561462E-02  0.1061091E+00
         22   -1    0    0    0    0  0.00000000000E+00  0.00000000000E+00  0.29708279463E+03  0.29708279463E+03  0.00000000000E+00 0.  1.
         22   -1    0    0    0    0 -0.00000000000E+00 -0.00000000000E+00 -0.22136876436E+04  0.22136876436E+04  0.00000000000E+00 0. -1.
        -24    2    1    2    0    0 -0.95506932640E+02 -0.11011849367E+03 -0.20314039099E+04  0.20381738512E+04  0.79392352706E+02 0.  0.
         25    2    1    2    0    0  0.10831430462E+03  0.69811121059E+02 -0.12295877349E+03  0.21765045731E+03  0.12508908977E+03 0.  0.
         24    2    1    2    0    0 -0.12807371978E+02  0.40307372610E+02  0.23775783440E+03  0.25494612975E+03  0.81731439435E+02 0.  0.
        -11    1    5    5    0    0 -0.33621313875E+02  0.28343854262E+02  0.22180431716E+03  0.22612147605E+03  0.00000000000E+00 0.  1.
         12    1    5    5    0    0  0.20813941898E+02  0.11963518348E+02  0.15953517245E+02  0.28824653703E+02  0.00000000000E+00 0. -1.
         11    1    3    3    0    0 -0.87211940973E+02 -0.65112529127E+02 -0.17182640820E+04  0.17217075883E+04  0.00000000000E+00 0. -1.
        -12    1    3    3    0    0 -0.82949916674E+01 -0.45005964542E+02 -0.31313982788E+03  0.31646626287E+03  0.00000000000E+00 0.  1.
          5    1    4    4  501    0  0.42197866625E+02 -0.77385354281E+00 -0.11256495875E+03  0.12028965515E+03  0.41800000000E+01 0. -1.
         -5    1    4    4    0  501  0.66116437993E+02  0.70584974602E+02 -0.10393814741E+02  0.97360802160E+02  0.41800000000E+01 0. -1.
</event>
<event>
11    1  0.9238666E-009  0.1553696E+03  0.7561462E-02  0.1091515E+00
         22   -1    0    0    0    0  0.00000000000E+00  0.00000000000E+00  0.48638974070E+03  0.48638974070E+03  0.00000000000E+00 0. -1.
         22   -1    0    0    0    0 -0.00000000000E+00 -0.00000000000E+00 -0.81768758966E+03  0.81768758966E+03  0.00000000000E+00 0.  1.
         24    2    1    2    0    0 -0.52469144206E+01  0.26572833124E+02 -0.72092370899E+03  0.72607389547E+03  0.81967444264E+02 0.  0.
         25    2    1    2    0    0 -0.79056475342E+02  0.14063144050E+02 -0.21252057466E+02  0.15016286494E+03  0.12509811248E+03 0.  0.
        -24    2    1    2    0    0  0.84303389763E+02 -0.40635977174E+02  0.41087791750E+03  0.42784056995E+03  0.73949618277E+02 0.  0.
        -11    1    3    3    0    0  0.25228426004E+02  0.42554303998E+02 -0.33709377962E+03  0.34070450324E+03  0.00000000000E+00 0.  1.
         12    1    3    3    0    0 -0.30475340424E+02 -0.15981470875E+02 -0.38382992937E+03  0.38536939223E+03  0.00000000000E+00 0. -1.
         11    1    5    5    0    0 -0.66234546025E+01 -0.12103201636E+01  0.12666443254E+03  0.12684326351E+03  0.00000000000E+00 0. -1.
        -12    1    5    5    0    0  0.90926844365E+02 -0.39425657010E+02  0.28421348496E+03  0.30099730645E+03  0.00000000000E+00 0.  1.
          5    1    4    4  501    0 -0.79852392847E+02 -0.35695013753E+02 -0.40708253256E+02  0.96566934990E+02  0.41800000000E+01 0. -1.
         -5    1    4    4    0  501  0.79591750491E+00  0.49758157803E+02  0.19456195790E+02  0.53595929950E+02  0.41800000000E+01 0. -1.
</event>
<event>
11    1  0.9238666E-009  0.1652603E+03  0.7561462E-02  0.1082232E+00
         22   -1    0    0    0    0  0.00000000000E+00  0.00000000000E+00  0.79413793790E+03  0.79413793790E+03  0.00000000000E+00 0.  1.
         22   -1    0    0    0    0 -0.00000000000E+00 -0.00000000000E+00 -0.86655308086E+02  0.86655308086E+02  0.00000000000E+00 0.  1.
        -24    2    1    2    0    0  0.11522392339E+03  0.51318503318E+02  0.96775053772E+02  0.17787562472E+03  0.79775845539E+02 0.  0.
         25    2    1    2    0    0 -0.76607292382E+02 -0.47094373864E+02  0.98070775145E+02  0.18262447078E+03  0.12508902068E+03 0.  0.
         24    2    1    2    0    0 -0.38616631011E+02 -0.42241294536E+01  0.51263680090E+03  0.52029315049E+03  0.79996158366E+02 0.  0.
        -11    1    5    5    0    0 -0.39700167881E+02 -0.38098575841E+02  0.32172376555E+03  0.32639513803E+03  0.00000000000E+00 0.  1.
         12    1    5    5    0    0  0.10835368700E+01  0.33874446387E+02  0.19091303535E+03  0.19389801246E+03  0.00000000000E+00 0. -1.
         11    1    3    3    0    0  0.95007177352E+02  0.29046756827E+02  0.10709056877E+03  0.14607692409E+03  0.00000000000E+00 0. -1.
        -12    1    3    3    0    0  0.20216746041E+02  0.22271746491E+02 -0.10315514999E+02  0.31798700633E+02  0.00000000000E+00 0.  1.
          5    1    4    4  501    0 -0.69651163737E+02 -0.78991907379E+02  0.10523595184E+03  0.14893986707E+03  0.41800000000E+01 0. -1.
         -5    1    4    4    0  501 -0.69561286443E+01  0.31897533515E+02 -0.71651766989E+01  0.33684603711E+02  0.41800000000E+01 0. -1.
</event>
<event>
11    1  0.9238666E-009  0.1371188E+03  0.7561462E-02  0.1110819E+00
         22   -1    0    0    0    0  0.00000000000E+00  0.00000000000E+00  0.21180842041E+04  0.21180842041E+04  0.00000000000E+00 0.  1.
         22   -1    0    0    0    0 -0.00000000000E+00 -0.00000000000E+00 -0.64093719872E+02  0.64093719872E+02  0.00000000000E+00 0. -1.
         24    2    1    2    0    0  0.22306514067E+02 -0.51466461312E+02  0.19170631321E+02  0.10100860521E+03  0.81785377742E+02 0.  0.
         25    2    1    2    0    0  0.10638357811E+01  0.60590991002E+02  0.19642997732E+03  0.24063527994E+03  0.12509277367E+03 0.  0.
        -24    2    1    2    0    0 -0.23370349848E+02 -0.91245296899E+01  0.18383898756E+04  0.18405340389E+04  0.85198492301E+02 0.  0.
        -11    1    3    3    0    0  0.35033619414E+02  0.50428544840E+01  0.24183128085E+02  0.42867336686E+02  0.00000000000E+00 0.  1.
         12    1    3    3    0    0 -0.12727105347E+02 -0.56509315796E+02 -0.50124967645E+01  0.58141268528E+02  0.00000000000E+00 0. -1.
         13    1    5    5    0    0  0.28699310254E+01  0.30677345879E+02  0.11879161932E+04  0.11883157064E+04  0.00000000000E+00 0. -1.
        -14    1    5    5    0    0 -0.26240280873E+02 -0.39801875569E+02  0.65047368245E+03  0.65221833247E+03  0.00000000000E+00 0.  1.
          5    1    4    4  501    0  0.23197811565E+02  0.94994705929E+02  0.13783564421E+03  0.16905108645E+03  0.41800000000E+01 0.  1.
         -5    1    4    4    0  501 -0.22133975783E+02 -0.34403714927E+02  0.58594333109E+02  0.71584193488E+02  0.41800000000E+01 0.  1.
</event>
<event>
11    1  0.9238666E-009  0.1444086E+03  0.7561462E-02  0.1102733E+00
         22   -1    0    0    0    0  0.00000000000E+00  0.00000000000E+00  0.47140373612E+03  0.47140373612E+03  0.00000000000E+00 0.  1.
         22   -1    0    0    0    0 -0.00000000000E+00 -0.00000000000E+00 -0.37648097864E+03  0.37648097864E+03  0.00000000000E+00 0. -1.
         24    2    1    2    0    0 -0.24608625714E+02  0.28217936444E+02 -0.33623941426E+03  0.34818780811E+03  0.82316277958E+02 0.  0.
         25    2    1    2    0    0  0.73871470108E+02  0.24444873188E+02  0.24329324166E+03  0.28441964920E+03  0.12509352298E+03 0.  0.
        -24    2    1    2    0    0 -0.49262844394E+02 -0.52662809632E+02  0.18786893008E+03  0.21527725747E+03  0.76481130590E+02 0.  0.
        -13    1    3    3    0    0 -0.19771442946E+02  0.37927813577E+02 -0.72146614190E+02  0.83872301375E+02  0.00000000000E+00 0.  1.
         14    1    3    3    0    0 -0.48371827681E+01 -0.97098771327E+01 -0.26409280007E+03  0.26431550673E+03  0.00000000000E+00 0. -1.
         11    1    5    5    0    0 -0.38373801659E+01 -0.32332623043E+02  0.15866670712E+02  0.36219818316E+02  0.00000000000E+00 0. -1.
        -12    1    5    5    0    0 -0.45425464228E+02 -0.20330186589E+02  0.17200225937E+03  0.17905743915E+03  0.00000000000E+00 0.  1.
          5    1    4    4  501    0  0.48121815834E+02 -0.47472211876E+02  0.85624297997E+02  0.10917102577E+03  0.41800000000E+01 0. -1.
         -5    1    4    4    0  501  0.25749654274E+02  0.71917085064E+02  0.15766894366E+03  0.17524862343E+03  0.41800000000E+01 0. -1.
</event>
<event>
11    1  0.9238666E-009  0.1461949E+03  0.7561462E-02  0.1100831E+00
         22   -1    0    0    0    0  0.00000000000E+00  0.00000000000E+00  0.10506352609E+04  0.10506352609E+04  0.00000000000E+00 0. -1.
         22   -1    0    0    0    0 -0.00000000000E+00 -0.00000000000E+00 -0.20924796805E+03  0.20924796805E+03  0.00000000000E+00 0. -1.
        -24    2    1    2    0    0  0.52673200162E+00 -0.30583053423E+02 -0.15618850551E+03  0.18030390587E+03  0.84729266572E+02 0.  0.
         25    2    1    2    0    0  0.63244586128E+02 -0.12703640772E+02  0.93930219175E+02  0.16921232645E+03  0.12509462492E+03 0.  0.
         24    2    1    2    0    0 -0.63771318129E+02  0.43286694195E+02  0.90364557915E+03  0.91036699660E+03  0.79070961033E+02 0.  0.
        -11    1    5    5    0    0  0.12750625763E+02 -0.86887268608E+01  0.21233518270E+03  0.21289504984E+03  0.00000000000E+00 0.  1.
         12    1    5    5    0    0 -0.76521943892E+02  0.51975421056E+02  0.69131039645E+03  0.69747194677E+03  0.00000000000E+00 0. -1.
         11    1    3    3    0    0  0.29049061399E+02  0.31210636660E+01 -0.11912902857E+03  0.12265934312E+03  0.00000000000E+00 0. -1.
        -12    1    3    3    0    0 -0.28522329397E+02 -0.33704117088E+02 -0.37059476936E+02  0.57644562742E+02  0.00000000000E+00 0.  1.
          5    1    4    4  501    0  0.16407371416E+02  0.49348782609E+02  0.70887423878E+02  0.88017063379E+02  0.41800000000E+01 0. -1.
         -5    1    4    4    0  501  0.46837214712E+02 -0.62052423381E+02  0.23042795297E+02  0.81195263067E+02  0.41800000000E+01 0. -1.
</event>
<event>
11    1  0.9238666E-009  0.1284169E+03  0.7561462E-02  0.1121230E+00
         22   -1    0    0    0    0  0.00000000000E+00  0.00000000000E+00  0.72800958553E+03  0.72800958553E+03  0.00000000000E+00 0. -1.
         22   -1    0    0    0    0 -0.00000000000E+00 -0.00000000000E+00 -0.14194400556E+04  0.14194400556E+04  0.00000000000E+00 0. -1.
         24    2    1    2    0    0  0.28139285360E+02 -0.62748711992E+01 -0.13588018019E+04  0.13615319298E+04  0.81213702962E+02 0.  0.
         25    2    1    2    0    0 -0.34482080107E+02  0.33054948428E+02  0.22138382400E+02  0.13571827005E+03  0.12509075660E+03 0.  0.
        -24    2    1    2    0    0  0.63427947471E+01 -0.26780077229E+02  0.64523294941E+03  0.65019944132E+03  0.75341561579E+02 0.  0.
        -13    1    3    3    0    0  0.44858477863E+02 -0.24888201906E+02 -0.11640085579E+04  0.11651384589E+04  0.00000000000E+00 0.  1.
         14    1    3    3    0    0 -0.16719192503E+02  0.18613330707E+02 -0.19479324403E+03  0.19639347086E+03  0.00000000000E+00 0. -1.
         11    1    5    5    0    0  0.30757457015E+02  0.12469985510E+02  0.31583763690E+03  0.31757665938E+03  0.00000000000E+00 0. -1.
        -12    1    5    5    0    0 -0.24414662268E+02 -0.39250062739E+02  0.32939531251E+03  0.33262278193E+03  0.00000000000E+00 0.  1.
          5    1    4    4  501    0 -0.22992321688E+02  0.81060714212E+02  0.14045003878E+02  0.85523217778E+02  0.41800000000E+01 0. -1.
         -5    1    4    4    0  501 -0.11489758419E+02 -0.48005765783E+02  0.80933785217E+01  0.50195052275E+02  0.41800000000E+01 0. -1.
</event>
<event>
11    1  0.9238666E-009  0.1699418E+03  0.7561462E-02  0.1078082E+00
         22   -1    0    0    0    0  0.00000000000E+00  0.00000000000E+00  0.16335960402E+04  0.16335960402E+04  0.00000000000E+00 0.  1.
         22   -1    0    0    0    0 -0.00000000000E+00 -0.00000000000E+00 -0.87600124632E+03  0.87600124632E+03  0.00000000000E+00 0. -1.
         24    2    1    2    0    0  0.29532732027E+02 -0.10885333034E+03 -0.79107096341E+03  0.80291847484E+03  0.78508460118E+02 0.  0.
         25    2    1    2    0    0 -0.74267082524E+02  0.15729061732E+03  0.71504505382E+02  0.22586758515E+03  0.12508930365E+03 0.  0.
        -24    2    1    2    0    0  0.44734350498E+02 -0.48437286989E+02  0.14771612519E+04  0.14808112265E+04  0.80306858935E+02 0.  0.
        -13    1    3    3    0    0  0.40793613809E+02 -0.77424498733E+02 -0.35717125101E+03  0.36773628388E+03  0.00000000000E+00 0.  1.
         14    1    3    3    0    0 -0.11260881783E+02 -0.31428831602E+02 -0.43389971240E+03  0.43518219097E+03  0.00000000000E+00 0. -1.
         11    1    5    5    0    0  0.12718150587E+01  0.50893576996E+01  0.82473724458E+03  0.82475392795E+03  0.00000000000E+00 0. -1.
        -12    1    5    5    0    0  0.43462535439E+02 -0.53526644688E+02  0.65242400731E+03  0.65605729856E+03  0.00000000000E+00 0.  1.
          5    1    4    4  501    0 -0.34393953951E+02  0.27935502978E+02  0.78524479605E+02  0.90260194395E+02  0.41800000000E+01 0. -1.
         -5    1    4    4    0  501 -0.39873128573E+02  0.12935511435E+03 -0.70199742227E+01  0.13560739076E+03  0.41800000000E+01 0. -1.
</event>
<event>
11    1  0.9238666E-009  0.1308908E+03  0.7561462E-02  0.1118179E+00
         22   -1    0    0    0    0  0.00000000000E+00  0.00000000000E+00  0.14678595830E+04  0.14678595830E+04  0.00000000000E+00 0. -1.
         22   -1    0    0    0    0 -0.00000000000E+00 -0.00000000000E+00 -0.41064393232E+03  0.41064393232E+03  0.00000000000E+00 0. -1.
         24    2    1    2    0    0 -0.35370103328E+02 -0.14660812434E+02 -0.39352873828E+03  0.40373018565E+03  0.81652993367E+02 0.  0.
         25    2    1    2    0    0  0.53716307792E+02  0.37534925106E+02  0.48078082482E+03  0.50108942242E+03  0.12508435321E+03 0.  0.
        -24    2    1    2    0    0 -0.18346204464E+02 -0.22874112672E+02  0.96996356418E+03  0.97368390728E+03  0.79819967484E+02 0.  0.
        -11    1    3    3    0    0 -0.11489226061E+02 -0.41581178216E+01 -0.33352705027E+01  0.12665555204E+02  0.00000000000E+00 0.  1.
         12    1    3    3    0    0 -0.23880877266E+02 -0.10502694612E+02 -0.39019346778E+03  0.39106463045E+03  0.00000000000E+00 0. -1.
         11    1    5    5    0    0 -0.55587972795E+01 -0.42315674576E+02  0.87005658212E+03  0.87110273369E+03  0.00000000000E+00 0. -1.
        -12    1    5    5    0    0 -0.12787407185E+02  0.19441561904E+02  0.99906982061E+02  0.10258117360E+03  0.00000000000E+00 0.  1.
          5    1    4    4  501    0  0.10378692249E+02 -0.41480944251E+02  0.24300439032E+03  0.24677315920E+03  0.41800000000E+01 0. -1.
         -5    1    4    4    0  501  0.43337615543E+02  0.79015869357E+02  0.23777643451E+03  0.25431626322E+03  0.41800000000E+01 0. -1.
</event>
<event>
11    1  0.9238666E-009  0.2365003E+03  0.7561462E-02  0.1031347E+00
         22   -1    0    0    0    0  0.00000000000E+00  0.00000000000E+00  0.12302759329E+04  0.12302759329E+04  0.00000000000E+00 0.  1.
         22   -1    0    0    0    0 -0.00000000000E+00 -0.00000000000E+00 -0.64690773741E+03  0.64690773741E+03  0.00000000000E+00 0. -1.
         24    2    1    2    0    0  0.10894076507E+03 -0.16885570885E+03 -0.60421993057E+03  0.64191069302E+03  0.81162014550E+02 0.  0.
         25    2    1    2    0    0 -0.10966792382E+03  0.15777547567E+03  0.66465214934E+03  0.70308654849E+03  0.12509220924E+03 0.  0.
        -24    2    1    2    0    0  0.72715875396E+00  0.11080233182E+02  0.52293597670E+03  0.53218642879E+03  0.98168523087E+02 0.  0.
        -11    1    3    3    0    0  0.42610818055E+02 -0.37024962548E+02 -0.84320239332E+02  0.10147133796E+03  0.00000000000E+00 0.  1.
         12    1    3    3    0    0  0.66329947015E+02 -0.13183074631E+03 -0.51989969124E+03  0.54043935506E+03  0.00000000000E+00 0. -1.
         13    1    5    5    0    0  0.17705062071E+02 -0.24067917285E+02  0.54717562170E+02  0.62343768535E+02  0.00000000000E+00 0. -1.
        -14    1    5    5    0    0 -0.16977903317E+02  0.35148150468E+02  0.46821841453E+03  0.46984266025E+03  0.00000000000E+00 0.  1.
          5    1    4    4  501    0  0.48966505414E+01  0.46451949566E+02  0.31721433678E+03  0.32066207862E+03  0.41800000000E+01 0. -1.
         -5    1    4    4    0  501 -0.11456457437E+03  0.11132352610E+03  0.34743781256E+03  0.38242446987E+03  0.41800000000E+01 0. -1.
</event>
<event>
11    1  0.9238666E-009  0.1569655E+03  0.7561462E-02  0.1089967E+00
         22   -1    0    0    0    0  0.00000000000E+00  0.00000000000E+00  0.32958813196E+03  0.32958813196E+03  0.00000000000E+00 0.  1.
         22   -1    0    0    0    0 -0.00000000000E+00 -0.00000000000E+00 -0.16152597590E+03  0.16152597590E+03  0.00000000000E+00 0.  1.
         24    2    1    2    0    0  0.21575078517E+02  0.40835824002E+02 -0.35139622527E+02  0.99056370274E+02  0.80276540070E+02 0.  0.
         25    2    1    2    0    0 -0.10995859816E+03 -0.12355340030E+02  0.15385559190E+02  0.16771437626E+03  0.12509136195E+03 0.  0.
        -24    2    1    2    0    0  0.88383519646E+02 -0.28480483972E+02  0.18781621940E+03  0.22434336134E+03  0.80201165802E+02 0.  0.
        -11    1    3    3    0    0  0.38190662943E+02  0.10775896499E+02 -0.48091242251E+02  0.62349132012E+02  0.00000000000E+00 0.  1.
         12    1    3    3    0    0 -0.16615584426E+02  0.30059927503E+02  0.12951619725E+02  0.36707238262E+02  0.00000000000E+00 0. -1.
         11    1    5    5    0    0  0.34821296077E+02  0.21069905027E+02  0.30275924249E+02  0.50725685283E+02  0.00000000000E+00 0. -1.
        -12    1    5    5    0    0  0.53562223569E+02 -0.49550388999E+02  0.15754029515E+03  0.17361767605E+03  0.00000000000E+00 0.  1.
          5    1    4    4  501    0 -0.44404649638E+02 -0.34994813199E+02 -0.47532029882E+02  0.73980917303E+02  0.41800000000E+01 0.  1.
         -5    1    4    4    0  501 -0.65553948525E+02  0.22639473168E+02  0.62917589072E+02  0.93733458952E+02  0.41800000000E+01 0.  1.
</event>
<event>
11    1  0.9238666E-009  0.1454263E+03  0.7561462E-02  0.1101646E+00
         22   -1    0    0    0    0  0.00000000000E+00  0.00000000000E+00  0.21461789135E+03  0.21461789135E+03  0.00000000000E+00 0.  1.
         22   -1    0    0    0    0 -0.00000000000E+00 -0.00000000000E+00 -0.64639437348E+03  0.64639437348E+03  0.00000000000E+00 0.  1.
         24    2    1    2    0    0 -0.28725156352E+02 -0.63077699348E+02 -0.42251507064E+03  0.43603612890E+03  0.82489938949E+02 0.  0.
         25    2    1    2    0    0  0.70577594903E+01 -0.13419740055E+02 -0.18035022959E+03  0.22000992534E+03  0.12509300757E+03 0.  0.
        -24    2    1    2    0    0  0.21667396862E+02  0.76497439404E+02  0.17108881809E+03  0.20496621059E+03  0.80115101486E+02 0.  0.
        -11    1    3    3    0    0 -0.29847569782E+02 -0.26692646071E+01 -0.27499289584E+03  0.27662085091E+03  0.00000000000E+00 0.  1.
         12    1    3    3    0    0  0.11224134295E+01 -0.60408434741E+02 -0.14752217480E+03  0.15941527799E+03  0.00000000000E+00 0. -1.
         13    1    5    5    0    0 -0.58833573865E+01 -0.93064281432E+01  0.64289977599E+02  0.65225951266E+02  0.00000000000E+00 0. -1.
        -14    1    5    5    0    0  0.27550754248E+02  0.85803867547E+02  0.10679884049E+03  0.13974025932E+03  0.00000000000E+00 0.  1.
          5    1    4    4  501    0 -0.57497994865E+02  0.59820876498E+00 -0.10441910374E+03  0.11927782230E+03  0.41800000000E+01 0.  1.
         -5    1    4    4    0  501  0.64555754355E+02 -0.14017948820E+02 -0.75931125852E+02  0.10073210304E+03  0.41800000000E+01 0.  1.
</event>
<event>
11    1  0.9238666E-009  0.1835341E+03  0.7561462E-02  0.1066819E+00
         22   -1    0    0    0    0  0.00000000000E+00  0.00000000000E+00  0.20584280484E+04  0.20584280484E+04  0.00000000000E+00 0. -1.
         22   -1    0    0    0    0 -0.00000000000E+00 -0.00000000000E+00 -0.83800520226E+02  0.83800520226E+02  0.00000000000E+00 0.  1.
        -24    2    1    2    0    0 -0.78295097385E+02 -0.10330189255E+03  0.16866184940E+02  0.15346891756E+03  0.80416647429E+02 0.  0.
         25    2    1    2    0    0  0.10244888275E+03  0.15979478465E+03  0.99087217947E+03  0.10166166350E+04  0.12510619404E+03 0.  0.
         24    2    1    2    0    0 -0.24153785368E+02 -0.56492892103E+02  0.96688916373E+03  0.97214301600E+03  0.80078314309E+02 0.  0.
        -13    1    5    5    0    0  0.24780834791E+02 -0.27771091052E+01  0.37154719423E+03  0.37238302814E+03  0.00000000000E+00 0.  1.
         14    1    5    5    0    0 -0.48934620159E+02 -0.53715782998E+02  0.59534196950E+03  0.59975998786E+03  0.00000000000E+00 0. -1.
         11    1    3    3    0    0 -0.47173931869E+02 -0.27205309085E+01  0.54837377618E+01  0.47569449400E+02  0.00000000000E+00 0. -1.
        -12    1    3    3    0    0 -0.31121165517E+02 -0.10058136164E+03  0.11382447179E+02  0.10589946816E+03  0.00000000000E+00 0.  1.
          5    1    4    4  501    0 -0.16285553671E+02  0.55977531245E+02  0.43074702121E+03  0.43469434312E+03  0.41800000000E+01 0.  1.
         -5    1    4    4    0  501  0.11873443642E+03  0.10381725341E+03  0.56012515826E+03  0.58192229190E+03  0.41800000000E+01 0.  1.
</event>
<event>
11    1  0.9238666E-009  0.1401539E+03  0.7561462E-02  0.1107387E+00
         22   -1    0    0    0    0  0.00000000000E+00  0.00000000000E+00  0.21125537519E+04  0.21125537519E+04  0.00000000000E+00 0. -1.
         22   -1    0    0    0    0 -0.00000000000E+00 -0.00000000000E+00 -0.13577194203E+03  0.13577194203E+03  0.00000000000E+00 0. -1.
        -24    2    1    2    0    0  0.59717609785E+02 -0.99569234811E+01 -0.91430593717E+02  0.13650677779E+03  0.81297070503E+02 0.  0.
         25    2    1    2    0    0 -0.96707743375E+02  0.33686181066E+02  0.29765537735E+03  0.33872070649E+03  0.12508335989E+03 0.  0.
         24    2    1    2    0    0  0.36990133590E+02 -0.23729257585E+02  0.17705570263E+04  0.17730982097E+04  0.84105470721E+02 0.  0.
        -13    1    5    5    0    0  0.48749630821E+02 -0.61490085816E+01  0.16477984971E+04  0.16485309290E+04  0.00000000000E+00 0.  1.
         14    1    5    5    0    0 -0.11759497231E+02 -0.17580249003E+02  0.12275852920E+03  0.12456728071E+03  0.00000000000E+00 0. -1.
         11    1    3    3    0    0 -0.94517702008E+01  0.45757021084E+01 -0.56867446026E+02  0.57828880564E+02  0.00000000000E+00 0. -1.
        -12    1    3    3    0    0  0.69169379986E+02 -0.14532625590E+02 -0.34563147690E+02  0.78677897229E+02  0.00000000000E+00 0.  1.
          5    1    4    4  501    0 -0.33623316954E+02 -0.46545545499E+02  0.83153197887E+02  0.10113823198E+03  0.41800000000E+01 0.  1.
         -5    1    4    4    0  501 -0.63084426420E+02  0.80231726565E+02  0.21450217946E+03  0.23758247452E+03  0.41800000000E+01 0.  1.
</event>
<event>
11    1  0.9238666E-009  0.1561410E+03  0.7561462E-02  0.1090764E+00
         22   -1    0    0    0    0  0.00000000000E+00  0.00000000000E+00  0.77039299266E+03  0.77039299266E+03  0.00000000000E+00 0. -1.
         22   -1    0    0    0    0 -0.00000000000E+00 -0.00000000000E+00 -0.20602908299E+04  0.20602908299E+04  0.00000000000E+00 0.  1.
        -24    2    1    2    0    0 -0.35591086239E+01 -0.94198854690E+02 -0.19876167934E+04  0.19914665807E+04  0.80203074007E+02 0.  0.
         25    2    1    2    0    0  0.65586143021E+02  0.54171182623E+02  0.19253253949E+02  0.15249165912E+03  0.12508780568E+03 0.  0.
         24    2    1    2    0    0 -0.62027034397E+02  0.40027672067E+02  0.67846570225E+03  0.68672558273E+03  0.76333146947E+02 0.  0.
        -11    1    5    5    0    0 -0.63259920380E+02  0.46678597165E+02  0.37347629421E+03  0.38166117342E+03  0.00000000000E+00 0.  1.
         12    1    5    5    0    0  0.12328859834E+01 -0.66509250977E+01  0.30498940804E+03  0.30506440931E+03  0.00000000000E+00 0. -1.
         11    1    3    3    0    0  0.10898669690E+02 -0.28262631056E+02 -0.17564268267E+03  0.17823554441E+03  0.00000000000E+00 0. -1.
        -12    1    3    3    0    0 -0.14457778314E+02 -0.65936223634E+02 -0.18119741107E+04  0.18132310363E+04  0.00000000000E+00 0.  1.
          5    1    4    4  501    0 -0.40126623684E+01  0.35860840495E+02  0.59661628470E+02  0.69850437736E+02  0.41800000000E+01 0. -1.
         -5    1    4    4    0  501  0.69598805389E+02  0.18310342128E+02 -0.40408374521E+02  0.82641221384E+02  0.41800000000E+01 0. -1.
</event>
<event>
11    1  0.9238666E-009  0.1454127E+03  0.7561462E-02  0.1101660E+00
         22   -1    0    0    0    0  0.00000000000E+00  0.00000000000E+00  0.67351331207E+03  0.67351331207E+03  0.00000000000E+00 0. -1.
         22   -1    0    0    0    0 -0.00000000000E+00 -0.00000000000E+00 -0.92150983756E+02  0.92150983756E+02  0.00000000000E+00 0.  1.
        -24    2    1    2    0    0  0.95335084255E+01  0.12250847639E+01 -0.35576325513E+02  0.89440572747E+02  0.81495720751E+02 0.  0.
         25    2    1    2    0    0 -0.10591928578E+02 -0.74972929309E+02  0.22046065968E+03  0.26454383072E+03  0.12508959519E+03 0.  0.
         24    2    1    2    0    0  0.10584201525E+01  0.73747844545E+02  0.39647799415E+03  0.41167989237E+03  0.82738558747E+02 0.  0.
        -11    1    5    5    0    0  0.49477916934E+01 -0.14235783802E+02  0.20026832499E+02  0.25064161727E+02  0.00000000000E+00 0.  1.
         12    1    5    5    0    0 -0.38893715409E+01  0.87983628347E+02  0.37645116165E+03  0.38661573064E+03  0.00000000000E+00 0. -1.
         11    1    3    3    0    0 -0.59982963822E+01  0.98325348717E+01  0.24351099710E+02  0.26937601203E+02  0.00000000000E+00 0. -1.
        -12    1    3    3    0    0  0.15531804808E+02 -0.86074501079E+01 -0.59927425223E+02  0.62502971544E+02  0.00000000000E+00 0.  1.
          5    1    4    4  501    0 -0.14383669779E+02 -0.10981750463E+03  0.17106565899E+03  0.20383254492E+03  0.41800000000E+01 0.  1.
         -5    1    4    4    0  501  0.37917412013E+01  0.34844575323E+02  0.49395000685E+02  0.60711285800E+02  0.41800000000E+01 0.  1.
</event>
<event>
11    1  0.9238666E-009  0.1987912E+03  0.7561462E-02  0.1055382E+00
         22   -1    0    0    0    0  0.00000000000E+00  0.00000000000E+00  0.60125321347E+03  0.60125321347E+03  0.00000000000E+00 0.  1.
         22   -1    0    0    0    0 -0.00000000000E+00 -0.00000000000E+00 -0.32778460590E+03  0.32778460590E+03  0.00000000000E+00 0. -1.
         24    2    1    2    0    0 -0.76924293125E+01  0.23419430993E+01 -0.21311996070E+03  0.22773368746E+03  0.79861483768E+02 0.  0.
         25    2    1    2    0    0 -0.14780583882E+03  0.41685733452E+01  0.10525547982E+02  0.19396419560E+03  0.12508948405E+03 0.  0.
        -24    2    1    2    0    0  0.15549826813E+03 -0.65105164445E+01  0.47606302029E+03  0.50733993631E+03  0.80843759617E+02 0.  0.
        -11    1    3    3    0    0 -0.33769626214E+01 -0.14420123184E+02 -0.93051635372E+00  0.14839463935E+02  0.00000000000E+00 0.  1.
         12    1    3    3    0    0 -0.43154666910E+01  0.16762066283E+02 -0.21218944435E+03  0.21289422353E+03  0.00000000000E+00 0. -1.
         11    1    5    5    0    0  0.39799227945E+02 -0.16397661581E+02  0.51180965007E+02  0.66875653487E+02  0.00000000000E+00 0. -1.
        -12    1    5    5    0    0  0.11569904019E+03  0.98871451364E+01  0.42488205529E+03  0.44046428283E+03  0.00000000000E+00 0.  1.
          5    1    4    4  501    0 -0.61205906712E+02 -0.21055739826E+02 -0.52834252742E+02  0.83656666554E+02  0.41800000000E+01 0. -1.
         -5    1    4    4    0  501 -0.86599932110E+02  0.25224313171E+02  0.63359800724E+02  0.11030752905E+03  0.41800000000E+01 0. -1.
</event>
<event>
11    1  0.9238666E-009  0.1365360E+03  0.7561462E-02  0.1111489E+00
         22   -1    0    0    0    0  0.00000000000E+00  0.00000000000E+00  0.19715068332E+03  0.19715068332E+03  0.00000000000E+00 0. -1.
         22   -1    0    0    0    0 -0.00000000000E+00 -0.00000000000E+00 -0.59712150936E+03  0.59712150936E+03  0.00000000000E+00 0.  1.
        -24    2    1    2    0    0  0.32183932685E+02  0.24194381596E+02 -0.50035690303E+03  0.50830561240E+03  0.79977444081E+02 0.  0.
         25    2    1    2    0    0  0.28581048383E+02 -0.25065984425E+02 -0.17174924619E+02  0.13186387491E+03  0.12509166067E+03 0.  0.
         24    2    1    2    0    0 -0.60764981067E+02  0.87160282895E+00  0.11756100161E+03  0.15410270537E+03  0.78955127057E+02 0.  0.
        -13    1    5    5    0    0 -0.39210534953E+02  0.37755608609E+02  0.48548239960E+02  0.72937532423E+02  0.00000000000E+00 0.  1.
         14    1    5    5    0    0 -0.21554446114E+02 -0.36884005780E+02  0.69012761650E+02  0.81165172952E+02  0.00000000000E+00 0. -1.
         11    1    3    3    0    0 -0.82980997493E+00 -0.15437218840E+02 -0.20456034212E+02  0.25640702911E+02  0.00000000000E+00 0. -1.
        -12    1    3    3    0    0  0.33013742659E+02  0.39631600436E+02 -0.47990086882E+03  0.48266490949E+03  0.00000000000E+00 0.  1.
          5    1    4    4  501    0  0.73750136907E+02 -0.29165645297E+02  0.80047636243E+01  0.79820211726E+02  0.41800000000E+01 0. -1.
         -5    1    4    4    0  501 -0.45169088524E+02  0.40996608722E+01 -0.25179688244E+02  0.52043663182E+02  0.41800000000E+01 0. -1.
</event>
<event>
11    1  0.9238666E-009  0.1287626E+03  0.7561462E-02  0.1120799E+00
         22   -1    0    0    0    0  0.00000000000E+00  0.00000000000E+00  0.38942911229E+03  0.38942911229E+03  0.00000000000E+00 0. -1.
         22   -1    0    0    0    0 -0.00000000000E+00 -0.00000000000E+00 -0.34524837215E+03  0.34524837215E+03  0.00000000000E+00 0.  1.
        -24    2    1    2    0    0  0.33634543004E+02  0.53732515578E+01 -0.26218591798E+03  0.27619050845E+03  0.79872317214E+02 0.  0.
         25    2    1    2    0    0 -0.17267120569E+01 -0.11969845164E+02 -0.14672453285E+02  0.12648734468E+03  0.12505002500E+03 0.  0.
         24    2    1    2    0    0 -0.31907830947E+02  0.65965936062E+01  0.32103911141E+03  0.33199963130E+03  0.78077009478E+02 0.  0.
        -13    1    5    5    0    0 -0.27247645519E+02 -0.33612169321E+02  0.14222218144E+03  0.14865853829E+03  0.00000000000E+00 0.  1.
         14    1    5    5    0    0 -0.46601854282E+01  0.40208762927E+02  0.17881692997E+03  0.18334109301E+03  0.00000000000E+00 0. -1.
         11    1    3    3    0    0  0.45279437319E+02  0.31721395100E+00 -0.68648247601E+02  0.82236913653E+02  0.00000000000E+00 0. -1.
        -12    1    3    3    0    0 -0.11644894314E+02  0.50560376068E+01 -0.19353767038E+03  0.19395359480E+03  0.00000000000E+00 0.  1.
          5    1    4    4  501    0  0.59035990594E+02 -0.16052723113E+02 -0.21683703071E+02  0.65043012566E+02  0.41800000000E+01 0. -1.
         -5    1    4    4    0  501 -0.60762702651E+02  0.40828779490E+01  0.70112497864E+01  0.61444332118E+02  0.41800000000E+01 0. -1.
</event>
<event>
11    1  0.9238666E-009  0.1752662E+03  0.7561462E-02  0.1073538E+00
         22   -1    0    0    0    0  0.00000000000E+00  0.00000000000E+00  0.34201328982E+03  0.34201328982E+03  0.00000000000E+00 0. -1.
         22   -1    0    0    0    0 -0.00000000000E+00 -0.00000000000E+00 -0.59666135393E+03  0.59666135393E+03  0.00000000000E+00 0. -1.
         24    2    1    2    0    0 -0.83920675675E+02  0.88389832777E+02 -0.45275698244E+03  0.47613271177E+03  0.82813233993E+02 0.  0.
         25    2    1    2    0    0  0.51710157820E+02 -0.12539666159E+03 -0.55063645553E+02  0.19255441162E+03  0.12508770209E+03 0.  0.
        -24    2    1    2    0    0  0.32210517856E+02  0.37006828811E+02  0.25317256388E+03  0.26998752035E+03  0.79936795082E+02 0.  0.
        -13    1    3    3    0    0  0.71333980406E+01 -0.10564406435E+02 -0.45297742289E+02  0.47057172752E+02  0.00000000000E+00 0.  1.
         14    1    3    3    0    0 -0.91054073716E+02  0.98954239213E+02 -0.40745924015E+03  0.42907553902E+03  0.00000000000E+00 0. -1.
         13    1    5    5    0    0  0.29302544090E+02  0.61809968709E+02  0.19618419603E+03  0.20776753860E+03  0.00000000000E+00 0. -1.
        -14    1    5    5    0    0  0.29079737660E+01 -0.24803139899E+02  0.56988367847E+02  0.62219981759E+02  0.00000000000E+00 0.  1.
          5    1    4    4  501    0  0.35873523196E+02  0.28719042712E+01 -0.51787736278E+02  0.63202844315E+02  0.41800000000E+01 0. -1.
         -5    1    4    4    0  501  0.15836634623E+02 -0.12826856586E+03 -0.32759092754E+01  0.12935156731E+03  0.41800000000E+01 0. -1.
</event>
<event>
11    1  0.9238666E-009  0.1651849E+03  0.7561462E-02  0.1082300E+00
         22   -1    0    0    0    0  0.00000000000E+00  0.00000000000E+00  0.76055858791E+03  0.76055858791E+03  0.00000000000E+00 0. -1.
         22   -1    0    0    0    0 -0.00000000000E+00 -0.00000000000E+00 -0.38718166562E+03  0.38718166562E+03  0.00000000000E+00 0.  1.
         24    2    1    2    0    0 -0.26364028224E+00  0.11555839666E+03 -0.30390885063E+03  0.33481315452E+03  0.79908988258E+02 0.  0.
         25    2    1    2    0    0 -0.14511595040E+02 -0.68224320335E+02  0.14962499010E+02  0.14400676014E+03  0.12509566864E+03 0.  0.
        -24    2    1    2    0    0  0.14775235322E+02 -0.47334076321E+02  0.66232327392E+03  0.66892033887E+03  0.79520300747E+02 0.  0.
        -13    1    3    3    0    0 -0.29468723866E+02  0.65540298058E+02 -0.22968967363E+03  0.24066840784E+03  0.00000000000E+00 0.  1.
         14    1    3    3    0    0  0.29205083583E+02  0.50018098597E+02 -0.74219176999E+02  0.94144746687E+02  0.00000000000E+00 0. -1.
         11    1    5    5    0    0 -0.17932020405E+02 -0.17678454179E+02  0.50194073790E+03  0.50257197441E+03  0.00000000000E+00 0. -1.
        -12    1    5    5    0    0  0.32707255727E+02 -0.29655622141E+02  0.16038253602E+03  0.16634836447E+03  0.00000000000E+00 0.  1.
          5    1    4    4  501    0 -0.33634342790E+01 -0.96127665960E+02 -0.19353805434E+02  0.98203274069E+02  0.41800000000E+01 0.  1.
         -5    1    4    4    0  501 -0.11148160761E+02  0.27903345626E+02  0.34316304444E+02  0.45803486070E+02  0.41800000000E+01 0.  1.
</event>
<event>
11    1  0.9238666E-009  0.1392956E+03  0.7561462E-02  0.1108348E+00
         22   -1    0    0    0    0  0.00000000000E+00  0.00000000000E+00  0.12487231616E+04  0.12487231616E+04  0.00000000000E+00 0. -1.
         22   -1    0    0    0    0 -0.00000000000E+00 -0.00000000000E+00 -0.12150621389E+04  0.12150621389E+04  0.00000000000E+00 0.  1.
        -24    2    1    2    0    0 -0.29925264750E+02  0.15067699245E+02 -0.11184463558E+04  0.11218888582E+04  0.81177597462E+02 0.  0.
         25    2    1    2    0    0  0.48699539516E+02  0.43395966906E+02 -0.39079998279E+02  0.14638595806E+03  0.12508695919E+03 0.  0.
         24    2    1    2    0    0 -0.18774274766E+02 -0.58463666152E+02  0.11911873767E+04  0.11955104842E+04  0.80916487310E+02 0.  0.
        -11    1    5    5    0    0 -0.24181969025E+02 -0.76113123420E+01  0.10130270482E+03  0.10442670973E+03  0.00000000000E+00 0.  1.
         12    1    5    5    0    0  0.54076942592E+01 -0.50852353810E+02  0.10898846719E+04  0.10910837745E+04  0.00000000000E+00 0. -1.
         13    1    3    3    0    0  0.18619566314E+02 -0.16013550292E+02 -0.17914687664E+03  0.18082235883E+03  0.00000000000E+00 0. -1.
        -14    1    3    3    0    0 -0.48544831064E+02  0.31081249538E+02 -0.93929947913E+03  0.94106649935E+03  0.00000000000E+00 0.  1.
          5    1    4    4  501    0  0.13298520593E+02 -0.43594420363E+02 -0.22211239432E+02  0.50873723020E+02  0.41800000000E+01 0.  1.
         -5    1    4    4    0  501  0.35401018923E+02  0.86990387270E+02 -0.16868758847E+02  0.95512235044E+02  0.41800000000E+01 0.  1.
</event>
<event>
11    1  0.9238666E-009  0.1782041E+03  0.7561462E-02  0.1071105E+00
         22   -1    0    0    0    0  0.00000000000E+00  0.00000000000E+00  0.91096196489E+03  0.91096196489E+03  0.00000000000E+00 0. -1.
         22   -1    0    0    0    0 -0.00000000000E+00 -0.00000000000E+00 -0.25076627166E+03  0.25076627166E+03  0.00000000000E+00 0. -1.
         24    2    1    2    0    0 -0.33043201933E+02  0.44178155322E+02 -0.14821024570E+03  0.17741910087E+03  0.80421998381E+02 0.  0.
         25    2    1    2    0    0  0.14917031289E+03  0.40305450556E+01  0.36620792319E+02  0.19813247861E+03  0.12508944444E+03 0.  0.
        -24    2    1    2    0    0 -0.11612711096E+03 -0.48208700377E+02  0.77178514661E+03  0.78617665707E+03  0.81313214856E+02 0.  0.
        -11    1    3    3    0    0  0.17564883647E+02  0.36365215405E+01 -0.27329850547E+01  0.18144382981E+02  0.00000000000E+00 0.  1.
         12    1    3    3    0    0 -0.50608085580E+02  0.40541633781E+02 -0.14547726064E+03  0.15927471789E+03  0.00000000000E+00 0. -1.
         11    1    5    5    0    0 -0.39441943248E+02 -0.20329214277E+02  0.51103581383E+03  0.51295862100E+03  0.00000000000E+00 0. -1.
        -12    1    5    5    0    0 -0.76685167712E+02 -0.27879486100E+02  0.26074933278E+03  0.27321803608E+03  0.00000000000E+00 0.  1.
          5    1    4    4  501    0  0.17960712202E+02 -0.29794541295E+02 -0.30869210552E+02  0.46697777612E+02  0.41800000000E+01 0. -1.
         -5    1    4    4    0  501  0.13120960069E+03  0.33825086350E+02  0.67490002871E+02  0.15143470100E+03  0.41800000000E+01 0. -1.
</event>
<event>
11    1  0.9238666E-009  0.1429765E+03  0.7561462E-02  0.1104279E+00
         22   -1    0    0    0    0  0.00000000000E+00  0.00000000000E+00  0.11094177704E+04  0.11094177704E+04  0.00000000000E+00 0.  1.
         22   -1    0    0    0    0 -0.00000000000E+00 -0.00000000000E+00 -0.47135054882E+02  0.47135054882E+02  0.00000000000E+00 0. -1.
        -24    2    1    2    0    0  0.67555484411E+02  0.97189024653E+02  0.29497638174E+03  0.32809400403E+03  0.81395084075E+02 0.  0.
         25    2    1    2    0    0 -0.10742527047E+02 -0.42202836791E+02  0.14821912319E+03  0.19878260233E+03  0.12509649551E+03 0.  0.
         24    2    1    2    0    0 -0.56812957364E+02 -0.54986187862E+02  0.61908721063E+03  0.62967621897E+03  0.83498343587E+02 0.  0.
        -13    1    5    5    0    0 -0.24888689041E+02  0.10599731272E+02  0.34466981794E+03  0.34572978545E+03  0.00000000000E+00 0.  1.
         14    1    5    5    0    0 -0.31924268323E+02 -0.65585919134E+02  0.27441739269E+03  0.28394643352E+03  0.00000000000E+00 0. -1.
         13    1    3    3    0    0 -0.12809826980E+02 -0.47727897496E+01  0.23922045212E+02  0.27552412533E+02  0.00000000000E+00 0. -1.
        -14    1    3    3    0    0  0.80365311391E+02  0.10196181440E+03  0.27105433653E+03  0.30054159150E+03  0.00000000000E+00 0.  1.
          5    1    4    4  501    0  0.90487708750E+01  0.33884674945E+02  0.54417599185E+01  0.35737048024E+02  0.41800000000E+01 0. -1.
         -5    1    4    4    0  501 -0.19791297922E+02 -0.76087511735E+02  0.14277736327E+03  0.16304555431E+03  0.41800000000E+01 0. -1.
</event>
<event>
11    1  0.2252456E-008  0.1752183E+03  0.7561462E-02  0.1073578E+00
         22   -1    0    0    0    0  0.00000000000E+00  0.00000000000E+00  0.92218330710E+03  0.92218330710E+03  0.00000000000E+00 0. -1.
         22   -1    0    0    0    0 -0.00000000000E+00 -0.00000000000E+00 -0.40406492730E+03  0.40406492730E+03  0.00000000000E+00 0.  1.
        -24    2    1    2    0    0  0.19030254946E+02 -0.44890195794E+02 -0.23522099057E+03  0.25387373708E+03  0.82132086847E+02 0.  0.
         25    2    1    2    0    0 -0.60540113360E+02  0.15829770857E+03 -0.80786844851E+02  0.22560364524E+03  0.12508885074E+03 0.  0.
         24    2    1    2    0    0  0.41509858413E+02 -0.11340751278E+03  0.83412621523E+03  0.84677085208E+03  0.81670072245E+02 0.  0.
        -11    1    5    5    0    0 -0.23937531226E+02 -0.42390997345E+02  0.31465812100E+03  0.31840184542E+03  0.00000000000E+00 0.  1.
         12    1    5    5    0    0  0.65447389639E+02 -0.71016515434E+02  0.51946809423E+03  0.52836900666E+03  0.00000000000E+00 0. -1.
         13    1    3    3    0    0 -0.27312906738E+02  0.48173549375E+00 -0.42402667099E+02  0.50440193503E+02  0.00000000000E+00 0. -1.
        -14    1    3    3    0    0  0.46343161684E+02 -0.45371931288E+02 -0.19281832348E+03  0.20343354357E+03  0.00000000000E+00 0.  1.
          5    1    4    4  501    0 -0.49627719660E+02  0.17535315520E+03 -0.89612082701E+02  0.20312419197E+03  0.41800000000E+01 0.  1.
         -5    1    4    4    0  501 -0.10912393699E+02 -0.17055446631E+02  0.88252378491E+01  0.22479453265E+02  0.41800000000E+01 0.  1.
</event>
<event>
11    1  0.9238666E-009  0.1395769E+03  0.7561462E-02  0.1108032E+00
         22   -1    0    0    0    0  0.00000000000E+00  0.00000000000E+00  0.95915221297E+03  0.95915221297E+03  0.00000000000E+00 0.  1.
         22   -1    0    0    0    0 -0.00000000000E+00 -0.00000000000E+00 -0.41015320563E+03  0.41015320563E+03  0.00000000000E+00 0. -1.
         24    2    1    2    0    0  0.61590274383E+02 -0.14359615254E+02 -0.38355178528E+03  0.39710464383E+03  0.81120686072E+02 0.  0.
         25    2    1    2    0    0 -0.16005245891E+02  0.54912358225E+00  0.22014077669E+03  0.25370454836E+03  0.12509023490E+03 0.  0.
        -24    2    1    2    0    0 -0.45585028491E+02  0.13810491672E+02  0.71241001594E+03  0.71849622640E+03  0.80250059460E+02 0.  0.
        -13    1    3    3    0    0  0.42897481903E+02 -0.13125883460E+01 -0.65944379566E+02  0.78680226475E+02  0.00000000000E+00 0.  1.
         14    1    3    3    0    0  0.18692792480E+02 -0.13047026908E+02 -0.31760740572E+03  0.31842441736E+03  0.00000000000E+00 0. -1.
         11    1    5    5    0    0  0.54398583605E+01 -0.25094384242E+02  0.12624937708E+03  0.12883410027E+03  0.00000000000E+00 0. -1.
        -12    1    5    5    0    0 -0.51024886852E+02  0.38904875914E+02  0.58616063886E+03  0.58966212613E+03  0.00000000000E+00 0.  1.
          5    1    4    4  501    0 -0.68254104898E+02 -0.12950633283E+02  0.98937852939E+02  0.12096492418E+03  0.41800000000E+01 0.  1.
         -5    1    4    4    0  501  0.52248859007E+02  0.13499756865E+02  0.12120292375E+03  0.13273962418E+03  0.41800000000E+01 0.  1.
</event>
<event>
11    1  0.9238666E-009  0.1929813E+03  0.7561462E-02  0.1059601E+00
         22   -1    0    0    0    0  0.00000000000E+00  0.00000000000E+00  0.18703964826E+03  0.18703964826E+03  0.00000000000E+00 0. -1.
         22   -1    0    0    0    0 -0.00000000000E+00 -0.00000000000E+00 -0.37839291877E+03  0.37839291877E+03  0.00000000000E+00 0.  1.
        -24    2    1    2    0    0 -0.11263291210E+03 -0.65657339075E+01 -0.42610050667E+02  0.15424221410E+03  0.96154887782E+02 0.  0.
         25    2    1    2    0    0 -0.32137355749E+02  0.12507081817E+03 -0.82505284189E+02  0.19781873814E+03  0.12509840946E+03 0.  0.
         24    2    1    2    0    0  0.14477026785E+03 -0.11850508426E+03 -0.66237935649E+02  0.21337161478E+03  0.78346004547E+02 0.  0.
        -11    1    5    5    0    0  0.10926427295E+03 -0.39566010184E+02 -0.35268224257E+02  0.12144133624E+03  0.00000000000E+00 0.  1.
         12    1    5    5    0    0  0.35505994896E+02 -0.78939074077E+02 -0.30969711393E+02  0.91930278545E+02  0.00000000000E+00 0. -1.
         11    1    3    3    0    0 -0.10989879415E+03  0.19903517181E+02 -0.99715691739E+01  0.11213084832E+03  0.00000000000E+00 0. -1.
        -12    1    3    3    0    0 -0.27341179424E+01 -0.26469251089E+02 -0.32638481493E+02  0.42111365785E+02  0.00000000000E+00 0.  1.
          5    1    4    4  501    0  0.48099249705E+02  0.54714397608E+02 -0.31859151915E+02  0.79622114318E+02  0.41800000000E+01 0. -1.
         -5    1    4    4    0  501 -0.80236605454E+02  0.70356420561E+02 -0.50646132274E+02  0.11819662382E+03  0.41800000000E+01 0. -1.
</event>
<event>
11    1  0.9238666E-009  0.1516863E+03  0.7561462E-02  0.1095168E+00
         22   -1    0    0    0    0  0.00000000000E+00  0.00000000000E+00  0.44341706165E+03  0.44341706165E+03  0.00000000000E+00 0.  1.
         22   -1    0    0    0    0 -0.00000000000E+00 -0.00000000000E+00 -0.14992318245E+03  0.14992318245E+03  0.00000000000E+00 0.  1.
        -24    2    1    2    0    0  0.26821651365E+02  0.28840837727E+01 -0.57835339164E+02  0.10450896456E+03  0.82761575001E+02 0.  0.
         25    2    1    2    0    0 -0.10511527481E+03 -0.25973960163E+02  0.60145221519E+02  0.17603388432E+03  0.12508642273E+03 0.  0.
         24    2    1    2    0    0  0.78293623447E+02  0.23089876390E+02  0.29118399685E+03  0.31279739521E+03  0.79944084004E+02 0.  0.
        -13    1    5    5    0    0  0.72457339178E+02  0.47421198307E+02  0.25038582056E+03  0.26493753073E+03  0.00000000000E+00 0.  1.
         14    1    5    5    0    0  0.58362842692E+01 -0.24331321917E+02  0.40798176291E+02  0.47859864490E+02  0.00000000000E+00 0. -1.
         13    1    3    3    0    0 -0.18288739825E+01  0.53914788877E+00  0.20746667691E+02  0.20834098992E+02  0.00000000000E+00 0. -1.
        -14    1    3    3    0    0  0.28650525348E+02  0.23449358840E+01 -0.78582006856E+02  0.83674865572E+02  0.00000000000E+00 0.  1.
          5    1    4    4  501    0 -0.14457827772E+01 -0.84818346693E+01 -0.33708679619E+02  0.35039681631E+02  0.41800000000E+01 0. -1.
         -5    1    4    4    0  501 -0.10366949204E+03 -0.17492125493E+02  0.93853901138E+02  0.14099420269E+03  0.41800000000E+01 0. -1.
</event>
<event>
11    1  0.9238666E-009  0.1802927E+03  0.7561462E-02  0.1069406E+00
         22   -1    0    0    0    0  0.00000000000E+00  0.00000000000E+00  0.88053878693E+03  0.88053878693E+03  0.00000000000E+00 0.  1.
         22   -1    0    0    0    0 -0.00000000000E+00 -0.00000000000E+00 -0.11186534963E+04  0.11186534963E+04  0.00000000000E+00 0.  1.
        -24    2    1    2    0    0  0.94411113963E+02 -0.91201902054E+02 -0.10486100287E+04  0.10597210918E+04  0.78705494849E+02 0.  0.
         25    2    1    2    0    0 -0.10419605364E+03  0.35663984132E+02  0.55442410834E+02  0.17564192809E+03  0.12508992216E+03 0.  0.
         24    2    1    2    0    0  0.97849396736E+01  0.55537917922E+02  0.75505290841E+03  0.76382926333E+03  0.10074742508E+03 0.  0.
        -13    1    5    5    0    0 -0.12693873875E+02  0.77645372069E+02  0.62863147957E+03  0.63353569382E+03  0.00000000000E+00 0.  1.
         14    1    5    5    0    0  0.22478813548E+02 -0.22107454147E+02  0.12642142884E+03  0.13029356952E+03  0.00000000000E+00 0. -1.
         13    1    3    3    0    0  0.54463699648E+02 -0.94738726775E+02 -0.85850921342E+03  0.86543618509E+03  0.00000000000E+00 0. -1.
        -14    1    3    3    0    0  0.39947414315E+02  0.35368247216E+01 -0.19010081523E+03  0.19428490675E+03  0.00000000000E+00 0.  1.
          5    1    4    4  501    0 -0.34794024394E+02 -0.31442466187E+02 -0.21847203173E+02  0.51904002735E+02  0.41800000000E+01 0.  1.
         -5    1    4    4    0  501 -0.69402029243E+02  0.67106450319E+02  0.77289614007E+02  0.12373792535E+03  0.41800000000E+01 0.  1.
</event>
<event>
11    1  0.9238666E-009  0.1505093E+03  0.7561462E-02  0.1096360E+00
         22   -1    0    0    0    0  0.00000000000E+00  0.00000000000E+00  0.14532391456E+04  0.14532391456E+04  0.00000000000E+00 0.  1.
         22   -1    0    0    0    0 -0.00000000000E+00 -0.00000000000E+00 -0.12925073744E+03  0.12925073744E+03  0.00000000000E+00 0. -1.
         24    2    1    2    0    0 -0.35258892338E+02 -0.20386922842E+00 -0.24925125882E+02  0.95634688684E+02  0.85331709978E+02 0.  0.
         25    2    1    2    0    0  0.10553080311E+03  0.43662435444E+02  0.41404592880E+02  0.17436304824E+03  0.12507986891E+03 0.  0.
        -24    2    1    2    0    0 -0.70271910776E+02 -0.43458566215E+02  0.13075089412E+04  0.13124921461E+04  0.78925369621E+02 0.  0.
        -13    1    3    3    0    0  0.14202243681E+02 -0.28632227862E+02 -0.21426533233E+02  0.38478624252E+02  0.00000000000E+00 0.  1.
         14    1    3    3    0    0 -0.49461136019E+02  0.28428358633E+02 -0.34985926488E+01  0.57156064432E+02  0.00000000000E+00 0. -1.
         13    1    5    5    0    0 -0.99776153694E+01 -0.13703890373E+02  0.43350372390E+02  0.46546795874E+02  0.00000000000E+00 0. -1.
        -14    1    5    5    0    0 -0.60294295407E+02 -0.29754675843E+02  0.12641585688E+04  0.12659453502E+04  0.00000000000E+00 0.  1.
          5    1    4    4  501    0 -0.11291800771E+02  0.50039754573E+02  0.47448852571E+01  0.51686247092E+02  0.41800000000E+01 0.  1.
         -5    1    4    4    0  501  0.11682260388E+03 -0.63773191294E+01  0.36659707623E+02  0.12267680115E+03  0.41800000000E+01 0.  1.
</event>
<event>
11    1  0.9238666E-009  0.1342698E+03  0.7561462E-02  0.1114131E+00
         22   -1    0    0    0    0  0.00000000000E+00  0.00000000000E+00  0.56376201729E+03  0.56376201729E+03  0.00000000000E+00 0. -1.
         22   -1    0    0    0    0 -0.00000000000E+00 -0.00000000000E+00 -0.12370373737E+04  0.12370373737E+04  0.00000000000E+00 0.  1.
        -24    2    1    2    0    0 -0.47734309349E+02  0.90838313246E+01 -0.99745862532E+03  0.10021585126E+04  0.83886202425E+02 0.  0.
         25    2    1    2    0    0  0.37518060695E+02 -0.60000291975E+02 -0.21079877129E+03  0.25512955537E+03  0.12508928063E+03 0.  0.
         24    2    1    2    0    0  0.10216248653E+02  0.50916460650E+02  0.53498204022E+03  0.54351132296E+03  0.80634466090E+02 0.  0.
        -13    1    5    5    0    0  0.67091672119E+01  0.14100418088E+02  0.13275746607E+02  0.20495857213E+02  0.00000000000E+00 0.  1.
         14    1    5    5    0    0  0.35070814416E+01  0.36816042562E+02  0.52170629362E+03  0.52301546574E+03  0.00000000000E+00 0. -1.
         11    1    3    3    0    0 -0.39145783679E+02  0.31253976991E+02 -0.28956792028E+03  0.29386865078E+03  0.00000000000E+00 0. -1.
        -12    1    3    3    0    0 -0.85885256699E+01 -0.22170145667E+02 -0.70789070505E+03  0.70828986187E+03  0.00000000000E+00 0.  1.
          5    1    4    4  501    0 -0.55798365708E+01  0.19505467586E+02  0.48274117017E+01  0.21269088970E+02  0.41800000000E+01 0. -1.
         -5    1    4    4    0  501  0.43097897266E+02 -0.79505759560E+02 -0.21562618300E+03  0.23386046640E+03  0.41800000000E+01 0. -1.
</event>
<event>
11    1  0.9238666E-009  0.1399336E+03  0.7561462E-02  0.1107633E+00
         22   -1    0    0    0    0  0.00000000000E+00  0.00000000000E+00  0.31182259619E+02  0.31182259619E+02  0.00000000000E+00 0. -1.
         22   -1    0    0    0    0 -0.00000000000E+00 -0.00000000000E+00 -0.28901695684E+04  0.28901695684E+04  0.00000000000E+00 0.  1.
         24    2    1    2    0    0 -0.55055765109E+02  0.51110526705E+02 -0.20457954340E+04  0.20487718645E+04  0.80893581456E+02 0.  0.
         25    2    1    2    0    0  0.34696769297E+02  0.23204604711E+02 -0.71208967044E+03  0.72419758713E+03  0.12509247367E+03 0.  0.
        -24    2    1    2    0    0  0.20358995812E+02 -0.74315131416E+02 -0.10110220427E+03  0.14838237639E+03  0.76540488937E+02 0.  0.
        -11    1    3    3    0    0 -0.48783747548E+02  0.72512341936E+02 -0.17151521811E+04  0.17173773313E+04  0.00000000000E+00 0.  1.
         12    1    3    3    0    0 -0.62720175609E+01 -0.21401815231E+02 -0.33064325291E+03  0.33139453314E+03  0.00000000000E+00 0. -1.
         13    1    5    5    0    0  0.34495249800E+02 -0.67291693330E+02 -0.40545641054E+02  0.85802349958E+02  0.00000000000E+00 0. -1.
        -14    1    5    5    0    0 -0.14136253987E+02 -0.70234380862E+01 -0.60556563220E+02  0.62580026433E+02  0.00000000000E+00 0.  1.
          5    1    4    4  501    0 -0.35360041015E+02 -0.27663813712E+02 -0.25758130152E+03  0.26149802749E+03  0.41800000000E+01 0.  1.
         -5    1    4    4    0  501  0.70056810312E+02  0.50868418423E+02 -0.45450836892E+03  0.46269955963E+03  0.41800000000E+01 0.  1.
</event>
<event>
11    1  0.9238666E-009  0.1322016E+03  0.7561462E-02  0.1116593E+00
         22   -1    0    0    0    0  0.00000000000E+00  0.00000000000E+00  0.12452267290E+03  0.12452267290E+03  0.00000000000E+00 0. -1.
         22   -1    0    0    0    0 -0.00000000000E+00 -0.00000000000E+00 -0.13498176599E+04  0.13498176599E+04  0.00000000000E+00 0. -1.
        -24    2    1    2    0    0  0.47955240678E+02 -0.23293495638E+02 -0.89198412814E+03  0.89739039421E+03  0.82653147022E+02 0.  0.
         25    2    1    2    0    0  0.64472519267E+01  0.24142129791E+02 -0.42595684755E+03  0.44464747213E+03  0.12509088301E+03 0.  0.
         24    2    1    2    0    0 -0.54402492604E+02 -0.84863415324E+00  0.92645988727E+02  0.13230246643E+03  0.77203057030E+02 0.  0.
        -11    1    5    5    0    0  0.97876576628E+01  0.20195418138E+02  0.42882258537E+02  0.48399806337E+02  0.00000000000E+00 0.  1.
         12    1    5    5    0    0 -0.64190150267E+02 -0.21044052291E+02  0.49763730190E+02  0.83902660092E+02  0.00000000000E+00 0. -1.
         11    1    3    3    0    0  0.37152592202E+02 -0.53545126206E+02 -0.65614552389E+03  0.65937420648E+03  0.00000000000E+00 0. -1.
        -12    1    3    3    0    0  0.10802648476E+02  0.30251630568E+02 -0.23583860425E+03  0.23801618773E+03  0.00000000000E+00 0.  1.
          5    1    4    4  501    0  0.23020840524E+02  0.62553665576E+02 -0.13444511489E+03  0.15011955733E+03  0.41800000000E+01 0.  1.
         -5    1    4    4    0  501 -0.16573588598E+02 -0.38411535785E+02 -0.29151173266E+03  0.29452791480E+03  0.41800000000E+01 0.  1.
</event>
<event>
11    1  0.9238666E-009  0.1843651E+03  0.7561462E-02  0.1066166E+00
         22   -1    0    0    0    0  0.00000000000E+00  0.00000000000E+00  0.16603626498E+04  0.16603626498E+04  0.00000000000E+00 0. -1.
         22   -1    0    0    0    0 -0.00000000000E+00 -0.00000000000E+00 -0.78382178324E+03  0.78382178324E+03  0.00000000000E+00 0. -1.
         24    2    1    2    0    0  0.80043211542E+02  0.10734847791E+03 -0.65962237308E+03  0.67781475150E+03  0.80003442739E+02 0.  0.
         25    2    1    2    0    0 -0.16725862816E+03 -0.63226441286E+02 -0.67084119886E+01  0.21831774861E+03  0.12507839540E+03 0.  0.
        -24    2    1    2    0    0  0.87215416621E+02 -0.44122036623E+02  0.15428716516E+04  0.15480519329E+04  0.80365232668E+02 0.  0.
        -11    1    3    3    0    0  0.15700541734E+02  0.16452584963E+02 -0.26270939618E+02  0.34747040610E+02  0.00000000000E+00 0.  1.
         12    1    3    3    0    0  0.64342669808E+02  0.90895892947E+02 -0.63335143347E+03  0.64306771089E+03  0.00000000000E+00 0. -1.
         13    1    5    5    0    0  0.94628291320E+02 -0.51321500917E+02  0.11457893057E+04  0.11508351502E+04  0.00000000000E+00 0. -1.
        -14    1    5    5    0    0 -0.74128746985E+01  0.71994642939E+01  0.39708234595E+03  0.39721678271E+03  0.00000000000E+00 0.  1.
          5    1    4    4  501    0 -0.94511264067E+02 -0.72669943425E+02 -0.53991312001E+02  0.13094210127E+03  0.41800000000E+01 0. -1.
         -5    1    4    4    0  501 -0.72747364096E+02  0.94435021389E+01  0.47282900013E+02  0.87375647346E+02  0.41800000000E+01 0. -1.
</event>
<event>
11    1  0.9238666E-009  0.1387827E+03  0.7561462E-02  0.1108925E+00
         22   -1    0    0    0    0  0.00000000000E+00  0.00000000000E+00  0.37111427669E+03  0.37111427669E+03  0.00000000000E+00 0. -1.
         22   -1    0    0    0    0 -0.00000000000E+00 -0.00000000000E+00 -0.79955421959E+03  0.79955421959E+03  0.00000000000E+00 0. -1.
        -24    2    1    2    0    0  0.55602705594E+02  0.22879287033E+02 -0.75745236440E+03  0.76465306915E+03  0.85703612424E+02 0.  0.
         25    2    1    2    0    0 -0.48430355284E+02 -0.37551491317E+02  0.13074165457E+03  0.19104223269E+03  0.12509252823E+03 0.  0.
         24    2    1    2    0    0 -0.71723503107E+01  0.14672204285E+02  0.19827076693E+03  0.21497319444E+03  0.81458339792E+02 0.  0.
        -11    1    5    5    0    0  0.13402789998E+02  0.32896647118E+02  0.36678883774E+02  0.51060402332E+02  0.00000000000E+00 0.  1.
         12    1    5    5    0    0 -0.20575140308E+02 -0.18224442834E+02  0.16159188315E+03  0.16391279211E+03  0.00000000000E+00 0. -1.
         13    1    3    3    0    0  0.77009086027E+02  0.27730178039E+02 -0.63442584749E+03  0.63968392043E+03  0.00000000000E+00 0. -1.
        -14    1    3    3    0    0 -0.21406380433E+02 -0.48508910060E+01 -0.12302651691E+03  0.12496914872E+03  0.00000000000E+00 0.  1.
          5    1    4    4  501    0 -0.60963075529E+02 -0.73939735995E+02  0.68974556653E+02  0.11814627799E+03  0.41800000000E+01 0.  1.
         -5    1    4    4    0  501  0.12532720246E+02  0.36388244677E+02  0.61767097917E+02  0.72895954706E+02  0.41800000000E+01 0.  1.
</event>
<event>
11    1  0.9238666E-009  0.1425687E+03  0.7561462E-02  0.1104723E+00
         22   -1    0    0    0    0  0.00000000000E+00  0.00000000000E+00  0.79113588342E+03  0.79113588342E+03  0.00000000000E+00 0. -1.
         22   -1    0    0    0    0 -0.00000000000E+00 -0.00000000000E+00 -0.49429113094E+03  0.49429113094E+03  0.00000000000E+00 0.  1.
         24    2    1    2    0    0 -0.64420828857E+02  0.69398514890E+01 -0.38631168199E+03  0.39928078093E+03  0.77396522236E+02 0.  0.
         25    2    1    2    0    0  0.10394423287E+03 -0.42221403044E+02 -0.25936248554E+02  0.17002146012E+03  0.12509019742E+03 0.  0.
        -24    2    1    2    0    0 -0.39523404013E+02  0.35281551555E+02  0.70909268302E+03  0.71612477331E+03  0.84943336929E+02 0.  0.
        -13    1    3    3    0    0 -0.76157821294E+02  0.14298648861E+02 -0.36930063130E+03  0.37734257828E+03  0.00000000000E+00 0.  1.
         14    1    3    3    0    0  0.11736992437E+02 -0.73587973723E+01 -0.17011050685E+02  0.21938202653E+02  0.00000000000E+00 0. -1.
         13    1    5    5    0    0 -0.18131465763E+00  0.43632690219E+02  0.56017234652E+03  0.56186911495E+03  0.00000000000E+00 0. -1.
        -14    1    5    5    0    0 -0.39342089355E+02 -0.83511386638E+01  0.14892033650E+03  0.15425565835E+03  0.00000000000E+00 0.  1.
          5    1    4    4  501    0  0.54145581654E+02 -0.17659103295E+02  0.49969330836E+02  0.75881449419E+02  0.41800000000E+01 0.  1.
         -5    1    4    4    0  501  0.49798651216E+02 -0.24562299750E+02 -0.75905579390E+02  0.94140010699E+02  0.41800000000E+01 0.  1.
</event>
<event>
11    1  0.9238666E-009  0.1779720E+03  0.7561462E-02  0.1071295E+00
         22   -1    0    0    0    0  0.00000000000E+00  0.00000000000E+00  0.55992925302E+03  0.55992925302E+03  0.00000000000E+00 0. -1.
         22   -1    0    0    0    0 -0.00000000000E+00 -0.00000000000E+00 -0.67430651887E+03  0.67430651887E+03  0.00000000000E+00 0. -1.
         24    2    1    2    0    0 -0.10265263151E+03  0.74993443404E+02 -0.62794682096E+03  0.64512710732E+03  0.75565834447E+02 0.  0.
         25    2    1    2    0    0  0.10437556006E+03 -0.49545156700E+02  0.17684534394E+03  0.24549965818E+03  0.12508727514E+03 0.  0.
        -24    2    1    2    0    0 -0.17229285518E+01 -0.25448286704E+02  0.33672421117E+03  0.34360900640E+03  0.63508827053E+02 0.  0.
        -13    1    3    3    0    0 -0.90902102843E+00 -0.13207149549E+02 -0.55572603802E+02  0.57127658903E+02  0.00000000000E+00 0.  1.
         14    1    3    3    0    0 -0.10174361048E+03  0.88200592953E+02 -0.57237421716E+03  0.58799944841E+03  0.00000000000E+00 0. -1.
         13    1    5    5    0    0 -0.12692350522E+02 -0.44527983579E+02  0.21813162269E+03  0.22299157361E+03  0.00000000000E+00 0. -1.
        -14    1    5    5    0    0  0.10969421970E+02  0.19079696875E+02  0.11859258848E+03  0.12061743279E+03  0.00000000000E+00 0.  1.
          5    1    4    4  501    0  0.10542939095E+03 -0.79360233184E+01  0.17390434422E+03  0.20356456047E+03  0.41800000000E+01 0.  1.
         -5    1    4    4    0  501 -0.10538308933E+01 -0.41609133381E+02  0.29409997221E+01  0.41935097707E+02  0.41800000000E+01 0.  1.
</event>
<event>
11    1  0.9238666E-009  0.1523485E+03  0.7561462E-02  0.1094503E+00
         22   -1    0    0    0    0  0.00000000000E+00  0.00000000000E+00  0.53420795539E+03  0.53420795539E+03  0.00000000000E+00 0.  1.
         22   -1    0    0    0    0 -0.00000000000E+00 -0.00000000000E+00 -0.90868707658E+03  0.90868707658E+03  0.00000000000E+00 0.  1.
        -24    2    1    2    0    0  0.58435483068E+02  0.69275261216E+01 -0.78214545520E+03  0.78971577945E+03  0.91852070906E+02 0.  0.
         25    2    1    2    0    0  0.13105298671E+02 -0.60744414559E+02 -0.72918942365E+02  0.15756788751E+03  0.12509530073E+03 0.  0.
         24    2    1    2    0    0 -0.71540781739E+02  0.53816888437E+02  0.48058527637E+03  0.49561136500E+03  0.81572521854E+02 0.  0.
        -11    1    5    5    0    0 -0.85099200427E+02  0.31571575727E+02  0.41942227955E+03  0.42913131660E+03  0.00000000000E+00 0.  1.
         12    1    5    5    0    0  0.13558418688E+02  0.22245312711E+02  0.61162996823E+02  0.66480048400E+02  0.00000000000E+00 0. -1.
         11    1    3    3    0    0  0.19806755609E+02  0.52184485700E+01 -0.28595594695E+02  0.35174533532E+02  0.00000000000E+00 0. -1.
        -12    1    3    3    0    0  0.38628727459E+02  0.17090775516E+01 -0.75354986050E+03  0.75454124592E+03  0.00000000000E+00 0.  1.
          5    1    4    4  501    0  0.68239757533E+02 -0.36246152771E+02 -0.53402663328E+02  0.94020024193E+02  0.41800000000E+01 0. -1.
         -5    1    4    4    0  501 -0.55134458862E+02 -0.24498261788E+02 -0.19516279037E+02  0.63547863316E+02  0.41800000000E+01 0. -1.
</event>
<event>
11    1  0.9238666E-009  0.1582176E+03  0.7561462E-02  0.1088766E+00
         22   -1    0    0    0    0  0.00000000000E+00  0.00000000000E+00  0.99848729055E+03  0.99848729055E+03  0.00000000000E+00 0.  1.
         22   -1    0    0    0    0 -0.00000000000E+00 -0.00000000000E+00 -0.11090301418E+03  0.11090301418E+03  0.00000000000E+00 0.  1.
        -24    2    1    2    0    0 -0.56697320210E+02  0.90887273676E+02 -0.28681721588E+01  0.13376426944E+03  0.80059794726E+02 0.  0.
         25    2    1    2    0    0  0.11734275281E+03 -0.92971013059E+01  0.16858269382E+03  0.24067568113E+03  0.12509556789E+03 0.  0.
         24    2    1    2    0    0 -0.60645432601E+02 -0.81590172370E+02  0.72186975472E+03  0.73495035416E+03  0.93387662914E+02 0.  0.
        -11    1    5    5    0    0 -0.18185130157E+02 -0.83051266949E+02  0.59763123353E+03  0.60364832742E+03  0.00000000000E+00 0.  1.
         12    1    5    5    0    0 -0.42460302444E+02  0.14610945793E+01  0.12423852119E+03  0.13130202675E+03  0.00000000000E+00 0. -1.
         11    1    3    3    0    0 -0.35330345390E+02  0.90121980138E+02  0.23702534008E+02  0.99659493917E+02  0.00000000000E+00 0. -1.
        -12    1    3    3    0    0 -0.21366974819E+02  0.76529353733E+00 -0.26570706167E+02  0.34104775521E+02  0.00000000000E+00 0.  1.
          5    1    4    4  501    0  0.14330951026E+03 -0.19917428847E+01  0.13092966156E+03  0.19416907954E+03  0.41800000000E+01 0. -1.
         -5    1    4    4    0  501 -0.25966757452E+02 -0.73053584212E+01  0.37653032254E+02  0.46506601597E+02  0.41800000000E+01 0. -1.
</event>
<event>
11    1  0.9238666E-009  0.1367492E+03  0.7561462E-02  0.1111244E+00
         22   -1    0    0    0    0  0.00000000000E+00  0.00000000000E+00  0.11199976500E+04  0.11199976500E+04  0.00000000000E+00 0. -1.
         22   -1    0    0    0    0 -0.00000000000E+00 -0.00000000000E+00 -0.25801063273E+03  0.25801063273E+03  0.00000000000E+00 0. -1.
         24    2    1    2    0    0  0.18682561768E+02 -0.36573486527E+02 -0.19279602203E+03  0.21305255565E+03  0.80835804742E+02 0.  0.
         25    2    1    2    0    0  0.30962211822E+02  0.60815003842E+02  0.43701955343E+02  0.14904834632E+03  0.12509366645E+03 0.  0.
        -24    2    1    2    0    0 -0.49644773590E+02 -0.24241517315E+02  0.10110810839E+04  0.10159073807E+04  0.82040192917E+02 0.  0.
        -11    1    3    3    0    0  0.47633034201E+02 -0.67652167290E+01 -0.87509718122E+02  0.99863030549E+02  0.00000000000E+00 0.  1.
         12    1    3    3    0    0 -0.28950472433E+02 -0.29808269798E+02 -0.10528630391E+03  0.11318952510E+03  0.00000000000E+00 0. -1.
         11    1    5    5    0    0 -0.62931279414E+02  0.54911411080E+00  0.85494094363E+03  0.85725414234E+03  0.00000000000E+00 0. -1.
        -12    1    5    5    0    0  0.13286505824E+02 -0.24790631425E+02  0.15614014030E+03  0.15865323840E+03  0.00000000000E+00 0.  1.
          5    1    4    4  501    0 -0.38461976393E+02  0.59704914798E+02  0.10301094606E+02  0.71885919548E+02  0.41800000000E+01 0.  1.
         -5    1    4    4    0  501  0.69424188215E+02  0.11100890436E+01  0.33400860736E+02  0.77162426770E+02  0.41800000000E+01 0.  1.
</event>
<event>
11    1  0.9238666E-009  0.1934436E+03  0.7561462E-02  0.1059259E+00
         22   -1    0    0    0    0  0.00000000000E+00  0.00000000000E+00  0.35177661136E+04  0.35177661136E+04  0.00000000000E+00 0. -1.
         22   -1    0    0    0    0 -0.00000000000E+00 -0.00000000000E+00 -0.36039073926E+03  0.36039073926E+03  0.00000000000E+00 0.  1.
         24    2    1    2    0    0 -0.10997871204E+03 -0.99591541538E+02 -0.33380235195E+03  0.37417748231E+03  0.81061617607E+02 0.  0.
         25    2    1    2    0    0  0.82690116283E+02  0.58146473868E+02  0.11830432722E+04  0.11939238335E+04  0.12507625078E+03 0.  0.
        -24    2    1    2    0    0  0.27288595758E+02  0.41445067670E+02  0.23081344540E+04  0.23100555370E+04  0.80059759434E+02 0.  0.
        -13    1    3    3    0    0 -0.82558386051E+02 -0.85489969863E+02 -0.31809858070E+03  0.33957492413E+03  0.00000000000E+00 0.  1.
         14    1    3    3    0    0 -0.27420325990E+02 -0.14101571675E+02 -0.15703771259E+02  0.34602558183E+02  0.00000000000E+00 0. -1.
         13    1    5    5    0    0  0.30287369688E+02  0.25129890218E+02  0.22214236597E+04  0.22217722457E+04  0.00000000000E+00 0. -1.
        -14    1    5    5    0    0 -0.29987739305E+01  0.16315177452E+02  0.86710794348E+02  0.88283291267E+02  0.00000000000E+00 0.  1.
          5    1    4    4  501    0  0.35778422042E+02  0.15964743165E+02  0.81063168272E+02  0.90131449331E+02  0.41800000000E+01 0.  1.
         -5    1    4    4    0  501  0.46911694241E+02  0.42181730703E+02  0.11019801040E+04  0.11037923842E+04  0.41800000000E+01 0.  1.
</event>
<event>
11    1  0.9238666E-009  0.1759893E+03  0.7561462E-02  0.1072934E+00
         22   -1    0    0    0    0  0.00000000000E+00  0.00000000000E+00  0.46956575449E+03  0.46956575449E+03  0.00000000000E+00 0. -1.
         22   -1    0    0    0    0 -0.00000000000E+00 -0.00000000000E+00 -0.36628048177E+03  0.36628048177E+03  0.00000000000E+00 0. -1.
        -24    2    1    2    0    0  0.57561962389E+02 -0.27061975501E+02 -0.19803707579E+03  0.22284164629E+03  0.79962403057E+02 0.  0.
         25    2    1    2    0    0 -0.83026703504E+02 -0.95313941170E+02 -0.86060854575E+02  0.19756543864E+03  0.12508977167E+03 0.  0.
         24    2    1    2    0    0  0.25464741116E+02  0.12237591667E+03  0.38738320310E+03  0.41543915133E+03  0.83063977711E+02 0.  0.
        -11    1    5    5    0    0 -0.14769113787E+02  0.34833809534E+01  0.10921604509E+03  0.11026515846E+03  0.00000000000E+00 0.  1.
         12    1    5    5    0    0  0.40233854903E+02  0.11889253572E+03  0.27816715801E+03  0.30517399287E+03  0.00000000000E+00 0. -1.
         11    1    3    3    0    0  0.12621669127E+02  0.18112575897E+02 -0.98780583082E+01  0.24185697697E+02  0.00000000000E+00 0. -1.
        -12    1    3    3    0    0  0.44940293262E+02 -0.45174551398E+02 -0.18815901748E+03  0.19865594860E+03  0.00000000000E+00 0.  1.
          5    1    4    4  501    0 -0.10080271203E+03 -0.11363017701E+03 -0.74487098330E+02  0.16923003308E+03  0.41800000000E+01 0. -1.
         -5    1    4    4    0  501  0.17776008525E+02  0.18316235838E+02 -0.11573756245E+02  0.28335405555E+02  0.41800000000E+01 0. -1.
</event>
<event>
11    1  0.9238666E-009  0.1428892E+03  0.7561462E-02  0.1104374E+00
         22   -1    0    0    0    0  0.00000000000E+00  0.00000000000E+00  0.28461367529E+03  0.28461367529E+03  0.00000000000E+00 0.  1.
         22   -1    0    0    0    0 -0.00000000000E+00 -0.00000000000E+00 -0.61012771272E+03  0.61012771272E+03  0.00000000000E+00 0. -1.
         24    2    1    2    0    0  0.12011143120E+02  0.84901628381E+02 -0.39549318593E+03  0.41258644679E+03  0.80375132328E+02 0.  0.
         25    2    1    2    0    0 -0.16782981926E+02 -0.25024281394E+02 -0.17497995131E+03  0.21722578803E+03  0.12514462228E+03 0.  0.
        -24    2    1    2    0    0  0.47718388060E+01 -0.59877346987E+02  0.24495909981E+03  0.26492915318E+03  0.81082849593E+02 0.  0.
        -11    1    3    3    0    0  0.11378899332E+02 -0.58337956379E+01 -0.91318121395E+01  0.15713131913E+02  0.00000000000E+00 0.  1.
         12    1    3    3    0    0  0.63224378813E+00  0.90735424018E+02 -0.38636137379E+03  0.39687331488E+03  0.00000000000E+00 0. -1.
         11    1    5    5    0    0  0.39572166314E+02 -0.36700933867E+02  0.95112987419E+02  0.10935902006E+03  0.00000000000E+00 0. -1.
        -12    1    5    5    0    0 -0.34800327508E+02 -0.23176413120E+02  0.14984611239E+03  0.15557013312E+03  0.00000000000E+00 0.  1.
          5    1    4    4  501    0 -0.46280262674E+02 -0.61360027777E+02 -0.78647141297E+02  0.11004435904E+03  0.41800000000E+01 0. -1.
         -5    1    4    4    0  501  0.29497280748E+02  0.36335746384E+02 -0.96332810008E+02  0.10718142899E+03  0.41800000000E+01 0. -1.
</event>
<event>
11    1  0.9238666E-009  0.2445124E+03  0.7561462E-02  0.1026864E+00
         22   -1    0    0    0    0  0.00000000000E+00  0.00000000000E+00  0.62217727403E+03  0.62217727403E+03  0.00000000000E+00 0.  1.
         22   -1    0    0    0    0 -0.00000000000E+00 -0.00000000000E+00 -0.68588566477E+03  0.68588566477E+03  0.00000000000E+00 0.  1.
         24    2    1    2    0    0 -0.10038181669E+02  0.54166992793E+02 -0.35463721287E+03  0.36794693791E+03  0.81133027574E+02 0.  0.
         25    2    1    2    0    0 -0.14209530855E+03  0.95129327487E+02 -0.26514911167E+03  0.33941757560E+03  0.12513821778E+03 0.  0.
        -24    2    1    2    0    0  0.15213349021E+03 -0.14929632028E+03  0.55607793381E+03  0.60069842528E+03  0.78625311264E+02 0.  0.
        -13    1    3    3    0    0 -0.22043545435E+02  0.24939860845E+02 -0.31727179237E+03  0.31901301665E+03  0.00000000000E+00 0.  1.
         14    1    3    3    0    0  0.12005363766E+02  0.29227131948E+02 -0.37365420500E+02  0.48933921263E+02  0.00000000000E+00 0. -1.
         11    1    5    5    0    0 -0.47473650971E+01  0.37749418571E+01  0.58769151394E+01  0.84454599013E+01  0.00000000000E+00 0. -1.
        -12    1    5    5    0    0  0.15688085531E+03 -0.15307126214E+03  0.55020101867E+03  0.59225296538E+03  0.00000000000E+00 0.  1.
          5    1    4    4  501    0 -0.10783456676E+03  0.12483704727E+03 -0.19110124755E+03  0.25248711130E+03  0.41800000000E+01 0.  1.
         -5    1    4    4    0  501 -0.34260741780E+02 -0.29707719782E+02 -0.74047864125E+02  0.86930464300E+02  0.41800000000E+01 0.  1.
</event>
<event>
11    1  0.1253579E-008  0.1611420E+03  0.7561462E-02  0.1086008E+00
         22   -1    0    0    0    0  0.00000000000E+00  0.00000000000E+00  0.82915028072E+03  0.82915028072E+03  0.00000000000E+00 0. -1.
         22   -1    0    0    0    0 -0.00000000000E+00 -0.00000000000E+00 -0.27808393181E+03  0.27808393181E+03  0.00000000000E+00 0. -1.
         24    2    1    2    0    0 -0.38165125466E+02  0.52588877686E+02 -0.12387748704E+03  0.16155851648E+03  0.80829175390E+02 0.  0.
         25    2    1    2    0    0 -0.64913786054E+02 -0.46852240568E+02 -0.87341816585E+02  0.17229662780E+03  0.12509437622E+03 0.  0.
        -24    2    1    2    0    0  0.10307891152E+03 -0.57366371188E+01  0.76228565254E+03  0.77337906824E+03  0.79859853026E+02 0.  0.
        -13    1    3    3    0    0 -0.31796832729E+02  0.32540570636E+02 -0.11093197345E+02  0.46829332008E+02  0.00000000000E+00 0.  1.
         14    1    3    3    0    0 -0.63682927365E+01  0.20048307050E+02 -0.11278428970E+03  0.11472918447E+03  0.00000000000E+00 0. -1.
         13    1    5    5    0    0  0.93493298377E+02 -0.24088915826E+02  0.71835309024E+03  0.72481199974E+03  0.00000000000E+00 0. -1.
        -14    1    5    5    0    0  0.95856131423E+01  0.18352278707E+02  0.43932562298E+02  0.48567068504E+02  0.00000000000E+00 0.  1.
          5    1    4    4  501    0 -0.18480129147E+02 -0.40063959693E+02 -0.11104121489E+03  0.11955860422E+03  0.41800000000E+01 0. -1.
         -5    1    4    4    0  501 -0.46433656906E+02 -0.67882808742E+01  0.23699398305E+02  0.52738023578E+02  0.41800000000E+01 0. -1.
</event>
<event>
11    1  0.9238666E-009  0.1495308E+03  0.7561462E-02  0.1097359E+00
         22   -1    0    0    0    0  0.00000000000E+00  0.00000000000E+00  0.26915516253E+03  0.26915516253E+03  0.00000000000E+00 0.  1.
         22   -1    0    0    0    0 -0.00000000000E+00 -0.00000000000E+00 -0.15049261354E+03  0.15049261354E+03  0.00000000000E+00 0.  1.
        -24    2    1    2    0    0 -0.22351521775E+02  0.28902540146E+02 -0.57131615841E+02  0.96356203444E+02  0.68451070562E+02 0.  0.
         25    2    1    2    0    0 -0.76184672343E+01 -0.97684295858E+02  0.83437059349E+02  0.17947153850E+03  0.12509207633E+03 0.  0.
         24    2    1    2    0    0  0.29969989009E+02  0.68781755712E+02  0.92357105479E+02  0.14382003412E+03  0.80778939845E+02 0.  0.
        -13    1    5    5    0    0  0.90015602173E+01  0.39653588830E+02  0.99265234848E+02  0.10727078840E+03  0.00000000000E+00 0.  1.
         14    1    5    5    0    0  0.20968428792E+02  0.29128166881E+02 -0.69081293690E+01  0.36549245727E+02  0.00000000000E+00 0. -1.
         13    1    3    3    0    0 -0.30652011952E+02 -0.18372820090E+00  0.11703963677E+01  0.30674898866E+02  0.00000000000E+00 0. -1.
        -14    1    3    3    0    0  0.83004901778E+01  0.29086268347E+02 -0.58302012209E+02  0.65681304579E+02  0.00000000000E+00 0.  1.
          5    1    4    4  501    0  0.43463902150E+02  0.47467756459E+01  0.29188194637E+02  0.52735811127E+02  0.41800000000E+01 0. -1.
         -5    1    4    4    0  501 -0.51082369384E+02 -0.10243107150E+03  0.54248864712E+02  0.12673572738E+03  0.41800000000E+01 0. -1.
</event>
<event>
11    1  0.9238666E-009  0.1387685E+03  0.7561462E-02  0.1108941E+00
         22   -1    0    0    0    0  0.00000000000E+00  0.00000000000E+00  0.85200832595E+03  0.85200832595E+03  0.00000000000E+00 0.  1.
         22   -1    0    0    0    0 -0.00000000000E+00 -0.00000000000E+00 -0.16119909800E+04  0.16119909800E+04  0.00000000000E+00 0.  1.
         24    2    1    2    0    0 -0.57814892518E+02 -0.26092827739E+02 -0.14752624087E+04  0.14788267306E+04  0.80659327048E+02 0.  0.
         25    2    1    2    0    0 -0.55793196236E+01  0.18952502196E+02 -0.10136075577E+03  0.16220793668E+03  0.12508831186E+03 0.  0.
        -24    2    1    2    0    0  0.63394212142E+02  0.71403255436E+01  0.81664051048E+03  0.82296463865E+03  0.79367894855E+02 0.  0.
        -11    1    3    3    0    0 -0.74452215062E+02 -0.39271267720E+01 -0.10195709310E+04  0.10222932250E+04  0.00000000000E+00 0.  1.
         12    1    3    3    0    0  0.16637322544E+02 -0.22165700967E+02 -0.45569147777E+03  0.45653350557E+03  0.00000000000E+00 0. -1.
         11    1    5    5    0    0  0.23993681891E+02  0.23024063758E+02  0.10687333923E+03  0.11192727514E+03  0.00000000000E+00 0. -1.
        -12    1    5    5    0    0  0.39400530251E+02 -0.15883738214E+02  0.70976717124E+03  0.71103736350E+03  0.00000000000E+00 0.  1.
          5    1    4    4  501    0 -0.62355297035E+02 -0.22354682664E+01 -0.32823930781E+02  0.70626221891E+02  0.41800000000E+01 0.  1.
         -5    1    4    4    0  501  0.56775977411E+02  0.21187970462E+02 -0.68536824991E+02  0.91581714786E+02  0.41800000000E+01 0.  1.
</event>
<event>
11    1  0.9238666E-009  0.1639995E+03  0.7561462E-02  0.1083375E+00
         22   -1    0    0    0    0  0.00000000000E+00  0.00000000000E+00  0.17322834230E+03  0.17322834230E+03  0.00000000000E+00 0.  1.
         22   -1    0    0    0    0 -0.00000000000E+00 -0.00000000000E+00 -0.87996494606E+03  0.87996494606E+03  0.00000000000E+00 0. -1.
         24    2    1    2    0    0 -0.12547368275E+02 -0.49314154032E+02 -0.42044606498E+03  0.43145626926E+03  0.82403255328E+02 0.  0.
         25    2    1    2    0    0  0.10421397204E+03  0.97510889985E+02 -0.39982097138E+03  0.44257485956E+03  0.12508705578E+03 0.  0.
        -24    2    1    2    0    0 -0.91666603764E+02 -0.48196735953E+02  0.11353043260E+03  0.17916215953E+03  0.92109872865E+02 0.  0.
        -11    1    3    3    0    0 -0.58060237829E+01 -0.58610203084E+02 -0.15579411299E+03  0.16655531052E+03  0.00000000000E+00 0.  1.
         12    1    3    3    0    0 -0.67413444921E+01  0.92960490520E+01 -0.26465195199E+03  0.26490095874E+03  0.00000000000E+00 0. -1.
         11    1    5    5    0    0  0.11746489716E+02  0.82077195663E+01  0.34374417634E+02  0.37241740948E+02  0.00000000000E+00 0. -1.
        -12    1    5    5    0    0 -0.10341309348E+03 -0.56404455519E+02  0.79156014970E+02  0.14192041859E+03  0.00000000000E+00 0.  1.
          5    1    4    4  501    0  0.97300481830E+02  0.64193932658E+01 -0.22571268083E+03  0.24591112025E+03  0.41800000000E+01 0. -1.
         -5    1    4    4    0  501  0.69134902098E+01  0.91091496720E+02 -0.17410829055E+03  0.19666373931E+03  0.41800000000E+01 0. -1.
</event>
<event>
11    1  0.9238666E-009  0.1588836E+03  0.7561462E-02  0.1088132E+00
         22   -1    0    0    0    0  0.00000000000E+00  0.00000000000E+00  0.24464876215E+03  0.24464876215E+03  0.00000000000E+00 0.  1.
         22   -1    0    0    0    0 -0.00000000000E+00 -0.00000000000E+00 -0.70664649474E+03  0.70664649474E+03  0.00000000000E+00 0. -1.
        -24    2    1    2    0    0 -0.65972426077E+01 -0.18926001312E+02 -0.51602518746E+03  0.52286734738E+03  0.81893538951E+02 0.  0.
         25    2    1    2    0    0 -0.68786358063E+02 -0.46638515800E+02 -0.13217008848E+03  0.20006176872E+03  0.12509622218E+03 0.  0.
         24    2    1    2    0    0  0.75383600671E+02  0.65564517113E+02  0.18619754334E+03  0.22836614079E+03  0.86603556268E+02 0.  0.
        -11    1    5    5    0    0  0.87568748063E+02  0.32312167498E+02  0.10947910515E+03  0.14386812110E+03  0.00000000000E+00 0.  1.
         12    1    5    5    0    0 -0.12185147393E+02  0.33252349615E+02  0.76718438199E+02  0.84498019690E+02  0.00000000000E+00 0. -1.
         11    1    3    3    0    0  0.34028066564E+02  0.65943489002E+01 -0.26925125384E+03  0.27147307867E+03  0.00000000000E+00 0. -1.
        -12    1    3    3    0    0 -0.40625309171E+02 -0.25520350213E+02 -0.24677393363E+03  0.25139426870E+03  0.00000000000E+00 0.  1.
          5    1    4    4  501    0 -0.39947710120E+02  0.56441190054E+01 -0.13417667030E+03  0.14017320313E+03  0.41800000000E+01 0.  1.
         -5    1    4    4    0  501 -0.28838647943E+02 -0.52282634806E+02  0.20065818223E+01  0.59888565587E+02  0.41800000000E+01 0.  1.
</event>
<event>
11    1  0.9238666E-009  0.1367351E+03  0.7561462E-02  0.1111260E+00
         22   -1    0    0    0    0  0.00000000000E+00  0.00000000000E+00  0.12758883821E+04  0.12758883821E+04  0.00000000000E+00 0.  1.
         22   -1    0    0    0    0 -0.00000000000E+00 -0.00000000000E+00 -0.10193832615E+04  0.10193832615E+04  0.00000000000E+00 0. -1.
        -24    2    1    2    0    0 -0.19936837885E+02  0.51502996420E+02 -0.10061739583E+04  0.10108679100E+04  0.80111552835E+02 0.  0.
         25    2    1    2    0    0  0.36392114457E+02 -0.42491806455E+02  0.53909562788E+03  0.55623883155E+03  0.12509037578E+03 0.  0.
         24    2    1    2    0    0 -0.16455276572E+02 -0.90111899646E+01  0.72358345109E+03  0.72816490206E+03  0.79367097937E+02 0.  0.
        -11    1    5    5    0    0  0.20408794019E+01 -0.27678613303E+02  0.63879083589E+03  0.63939346480E+03  0.00000000000E+00 0.  1.
         12    1    5    5    0    0 -0.18496155974E+02  0.18667423338E+02  0.84792615202E+02  0.88771437257E+02  0.00000000000E+00 0. -1.
         13    1    3    3    0    0 -0.39609006524E+02  0.49795946374E+02 -0.46490888347E+03  0.46924277256E+03  0.00000000000E+00 0. -1.
        -14    1    3    3    0    0  0.19672168638E+02  0.17070500459E+01 -0.54126507486E+03  0.54162513743E+03  0.00000000000E+00 0.  1.
          5    1    4    4  501    0 -0.11010718976E+02  0.16223550595E+02  0.37543803852E+03  0.37597291484E+03  0.41800000000E+01 0. -1.
         -5    1    4    4    0  501  0.47402833434E+02 -0.58715357050E+02  0.16365758936E+03  0.18026591671E+03  0.41800000000E+01 0. -1.
</event>
<event>
11    1  0.9238666E-009  0.1343133E+03  0.7561462E-02  0.1114080E+00
         22   -1    0    0    0    0  0.00000000000E+00  0.00000000000E+00  0.18988558096E+04  0.18988558096E+04  0.00000000000E+00 0.  1.
         22   -1    0    0    0    0 -0.00000000000E+00 -0.00000000000E+00 -0.13617674545E+03  0.13617674545E+03  0.00000000000E+00 0.  1.
        -24    2    1    2    0    0 -0.46686502983E+02 -0.78616923772E+01 -0.10370695428E+03  0.13912203389E+03  0.79739401683E+02 0.  0.
         25    2    1    2    0    0  0.45427499731E+02 -0.41855338777E+02  0.36780903226E+03  0.39337763660E+03  0.12508778377E+03 0.  0.
         24    2    1    2    0    0  0.12590032528E+01  0.49717031155E+02  0.14985769861E+04  0.15025328845E+04  0.96946982536E+02 0.  0.
        -13    1    5    5    0    0 -0.32987352534E+02  0.60751279536E+02  0.11577429318E+04  0.11598049748E+04  0.00000000000E+00 0.  1.
         14    1    5    5    0    0  0.34246355787E+02 -0.11034248381E+02  0.34083405435E+03  0.34272790975E+03  0.00000000000E+00 0. -1.
         11    1    3    3    0    0  0.48281115995E+00  0.20180859814E+02 -0.74035749780E+02  0.76738467896E+02  0.00000000000E+00 0. -1.
        -12    1    3    3    0    0 -0.47169314143E+02 -0.28042552192E+02 -0.29671204501E+02  0.62383565999E+02  0.00000000000E+00 0.  1.
          5    1    4    4  501    0 -0.48550066819E+01 -0.68456366636E+02  0.11309092071E+03  0.13235132780E+03  0.41800000000E+01 0. -1.
         -5    1    4    4    0  501  0.50282506413E+02  0.26601027859E+02  0.25471811155E+03  0.26102630880E+03  0.41800000000E+01 0. -1.
</event>
<event>
11    1  0.9238666E-009  0.1540060E+03  0.7561462E-02  0.1092854E+00
         22   -1    0    0    0    0  0.00000000000E+00  0.00000000000E+00  0.62904773788E+03  0.62904773788E+03  0.00000000000E+00 0. -1.
         22   -1    0    0    0    0 -0.00000000000E+00 -0.00000000000E+00 -0.91926531636E+02  0.91926531636E+02  0.00000000000E+00 0. -1.
        -24    2    1    2    0    0  0.82667040484E+02 -0.49966564669E+02  0.36701626494E+02  0.13194598567E+03  0.82050207671E+02 0.  0.
         25    2    1    2    0    0 -0.58028012877E+02  0.55226111807E+02  0.97776548605E+02  0.17782086386E+03  0.12507130951E+03 0.  0.
         24    2    1    2    0    0 -0.24639027606E+02 -0.52595471381E+01  0.40264303115E+03  0.41120741999E+03  0.79595145652E+02 0.  0.
        -11    1    5    5    0    0 -0.26791868792E+02  0.74079969357E+01  0.42181475517E+02  0.50516923192E+02  0.00000000000E+00 0.  1.
         12    1    5    5    0    0  0.21528411858E+01 -0.12667544074E+02  0.36046155563E+03  0.36069049680E+03  0.00000000000E+00 0. -1.
         13    1    3    3    0    0  0.53502177106E+02 -0.72151338101E+02  0.22116515829E+02  0.92506425816E+02  0.00000000000E+00 0. -1.
        -14    1    3    3    0    0  0.29164863378E+02  0.22184773431E+02  0.14585110664E+02  0.39439559850E+02  0.00000000000E+00 0.  1.
          5    1    4    4  501    0 -0.73563056021E+02 -0.32658666601E+01  0.15113787612E+02  0.75286705813E+02  0.41800000000E+01 0. -1.
         -5    1    4    4    0  501  0.15535043144E+02  0.58491978468E+02  0.82662760992E+02  0.10253415804E+03  0.41800000000E+01 0. -1.
</event>
<event>
11    1  0.9238666E-009  0.2516119E+03  0.7561462E-02  0.1023044E+00
         22   -1    0    0    0    0  0.00000000000E+00  0.00000000000E+00  0.32367810443E+03  0.32367810443E+03  0.00000000000E+00 0. -1.
         22   -1    0    0    0    0 -0.00000000000E+00 -0.00000000000E+00 -0.35316212436E+03  0.35316212436E+03  0.00000000000E+00 0.  1.
         24    2    1    2    0    0  0.20863758951E+03 -0.15720377093E+03 -0.13776976047E+03  0.30529643970E+03  0.77348172820E+02 0.  0.
         25    2    1    2    0    0 -0.15374708765E+03  0.57541292892E+02  0.21943651593E+02  0.20755286901E+03  0.12508997658E+03 0.  0.
        -24    2    1    2    0    0 -0.54890501860E+02  0.99662478040E+02  0.86342088950E+02  0.16399092009E+03  0.80575981678E+02 0.  0.
        -13    1    3    3    0    0  0.18781062005E+03 -0.11831931064E+03 -0.87969683135E+02  0.23876966605E+03  0.00000000000E+00 0.  1.
         14    1    3    3    0    0  0.20826969459E+02 -0.38884460293E+02 -0.49800077337E+02  0.66526773647E+02  0.00000000000E+00 0. -1.
         11    1    5    5    0    0 -0.12628598652E+02  0.44224827244E+02  0.82158713173E+02  0.94156099106E+02  0.00000000000E+00 0. -1.
        -12    1    5    5    0    0 -0.42261903208E+02  0.55437650796E+02  0.41833757765E+01  0.69834820981E+02  0.00000000000E+00 0.  1.
          5    1    4    4  501    0 -0.95784765843E+02 -0.19287184739E+02 -0.24190774800E+02  0.10074414548E+03  0.41800000000E+01 0. -1.
         -5    1    4    4    0  501 -0.57962321807E+02  0.76828477631E+02  0.46134426393E+02  0.10680872353E+03  0.41800000000E+01 0. -1.
</event>
<event>
11    1  0.9238666E-009  0.1373577E+03  0.7561462E-02  0.1110545E+00
         22   -1    0    0    0    0  0.00000000000E+00  0.00000000000E+00  0.68643166716E+03  0.68643166716E+03  0.00000000000E+00 0. -1.
         22   -1    0    0    0    0 -0.00000000000E+00 -0.00000000000E+00 -0.15207304430E+04  0.15207304430E+04  0.00000000000E+00 0. -1.
         24    2    1    2    0    0  0.51209334777E+02  0.24873136149E+02 -0.14448576356E+04  0.14481716403E+04  0.79664569980E+02 0.  0.
         25    2    1    2    0    0 -0.57307284056E+02  0.60885154359E+01 -0.42004122251E+01  0.13779150409E+03  0.12509060841E+03 0.  0.
        -24    2    1    2    0    0  0.60979492783E+01 -0.30961651584E+02  0.61475927194E+03  0.62119896583E+03  0.83446892446E+02 0.  0.
        -13    1    3    3    0    0  0.10422912927E+02 -0.23630052639E+02 -0.19425039919E+03  0.19595977671E+03  0.00000000000E+00 0.  1.
         14    1    3    3    0    0  0.40786421850E+02  0.48503188787E+02 -0.12506072364E+04  0.12522118635E+04  0.00000000000E+00 0. -1.
         13    1    5    5    0    0 -0.11435727899E+02 -0.19608915353E+02  0.58137810179E+03  0.58182109164E+03  0.00000000000E+00 0. -1.
        -14    1    5    5    0    0  0.17533677178E+02 -0.11352736232E+02  0.33381170146E+02  0.39377874188E+02  0.00000000000E+00 0.  1.
          5    1    4    4  501    0  0.62106566740E+01  0.14337264837E+02 -0.54114950290E+02  0.56480347593E+02  0.41800000000E+01 0. -1.
         -5    1    4    4    0  501 -0.63517940730E+02 -0.82487494014E+01  0.49914538065E+02  0.81311156501E+02  0.41800000000E+01 0. -1.
</event>
<event>
11    1  0.9238666E-009  0.1375660E+03  0.7561462E-02  0.1110307E+00
         22   -1    0    0    0    0  0.00000000000E+00  0.00000000000E+00  0.14246177899E+04  0.14246177899E+04  0.00000000000E+00 0.  1.
         22   -1    0    0    0    0 -0.00000000000E+00 -0.00000000000E+00 -0.63128736944E+03  0.63128736944E+03  0.00000000000E+00 0. -1.
         24    2    1    2    0    0  0.11750804434E+01 -0.57089090785E+02 -0.61440776207E+03  0.62290244838E+03  0.85147031699E+02 0.  0.
         25    2    1    2    0    0 -0.52356447328E+02  0.73361777256E+02  0.60339439348E+03  0.62278251506E+03  0.12510043582E+03 0.  0.
        -24    2    1    2    0    0  0.51181366884E+02 -0.16272686471E+02  0.80434378902E+03  0.81022019588E+03  0.81261935960E+02 0.  0.
        -13    1    3    3    0    0  0.26394646080E+02 -0.15875391984E+02 -0.71542466178E+02  0.77891141211E+02  0.00000000000E+00 0.  1.
         14    1    3    3    0    0 -0.25219565637E+02 -0.41213698801E+02 -0.54286529589E+03  0.54501130717E+03  0.00000000000E+00 0. -1.
         13    1    5    5    0    0 -0.90596630450E+01  0.18725417517E+02  0.84913217404E+02  0.87424099913E+02  0.00000000000E+00 0. -1.
        -14    1    5    5    0    0  0.60241029929E+02 -0.34998103988E+02  0.71943057161E+03  0.72279609597E+03  0.00000000000E+00 0.  1.
          5    1    4    4  501    0 -0.43623848618E+02  0.20785006982E+02  0.61822257446E+02  0.78578117815E+02  0.41800000000E+01 0.  1.
         -5    1    4    4    0  501 -0.87325987092E+01  0.52576770274E+02  0.54157213604E+03  0.54420439725E+03  0.41800000000E+01 0.  1.
</event>
<event>
11    1  0.9238666E-009  0.1390837E+03  0.7561462E-02  0.1108586E+00
         22   -1    0    0    0    0  0.00000000000E+00  0.00000000000E+00  0.60507606360E+03  0.60507606360E+03  0.00000000000E+00 0. -1.
         22   -1    0    0    0    0 -0.00000000000E+00 -0.00000000000E+00 -0.22990180683E+03  0.22990180683E+03  0.00000000000E+00 0. -1.
        -24    2    1    2    0    0  0.17140222757E+02 -0.77523817409E+01 -0.14966166558E+03  0.17032934303E+03  0.79117534685E+02 0.  0.
         25    2    1    2    0    0 -0.28226461695E+02  0.66541075450E+02  0.18306909396E+02  0.14562489359E+03  0.12508804435E+03 0.  0.
         24    2    1    2    0    0  0.11086238938E+02 -0.58788693709E+02  0.50652901296E+03  0.51902363381E+03  0.96098263681E+02 0.  0.
        -11    1    5    5    0    0  0.46683629489E+02 -0.61802284541E+02  0.35128338387E+03  0.35972058520E+03  0.00000000000E+00 0.  1.
         12    1    5    5    0    0 -0.35597390551E+02  0.30135908325E+01  0.15524562909E+03  0.15930304860E+03  0.00000000000E+00 0. -1.
         13    1    3    3    0    0  0.60331900559E+01 -0.24109070650E+02 -0.14845532547E+03  0.15052119562E+03  0.00000000000E+00 0. -1.
        -14    1    3    3    0    0  0.11107032701E+02  0.16356688909E+02 -0.12063401100E+01  0.19808147414E+02  0.00000000000E+00 0.  1.
          5    1    4    4  501    0 -0.22674957280E+02  0.13335181455E+02 -0.51260928057E+02  0.57767948703E+02  0.41800000000E+01 0.  1.
         -5    1    4    4    0  501 -0.55515044147E+01  0.53205893995E+02  0.69567837453E+02  0.87856944887E+02  0.41800000000E+01 0.  1.
</event>
<event>
11    1  0.9238666E-009  0.1570752E+03  0.7561462E-02  0.1089861E+00
         22   -1    0    0    0    0  0.00000000000E+00  0.00000000000E+00  0.17846636840E+03  0.17846636840E+03  0.00000000000E+00 0.  1.
         22   -1    0    0    0    0 -0.00000000000E+00 -0.00000000000E+00 -0.98200498879E+03  0.98200498879E+03  0.00000000000E+00 0. -1.
        -24    2    1    2    0    0 -0.23503549264E+01  0.65962253933E+02 -0.86445363231E+03  0.87067495296E+03  0.80238695146E+02 0.  0.
         25    2    1    2    0    0 -0.42671856926E+02  0.43033873555E+02 -0.35406599658E+01  0.13904269714E+03  0.12509010235E+03 0.  0.
         24    2    1    2    0    0  0.45022211852E+02 -0.10899612749E+03  0.64455671881E+02  0.15075370709E+03  0.68300740812E+02 0.  0.
        -13    1    5    5    0    0  0.52544561465E+02 -0.92184213961E+02  0.74618236545E+02  0.12971793040E+03  0.00000000000E+00 0.  1.
         14    1    5    5    0    0 -0.75223496128E+01 -0.16811913527E+02 -0.10162564664E+02  0.21035776684E+02  0.00000000000E+00 0. -1.
         11    1    3    3    0    0 -0.22829794568E+02  0.64708711661E+02 -0.40563797549E+03  0.41140075844E+03  0.00000000000E+00 0. -1.
        -12    1    3    3    0    0  0.20479439641E+02  0.12535422715E+01 -0.45881565682E+03  0.45927419452E+03  0.00000000000E+00 0.  1.
          5    1    4    4  501    0 -0.14231656231E+02  0.81809134753E+02 -0.24119170030E+02  0.86570672465E+02  0.41800000000E+01 0.  1.
         -5    1    4    4    0  501 -0.28440200695E+02 -0.38775261198E+02  0.20578510064E+02  0.52472024670E+02  0.41800000000E+01 0.  1.
</event>
<event>
11    1  0.9238666E-009  0.2200360E+03  0.7561462E-02  0.1041195E+00
         22   -1    0    0    0    0  0.00000000000E+00  0.00000000000E+00  0.83180752267E+03  0.83180752267E+03  0.00000000000E+00 0.  1.
         22   -1    0    0    0    0 -0.00000000000E+00 -0.00000000000E+00 -0.42147978567E+03  0.42147978567E+03  0.00000000000E+00 0.  1.
        -24    2    1    2    0    0 -0.16647087496E+03 -0.47963669089E+02 -0.23782218956E+03  0.30389468949E+03  0.76023172040E+02 0.  0.
         25    2    1    2    0    0  0.15919543220E+03  0.17679564897E+03 -0.14693617345E+02  0.26918998756E+03  0.12508980727E+03 0.  0.
         24    2    1    2    0    0  0.72754427629E+01 -0.12883197989E+03  0.66284354391E+03  0.68020263129E+03  0.81629925908E+02 0.  0.
        -11    1    5    5    0    0  0.71122443938E+01 -0.27832738227E+02  0.35614961011E+03  0.35730629734E+03  0.00000000000E+00 0.  1.
         12    1    5    5    0    0  0.16319836917E+00 -0.10099924166E+03  0.30669393380E+03  0.32289633395E+03  0.00000000000E+00 0. -1.
         13    1    3    3    0    0 -0.74132436258E+02 -0.43624677930E+01 -0.48219876663E+02  0.88542677485E+02  0.00000000000E+00 0. -1.
        -14    1    3    3    0    0 -0.92338438704E+02 -0.43601201296E+02 -0.18960231290E+03  0.21535201200E+03  0.00000000000E+00 0.  1.
          5    1    4    4  501    0  0.99528773438E+02  0.45005302970E+02  0.37157322833E+02  0.11545385692E+03  0.41800000000E+01 0. -1.
         -5    1    4    4    0  501  0.59666658762E+02  0.13179034600E+03 -0.51850940178E+02  0.15373613064E+03  0.41800000000E+01 0. -1.
</event>
<event>
11    1  0.9238666E-009  0.1694423E+03  0.7561462E-02  0.1078518E+00
         22   -1    0    0    0    0  0.00000000000E+00  0.00000000000E+00  0.71697238292E+03  0.71697238292E+03  0.00000000000E+00 0.  1.
         22   -1    0    0    0    0 -0.00000000000E+00 -0.00000000000E+00 -0.24025226610E+03  0.24025226610E+03  0.00000000000E+00 0.  1.
        -24    2    1    2    0    0 -0.11492898996E+02 -0.23453407055E+01 -0.97855469497E+02  0.12685621829E+03  0.79870018525E+02 0.  0.
         25    2    1    2    0    0  0.11879590133E+03  0.39642863594E+02 -0.55188221547E+02  0.18541322745E+03  0.12509317451E+03 0.  0.
         24    2    1    2    0    0 -0.10730300234E+03 -0.37297522888E+02  0.62976380786E+03  0.64495520328E+03  0.80372389665E+02 0.  0.
        -11    1    5    5    0    0 -0.10523604961E+03 -0.46511574202E+02  0.62249463885E+03  0.63303833065E+03  0.00000000000E+00 0.  1.
         12    1    5    5    0    0 -0.20669527299E+01  0.92140513134E+01  0.72691690098E+01  0.11916872630E+02  0.00000000000E+00 0. -1.
         11    1    3    3    0    0  0.17270142137E+02  0.29178415022E+02 -0.23938458394E+02  0.41505270785E+02  0.00000000000E+00 0. -1.
        -12    1    3    3    0    0 -0.28763041133E+02 -0.31523755728E+02 -0.73917011103E+02  0.85350947510E+02  0.00000000000E+00 0.  1.
          5    1    4    4  501    0  0.65748205337E+02  0.80688135217E+02 -0.55874437680E+02  0.11820671240E+03  0.41800000000E+01 0.  1.
         -5    1    4    4    0  501  0.53047695996E+02 -0.41045271624E+02  0.68621613264E+00  0.67206515054E+02  0.41800000000E+01 0.  1.
</event>
<event>
11    1  0.9238666E-009  0.1442160E+03  0.7561462E-02  0.1102940E+00
         22   -1    0    0    0    0  0.00000000000E+00  0.00000000000E+00  0.33020604592E+03  0.33020604592E+03  0.00000000000E+00 0.  1.
         22   -1    0    0    0    0 -0.00000000000E+00 -0.00000000000E+00 -0.54875066377E+03  0.54875066377E+03  0.00000000000E+00 0.  1.
        -24    2    1    2    0    0 -0.47232105000E+02  0.71203561044E+02 -0.22093674281E+03  0.25036733354E+03  0.81055157353E+02 0.  0.
         25    2    1    2    0    0  0.56598745332E+01 -0.61232287588E+02 -0.29042757573E+03  0.32214469762E+03  0.12509037627E+03 0.  0.
         24    2    1    2    0    0  0.41572230467E+02 -0.99712734561E+01  0.29281970069E+03  0.30644467853E+03  0.79607080377E+02 0.  0.
        -13    1    5    5    0    0  0.63345777063E+02 -0.19812862224E+02  0.20900423483E+03  0.21928977897E+03  0.00000000000E+00 0.  1.
         14    1    5    5    0    0 -0.21773546596E+02  0.98415887683E+01  0.83815465853E+02  0.87154899558E+02  0.00000000000E+00 0. -1.
         13    1    3    3    0    0 -0.70221137523E+02  0.48664169903E+02 -0.16586030352E+03  0.18657129970E+03  0.00000000000E+00 0. -1.
        -14    1    3    3    0    0  0.22989032523E+02  0.22539391140E+02 -0.55076439289E+02  0.63796033843E+02  0.00000000000E+00 0.  1.
          5    1    4    4  501    0 -0.18774544394E+02 -0.69847674708E+02 -0.71979769028E+02  0.10212610209E+03  0.41800000000E+01 0. -1.
         -5    1    4    4    0  501  0.24434418927E+02  0.86153871205E+01 -0.21844780670E+03  0.22001859553E+03  0.41800000000E+01 0. -1.
</event>
<event>
11    1  0.9238666E-009  0.1267309E+03  0.7561462E-02  0.1123352E+00
         22   -1    0    0    0    0  0.00000000000E+00  0.00000000000E+00  0.89827915713E+02  0.89827915713E+02  0.00000000000E+00 0. -1.
         22   -1    0    0    0    0 -0.00000000000E+00 -0.00000000000E+00 -0.10365458921E+04  0.10365458921E+04  0.00000000000E+00 0.  1.
        -24    2    1    2    0    0  0.17005078698E+02  0.88981618920E+01 -0.90095292240E+03  0.90485318726E+03  0.81699278601E+02 0.  0.
         25    2    1    2    0    0 -0.49672547601E+02 -0.19835195140E+02 -0.24987844701E+02  0.13832135965E+03  0.12509040411E+03 0.  0.
         24    2    1    2    0    0  0.32667468904E+02  0.10937033248E+02 -0.20777209326E+02  0.83199260949E+02  0.72826110525E+02 0.  0.
        -11    1    5    5    0    0  0.43762741988E+01 -0.19350134104E+02  0.17744264598E+02  0.26616506003E+02  0.00000000000E+00 0.  1.
         12    1    5    5    0    0  0.28291194705E+02  0.30287167352E+02 -0.38521473923E+02  0.56582754946E+02  0.00000000000E+00 0. -1.
         11    1    3    3    0    0 -0.32861633153E+02  0.86526030527E+01 -0.34659091077E+03  0.34825280171E+03  0.00000000000E+00 0. -1.
        -12    1    3    3    0    0  0.49866711851E+02  0.24555883927E+00 -0.55436201163E+03  0.55660038555E+03  0.00000000000E+00 0.  1.
          5    1    4    4  501    0 -0.22853316567E+02  0.46291458404E+02  0.18091437717E+02  0.54862972194E+02  0.41800000000E+01 0. -1.
         -5    1    4    4    0  501 -0.26819231034E+02 -0.66126653544E+02 -0.43079282418E+02  0.83458387451E+02  0.41800000000E+01 0. -1.
</event>
<event>
11    1  0.9238666E-009  0.1279108E+03  0.7561462E-02  0.1121863E+00
         22   -1    0    0    0    0  0.00000000000E+00  0.00000000000E+00  0.55886016802E+03  0.55886016802E+03  0.00000000000E+00 0.  1.
         22   -1    0    0    0    0 -0.00000000000E+00 -0.00000000000E+00 -0.20367898564E+03  0.20367898564E+03  0.00000000000E+00 0.  1.
        -24    2    1    2    0    0  0.27176871099E+02 -0.73934909077E+01 -0.13981275489E+03  0.16393307126E+03  0.80828209145E+02 0.  0.
         25    2    1    2    0    0 -0.20713633988E+02 -0.16957151420E+02  0.36470634168E+02  0.13301653070E+03  0.12508673258E+03 0.  0.
         24    2    1    2    0    0 -0.64632371118E+01  0.24350642327E+02  0.45852330310E+03  0.46558955169E+03  0.76780752446E+02 0.  0.
        -13    1    5    5    0    0 -0.12666583406E+02  0.51089452328E+02  0.32960965335E+03  0.33378600638E+03  0.00000000000E+00 0.  1.
         14    1    5    5    0    0  0.62033462943E+01 -0.26738810000E+02  0.12891364975E+03  0.13180354531E+03  0.00000000000E+00 0. -1.
         13    1    3    3    0    0 -0.24394505728E+02 -0.15713593946E+02 -0.27103034609E+02  0.39706213990E+02  0.00000000000E+00 0. -1.
        -14    1    3    3    0    0  0.51571376827E+02  0.83201030387E+01 -0.11270972028E+03  0.12422685727E+03  0.00000000000E+00 0.  1.
          5    1    4    4  501    0  0.15820060656E+02 -0.59900348584E+02  0.43827171726E+02  0.76004075293E+02  0.41800000000E+01 0. -1.
         -5    1    4    4    0  501 -0.36533694644E+02  0.42943197165E+02 -0.73565375576E+01  0.57012455410E+02  0.41800000000E+01 0. -1.
</event>
<event>
11    1  0.9238666E-009  0.1529466E+03  0.7561462E-02  0.1093905E+00
         22   -1    0    0    0    0  0.00000000000E+00  0.00000000000E+00  0.44051674183E+03  0.44051674183E+03  0.00000000000E+00 0. -1.
         22   -1    0    0    0    0 -0.00000000000E+00 -0.00000000000E+00 -0.91207748307E+03  0.91207748307E+03  0.00000000000E+00 0. -1.
         24    2    1    2    0    0 -0.10116108904E+02  0.59982204641E+02 -0.81287766270E+03  0.81915167149E+03  0.80865109069E+02 0.  0.
         25    2    1    2    0    0 -0.55319712751E+02 -0.11371264927E+03  0.59105413884E+01  0.17797310291E+03  0.12509457877E+03 0.  0.
        -24    2    1    2    0    0  0.65435821655E+02  0.53730444632E+02  0.33540638007E+03  0.35546945050E+03  0.81806375131E+02 0.  0.
        -13    1    3    3    0    0  0.10583842357E+02  0.44085067411E+02 -0.17620495392E+03  0.18194421308E+03  0.00000000000E+00 0.  1.
         14    1    3    3    0    0 -0.20699951262E+02  0.15897137230E+02 -0.63667270877E+03  0.63720745841E+03  0.00000000000E+00 0. -1.
         11    1    5    5    0    0 -0.17099981273E+02  0.70054727751E+00  0.81325550237E+02  0.83106830329E+02  0.00000000000E+00 0. -1.
        -12    1    5    5    0    0  0.82535802928E+02  0.53029897354E+02  0.25408082983E+03  0.27236262017E+03  0.00000000000E+00 0.  1.
          5    1    4    4  501    0 -0.89861818997E+02 -0.10596757008E+03 -0.90902680636E+01  0.13929959725E+03  0.41800000000E+01 0.  1.
         -5    1    4    4    0  501  0.34542106246E+02 -0.77450791943E+01  0.15000809452E+02  0.38673505657E+02  0.41800000000E+01 0.  1.
</event>
<event>
11    1  0.9238666E-009  0.1514336E+03  0.7561462E-02  0.1095423E+00
         22   -1    0    0    0    0  0.00000000000E+00  0.00000000000E+00  0.34475793064E+03  0.34475793064E+03  0.00000000000E+00 0. -1.
         22   -1    0    0    0    0 -0.00000000000E+00 -0.00000000000E+00 -0.49836863032E+03  0.49836863032E+03  0.00000000000E+00 0. -1.
        -24    2    1    2    0    0 -0.85999843592E+02 -0.10769238728E+02 -0.43431044012E+03  0.45154285098E+03  0.88053610212E+02 0.  0.
         25    2    1    2    0    0  0.48425165788E+02  0.19827543127E+01  0.22364169140E+03  0.26079005318E+03  0.12508764012E+03 0.  0.
         24    2    1    2    0    0  0.37574677804E+02  0.87864844150E+01  0.57058049039E+02  0.13079365680E+03  0.11118588480E+03 0.  0.
        -11    1    5    5    0    0  0.15398639873E+02  0.20982584341E+02 -0.30241801854E+02  0.39899292411E+02  0.00000000000E+00 0.  1.
         12    1    5    5    0    0  0.22176037931E+02 -0.12196099926E+02  0.87299850893E+02  0.90894364388E+02  0.00000000000E+00 0. -1.
         11    1    3    3    0    0 -0.14266551186E+02  0.17816329490E+02 -0.25869885970E+03  0.25970378529E+03  0.00000000000E+00 0. -1.
        -12    1    3    3    0    0 -0.71733292405E+02 -0.28585568218E+02 -0.17561158042E+03  0.19183906569E+03  0.00000000000E+00 0.  1.
          5    1    4    4  501    0  0.57275411111E+02 -0.22045241516E+01  0.23690880740E+03  0.24377979422E+03  0.41800000000E+01 0.  1.
         -5    1    4    4    0  501 -0.88502453233E+01  0.41872784643E+01 -0.13267115999E+02  0.17010258967E+02  0.41800000000E+01 0.  1.
</event>
<event>
11    1  0.9238666E-009  0.2868474E+03  0.7561462E-02  0.1005917E+00
         22   -1    0    0    0    0  0.00000000000E+00  0.00000000000E+00  0.21172153567E+04  0.21172153567E+04  0.00000000000E+00 0.  1.
         22   -1    0    0    0    0 -0.00000000000E+00 -0.00000000000E+00 -0.10596943573E+04  0.10596943573E+04  0.00000000000E+00 0. -1.
         24    2    1    2    0    0  0.41782550554E+02 -0.16541683814E+02 -0.10120225765E+04  0.10161400613E+04  0.79570848718E+02 0.  0.
         25    2    1    2    0    0  0.16203464743E+03 -0.15982499689E+03  0.47261656425E+03  0.53927090935E+03  0.12508972886E+03 0.  0.
        -24    2    1    2    0    0 -0.20381719799E+03  0.17636668070E+03  0.15969270117E+04  0.16214987433E+04  0.80222426102E+02 0.  0.
        -13    1    3    3    0    0  0.44979656744E+01 -0.29458483471E+01 -0.26621221562E+01  0.59997176656E+01  0.00000000000E+00 0.  1.
         14    1    3    3    0    0  0.37284584880E+02 -0.13595835467E+02 -0.10093604544E+04  0.10101403436E+04  0.00000000000E+00 0. -1.
         11    1    5    5    0    0 -0.46298955880E+02  0.85423315784E+02  0.46399803765E+03  0.47406214270E+03  0.00000000000E+00 0. -1.
        -12    1    5    5    0    0 -0.15751824211E+03  0.90943364919E+02  0.11329289741E+04  0.11474366006E+04  0.00000000000E+00 0.  1.
          5    1    4    4  501    0 -0.17402746353E+02  0.27441661127E+00  0.20926893145E+02  0.27537940043E+02  0.41800000000E+01 0. -1.
         -5    1    4    4    0  501  0.17943739379E+03 -0.16009941350E+03  0.45168967110E+03  0.51173296930E+03  0.41800000000E+01 0. -1.
</event>
<event>
11    1  0.9238666E-009  0.1568637E+03  0.7561462E-02  0.1090065E+00
         22   -1    0    0    0    0  0.00000000000E+00  0.00000000000E+00  0.43989129453E+03  0.43989129453E+03  0.00000000000E+00 0. -1.
         22   -1    0    0    0    0 -0.00000000000E+00 -0.00000000000E+00 -0.63021795532E+03  0.63021795532E+03  0.00000000000E+00 0. -1.
        -24    2    1    2    0    0 -0.92941789670E+02  0.43351693643E+02 -0.53801123927E+03  0.55345817432E+03  0.79638630940E+02 0.  0.
         25    2    1    2    0    0  0.32168823988E+02 -0.20841683394E+02 -0.22135090134E+02  0.13269815455E+03  0.12509847721E+03 0.  0.
         24    2    1    2    0    0  0.60772965682E+02 -0.22510010248E+02  0.36981966861E+03  0.38395292098E+03  0.80331838759E+02 0.  0.
        -11    1    5    5    0    0  0.14709487771E+02  0.76278798177E+01  0.88014698715E+01  0.18762181454E+02  0.00000000000E+00 0.  1.
         12    1    5    5    0    0  0.46063477912E+02 -0.30137890066E+02  0.36101819874E+03  0.36519073952E+03  0.00000000000E+00 0. -1.
         11    1    3    3    0    0 -0.84670522170E+02  0.24792816522E+02 -0.51605746069E+03  0.52354472952E+03  0.00000000000E+00 0. -1.
        -12    1    3    3    0    0 -0.82712675000E+01  0.18558877121E+02 -0.21953778575E+02  0.29913444799E+02  0.00000000000E+00 0.  1.
          5    1    4    4  501    0  0.24706080213E+02 -0.19431039203E+02  0.50455451052E+02  0.59591783199E+02  0.41800000000E+01 0. -1.
         -5    1    4    4    0  501  0.74627437743E+01 -0.14106441913E+01 -0.72590541186E+02  0.73106371346E+02  0.41800000000E+01 0. -1.
</event>
<event>
11    1  0.9238666E-009  0.1375221E+03  0.7561462E-02  0.1110357E+00
         22   -1    0    0    0    0  0.00000000000E+00  0.00000000000E+00  0.20889203304E+04  0.20889203304E+04  0.00000000000E+00 0.  1.
         22   -1    0    0    0    0 -0.00000000000E+00 -0.00000000000E+00 -0.14460366659E+03  0.14460366659E+03  0.00000000000E+00 0. -1.
         24    2    1    2    0    0  0.86715388859E+01 -0.55045799504E+02 -0.98714270717E+02  0.13877643046E+03  0.80057196920E+02 0.  0.
         25    2    1    2    0    0 -0.27095517046E+02  0.68427217520E+02  0.18636576145E+03  0.23621304481E+03  0.12509178373E+03 0.  0.
        -24    2    1    2    0    0  0.18423978160E+02 -0.13381418015E+02  0.18566651731E+04  0.18585345217E+04  0.80165442444E+02 0.  0.
        -11    1    3    3    0    0  0.21115314022E+02 -0.14149059665E+02  0.56137743692E+01  0.26030114066E+02  0.00000000000E+00 0.  1.
         12    1    3    3    0    0 -0.12443775136E+02 -0.40896739840E+02 -0.10432804509E+03  0.11274631639E+03  0.00000000000E+00 0. -1.
         13    1    5    5    0    0 -0.14306262827E+02  0.27011158994E+02  0.81467453344E+03  0.81524773370E+03  0.00000000000E+00 0. -1.
        -14    1    5    5    0    0  0.32730240987E+02 -0.40392577009E+02  0.10419906397E+04  0.10432867880E+04  0.00000000000E+00 0.  1.
          5    1    4    4  501    0 -0.30589064339E+01 -0.47722100063E+01 -0.17161818474E+02  0.18550776540E+02  0.41800000000E+01 0. -1.
         -5    1    4    4    0  501 -0.24036610612E+02  0.73199427526E+02  0.20352757992E+03  0.21766226827E+03  0.41800000000E+01 0. -1.
</event>
<event>
11    1  0.1447241E-008  0.1599732E+03  0.7561462E-02  0.1087103E+00
         22   -1    0    0    0    0  0.00000000000E+00  0.00000000000E+00  0.15463357555E+04  0.15463357555E+04  0.00000000000E+00 0.  1.
         22   -1    0    0    0    0 -0.00000000000E+00 -0.00000000000E+00 -0.31856315254E+03  0.31856315254E+03  0.00000000000E+00 0. -1.
        -24    2    1    2    0    0 -0.69082972122E+02 -0.30750606376E+02 -0.19296813415E+03  0.22250401661E+03  0.80952330279E+02 0.  0.
         25    2    1    2    0    0  0.14850853524E+03  0.88044940528E+02 -0.30877828038E+01  0.21322224937E+03  0.12508995416E+03 0.  0.
         24    2    1    2    0    0 -0.79425563122E+02 -0.57294334152E+02  0.14238285200E+04  0.14291726421E+04  0.75204560286E+02 0.  0.
        -13    1    5    5    0    0 -0.58013714598E+02 -0.74994238291E+02  0.11672846057E+04  0.11711289756E+04  0.00000000000E+00 0.  1.
         14    1    5    5    0    0 -0.21411848524E+02  0.17699904138E+02  0.25654391426E+03  0.25804366647E+03  0.00000000000E+00 0. -1.
         11    1    3    3    0    0 -0.61452018514E+02 -0.19514701119E+02 -0.19783466766E+03  0.20807625974E+03  0.00000000000E+00 0. -1.
        -12    1    3    3    0    0 -0.76309536077E+01 -0.11235905257E+02  0.48665335047E+01  0.14427756868E+02  0.00000000000E+00 0.  1.
          5    1    4    4  501    0  0.11884148052E+03  0.48516033907E+02  0.52478323085E+02  0.13873914311E+03  0.41800000000E+01 0.  1.
         -5    1    4    4    0  501  0.29667054726E+02  0.39528906621E+02 -0.55566105889E+02  0.74483106262E+02  0.41800000000E+01 0.  1.
</event>
<event>
11    1  0.9238666E-009  0.4039017E+03  0.7561462E-02  0.9638315E-01
         22   -1    0    0    0    0  0.00000000000E+00  0.00000000000E+00  0.12917242755E+03  0.12917242755E+03  0.00000000000E+00 0. -1.
         22   -1    0    0    0    0 -0.00000000000E+00 -0.00000000000E+00 -0.27905760031E+04  0.27905760031E+04  0.00000000000E+00 0. -1.
        -24    2    1    2    0    0 -0.96337312053E+02 -0.45704096126E+01 -0.94376122849E+03  0.95219610009E+03  0.81794805997E+02 0.  0.
         25    2    1    2    0    0  0.19131781138E+03  0.36962067290E+03 -0.14053369515E+04  0.14710031529E+04  0.12512546421E+03 0.  0.
         24    2    1    2    0    0 -0.94980499329E+02 -0.36505026329E+03 -0.31230539554E+03  0.49654917764E+03  0.82118425211E+02 0.  0.
        -13    1    5    5    0    0  0.58949021013E+01 -0.44105515238E+02 -0.65997416124E+02  0.79597143668E+02  0.00000000000E+00 0.  1.
         14    1    5    5    0    0 -0.10087540143E+03 -0.32094474805E+03 -0.24630797941E+03  0.41695203397E+03  0.00000000000E+00 0. -1.
         11    1    3    3    0    0 -0.97725726071E+02 -0.15258795882E+02 -0.92704352427E+03  0.93230512402E+03  0.00000000000E+00 0. -1.
        -12    1    3    3    0    0  0.13884140176E+01  0.10688386270E+02 -0.16717704221E+02  0.19890976069E+02  0.00000000000E+00 0.  1.
          5    1    4    4  501    0  0.16395425983E+03  0.30386567946E+03 -0.96487762400E+03  0.10248032261E+04  0.41800000000E+01 0.  1.
         -5    1    4    4    0  501  0.27363551548E+02  0.65754993434E+02 -0.44045932752E+03  0.44619992684E+03  0.41800000000E+01 0.  1.
</event>
<event>
11    1  0.9238666E-009  0.1370777E+03  0.7561462E-02  0.1110866E+00
         22   -1    0    0    0    0  0.00000000000E+00  0.00000000000E+00  0.88092300906E+03  0.88092300906E+03  0.00000000000E+00 0.  1.
         22   -1    0    0    0    0 -0.00000000000E+00 -0.00000000000E+00 -0.25507255476E+03  0.25507255476E+03  0.00000000000E+00 0.  1.
         24    2    1    2    0    0  0.21853868749E+02 -0.64078332246E+01 -0.21931774256E+03  0.23499144706E+03  0.81253037386E+02 0.  0.
         25    2    1    2    0    0  0.35994130366E+02  0.15685959028E+02  0.15136916859E+03  0.20025926863E+03  0.12509805251E+03 0.  0.
        -24    2    1    2    0    0 -0.57847999116E+02 -0.92781258031E+01  0.69379902826E+03  0.70074484813E+03  0.79080819059E+02 0.  0.
        -11    1    3    3    0    0 -0.13915178138E+02  0.12807121248E+02 -0.17027386848E+03  0.17132088262E+03  0.00000000000E+00 0.  1.
         12    1    3    3    0    0  0.35769046887E+02 -0.19214954473E+02 -0.49043874084E+02  0.63670564437E+02  0.00000000000E+00 0. -1.
         11    1    5    5    0    0  0.29285575011E+01 -0.10393398119E+02  0.11618977767E+02  0.15861898305E+02  0.00000000000E+00 0. -1.
        -12    1    5    5    0    0 -0.60776556617E+02  0.11152723163E+01  0.68218005050E+03  0.68488294982E+03  0.00000000000E+00 0.  1.
          5    1    4    4  501    0  0.39743086632E+02 -0.40170160613E+02  0.12698739622E+03  0.13905547791E+03  0.41800000000E+01 0. -1.
         -5    1    4    4    0  501 -0.37489562654E+01  0.55856119641E+02  0.24381772373E+02  0.61203790720E+02  0.41800000000E+01 0. -1.
</event>
<event>
11    1  0.9238666E-009  0.1441177E+03  0.7561462E-02  0.1103046E+00
         22   -1    0    0    0    0  0.00000000000E+00  0.00000000000E+00  0.49108402338E+02  0.49108402338E+02  0.00000000000E+00 0.  1.
         22   -1    0    0    0    0 -0.00000000000E+00 -0.00000000000E+00 -0.13245302287E+04  0.13245302287E+04  0.00000000000E+00 0.  1.
         24    2    1    2    0    0 -0.36112669177E+02  0.55846130780E+02 -0.74162760006E+03  0.74901350792E+03  0.81159242697E+02 0.  0.
         25    2    1    2    0    0  0.18461463978E+02 -0.90432124758E+02 -0.49707560888E+03  0.52081758689E+03  0.12509197830E+03 0.  0.
        -24    2    1    2    0    0  0.17651205199E+02  0.34585993978E+02 -0.36718617448E+02  0.10380753625E+03  0.88994335163E+02 0.  0.
        -13    1    3    3    0    0 -0.31214250804E+02 -0.11589588981E+02 -0.15718620346E+03  0.16067405075E+03  0.00000000000E+00 0.  1.
         14    1    3    3    0    0 -0.48984183737E+01  0.67435719761E+02 -0.58444139661E+03  0.58833945717E+03  0.00000000000E+00 0. -1.
         13    1    5    5    0    0  0.42298694889E+02 -0.98020638826E+01 -0.29575671617E+02  0.52535515580E+02  0.00000000000E+00 0. -1.
        -14    1    5    5    0    0 -0.24647489690E+02  0.44388057860E+02 -0.71429458314E+01  0.51272020672E+02  0.00000000000E+00 0.  1.
          5    1    4    4  501    0 -0.34831328588E+02 -0.86133763828E+02 -0.22425015550E+03  0.24277119138E+03  0.41800000000E+01 0.  1.
         -5    1    4    4    0  501  0.53292792566E+02 -0.42983609295E+01 -0.27282545338E+03  0.27804639551E+03  0.41800000000E+01 0.  1.
</event>
<event>
11    1  0.9238666E-009  0.1566865E+03  0.7561462E-02  0.1090236E+00
         22   -1    0    0    0    0  0.00000000000E+00  0.00000000000E+00  0.33187793179E+02  0.33187793179E+02  0.00000000000E+00 0.  1.
         22   -1    0    0    0    0 -0.00000000000E+00 -0.00000000000E+00 -0.12814892572E+04  0.12814892572E+04  0.00000000000E+00 0.  1.
         24    2    1    2    0    0  0.62397675402E+02  0.32695465088E+02 -0.50273174283E+03  0.51388577416E+03  0.79855621613E+02 0.  0.
         25    2    1    2    0    0  0.53030009417E+02 -0.42845319379E+02 -0.46739223475E+03  0.48862064067E+03  0.12508687416E+03 0.  0.
        -24    2    1    2    0    0 -0.11542768482E+03  0.10149854291E+02 -0.27817748645E+03  0.31217063556E+03  0.81493691629E+02 0.  0.
        -13    1    3    3    0    0  0.52372314623E+02  0.42591134020E+02 -0.20514979696E+03  0.21597060732E+03  0.00000000000E+00 0.  1.
         14    1    3    3    0    0  0.10025360779E+02 -0.98956689325E+01 -0.29758194587E+03  0.29791516684E+03  0.00000000000E+00 0. -1.
         11    1    5    5    0    0  0.85847574573E+01 -0.22182019078E+01 -0.62086923607E+02  0.62716860280E+02  0.00000000000E+00 0. -1.
        -12    1    5    5    0    0 -0.12401244228E+03  0.12368056199E+02 -0.21609056284E+03  0.24945377528E+03  0.00000000000E+00 0.  1.
          5    1    4    4  501    0 -0.16366533286E+02  0.34459636191E+02 -0.11751636665E+03  0.12362402181E+03  0.41800000000E+01 0. -1.
         -5    1    4    4    0  501  0.69396542702E+02 -0.77304955570E+02 -0.34987586810E+03  0.36499661886E+03  0.41800000000E+01 0. -1.
</event>
<event>
11    1  0.9238666E-009  0.1553848E+03  0.7561462E-02  0.1091500E+00
         22   -1    0    0    0    0  0.00000000000E+00  0.00000000000E+00  0.85000059310E+03  0.85000059310E+03  0.00000000000E+00 0. -1.
         22   -1    0    0    0    0 -0.00000000000E+00 -0.00000000000E+00 -0.12926517857E+04  0.12926517857E+04  0.00000000000E+00 0. -1.
         24    2    1    2    0    0  0.77145575820E+02 -0.70697208335E+02 -0.12495190898E+04  0.12564704092E+04  0.80438786599E+02 0.  0.
         25    2    1    2    0    0 -0.51069401842E+02 -0.31558484531E+02  0.11061280567E+03  0.17744143302E+03  0.12508496163E+03 0.  0.
        -24    2    1    2    0    0 -0.26076173978E+02  0.10225569287E+03  0.69625509152E+03  0.70874053654E+03  0.80036254849E+02 0.  0.
        -11    1    3    3    0    0  0.57264850467E+01  0.16762421461E+02 -0.24094815307E+03  0.24159839377E+03  0.00000000000E+00 0.  1.
         12    1    3    3    0    0  0.71419090773E+02 -0.87459629797E+02 -0.10085709367E+04  0.10148720155E+04  0.00000000000E+00 0. -1.
         13    1    5    5    0    0 -0.31811727402E+01  0.53890437402E+02  0.14211693714E+03  0.15202474445E+03  0.00000000000E+00 0. -1.
        -14    1    5    5    0    0 -0.22895001237E+02  0.48365255465E+02  0.55413815439E+03  0.55671579209E+03  0.00000000000E+00 0.  1.
          5    1    4    4  501    0 -0.44769939347E+02  0.43772115864E+02  0.44500306544E+02  0.76929157534E+02  0.41800000000E+01 0. -1.
         -5    1    4    4    0  501 -0.62994624954E+01 -0.75330600395E+02  0.66112499122E+02  0.10051227549E+03  0.41800000000E+01 0. -1.
</event>
<event>
11    1  0.9238666E-009  0.1522293E+03  0.7561462E-02  0.1094622E+00
         22   -1    0    0    0    0  0.00000000000E+00  0.00000000000E+00  0.34175041744E+04  0.34175041744E+04  0.00000000000E+00 0.  1.
         22   -1    0    0    0    0 -0.00000000000E+00 -0.00000000000E+00 -0.81734753034E+03  0.81734753034E+03  0.00000000000E+00 0.  1.
         24    2    1    2    0    0 -0.33010258957E+02  0.80032253778E+02 -0.80123865413E+03  0.80969059899E+03  0.78234560038E+02 0.  0.
         25    2    1    2    0    0  0.23381076855E+02 -0.11114606358E+03  0.62426104536E+03  0.64672417194E+03  0.12510067792E+03 0.  0.
        -24    2    1    2    0    0  0.96291821013E+01  0.31113809802E+02  0.27771342528E+04  0.27784369338E+04  0.78589735405E+02 0.  0.
        -13    1    3    3    0    0 -0.38508225952E+02  0.89191910806E+02 -0.57110134430E+03  0.57930546854E+03  0.00000000000E+00 0.  1.
         14    1    3    3    0    0  0.54979669954E+01 -0.91596570280E+01 -0.23013730983E+03  0.23038513046E+03  0.00000000000E+00 0. -1.
         11    1    5    5    0    0  0.11083604161E+02  0.38040455774E+02  0.60731536858E+03  0.60860650627E+03  0.00000000000E+00 0. -1.
        -12    1    5    5    0    0 -0.14544220599E+01 -0.69266459723E+01  0.21698188842E+04  0.21698304275E+04  0.00000000000E+00 0.  1.
          5    1    4    4  501    0 -0.32191830190E+02 -0.97430325549E+02  0.49107844149E+03  0.50170159494E+03  0.41800000000E+01 0.  1.
         -5    1    4    4    0  501  0.55572907045E+02 -0.13715738031E+02  0.13318260386E+03  0.14502257700E+03  0.41800000000E+01 0.  1.
</event>
<event>
11    1  0.9238666E-009  0.3315589E+03  0.7561462E-02  0.9876540E-01
         22   -1    0    0    0    0  0.00000000000E+00  0.00000000000E+00  0.10074816594E+04  0.10074816594E+04  0.00000000000E+00 0. -1.
         22   -1    0    0    0    0 -0.00000000000E+00 -0.00000000000E+00 -0.24299467637E+04  0.24299467637E+04  0.00000000000E+00 0. -1.
        -24    2    1    2    0    0 -0.47528471801E+02 -0.70226664500E+02 -0.22974519694E+04  0.23004146575E+04  0.80195416796E+02 0.  0.
         25    2    1    2    0    0  0.22194802366E+02  0.35785044478E+03  0.28334848357E+03  0.47379710374E+03  0.12509109597E+03 0.  0.
         24    2    1    2    0    0  0.25333669435E+02 -0.28762378028E+03  0.59163838154E+03  0.66321666183E+03  0.80318940612E+02 0.  0.
        -11    1    5    5    0    0 -0.18556073624E+02 -0.76130421432E+02  0.10701514411E+03  0.13263638265E+03  0.00000000000E+00 0.  1.
         12    1    5    5    0    0  0.43889743059E+02 -0.21149335885E+03  0.48462323744E+03  0.53058027917E+03  0.00000000000E+00 0. -1.
         13    1    3    3    0    0 -0.54425043359E+02 -0.72462988132E+02 -0.22753476816E+04  0.22771517389E+04  0.00000000000E+00 0. -1.
        -14    1    3    3    0    0  0.68965715575E+01  0.22363236316E+01 -0.22104287839E+02  0.23262918636E+02  0.00000000000E+00 0.  1.
          5    1    4    4  501    0  0.65742518284E+02  0.29830253362E+03  0.21990923308E+03  0.37640938281E+03  0.41800000000E+01 0. -1.
         -5    1    4    4    0  501 -0.43547715918E+02  0.59547911158E+02  0.63439250484E+02  0.97387720925E+02  0.41800000000E+01 0. -1.
</event>
<event>
11    1  0.9238666E-009  0.1835172E+03  0.7561462E-02  0.1066833E+00
         22   -1    0    0    0    0  0.00000000000E+00  0.00000000000E+00  0.17171430794E+03  0.17171430794E+03  0.00000000000E+00 0. -1.
         22   -1    0    0    0    0 -0.00000000000E+00 -0.00000000000E+00 -0.83578896915E+03  0.83578896915E+03  0.00000000000E+00 0. -1.
        -24    2    1    2    0    0 -0.10563496919E+02  0.85444134818E+02 -0.54144775708E+03  0.55403367168E+03  0.79845776729E+02 0.  0.
         25    2    1    2    0    0  0.96690108424E+02 -0.17196495103E+03 -0.18032551822E+03  0.29510201421E+03  0.12508790836E+03 0.  0.
         24    2    1    2    0    0 -0.86126611506E+02  0.86520816213E+02  0.57698614096E+02  0.15836759120E+03  0.82749737312E+02 0.  0.
        -13    1    5    5    0    0 -0.62444488335E+02  0.13007273149E+02  0.32447677665E+01  0.63867298331E+02  0.00000000000E+00 0.  1.
         14    1    5    5    0    0 -0.23682123171E+02  0.73513543064E+02  0.54453846330E+02  0.94500292866E+02  0.00000000000E+00 0. -1.
         13    1    3    3    0    0 -0.29314795223E+02  0.39176418901E+01 -0.21558889719E+03  0.21760808287E+03  0.00000000000E+00 0. -1.
        -14    1    3    3    0    0  0.18751298304E+02  0.81526492928E+02 -0.32585885989E+03  0.33642558881E+03  0.00000000000E+00 0.  1.
          5    1    4    4  501    0  0.30193498114E+02  0.90831686442E+01 -0.59505872843E+02  0.67472754381E+02  0.41800000000E+01 0. -1.
         -5    1    4    4    0  501  0.66496610311E+02 -0.18104811968E+03 -0.12081964538E+03  0.22762925983E+03  0.41800000000E+01 0. -1.
</event>
<event>
11    1  0.9238666E-009  0.1368874E+03  0.7561462E-02  0.1111085E+00
         22   -1    0    0    0    0  0.00000000000E+00  0.00000000000E+00  0.40792424376E+03  0.40792424376E+03  0.00000000000E+00 0.  1.
         22   -1    0    0    0    0 -0.00000000000E+00 -0.00000000000E+00 -0.39690249795E+03  0.39690249795E+03  0.00000000000E+00 0.  1.
        -24    2    1    2    0    0 -0.60699084448E+01 -0.16329350350E+02 -0.23540481362E+03  0.24984440240E+03  0.81873730002E+02 0.  0.
         25    2    1    2    0    0  0.28894882815E+01  0.71174775416E+02 -0.11278374379E+03  0.18286763983E+03  0.12508478340E+03 0.  0.
         24    2    1    2    0    0  0.31804201634E+01 -0.54845425066E+02  0.35921030321E+03  0.37211469948E+03  0.80119734842E+02 0.  0.
        -11    1    5    5    0    0 -0.31837481655E+02 -0.44935425386E+02  0.27364406893E+03  0.27913060412E+03  0.00000000000E+00 0.  1.
         12    1    5    5    0    0  0.35017901818E+02 -0.99099996796E+01  0.85566234281E+02  0.92984095362E+02  0.00000000000E+00 0. -1.
         13    1    3    3    0    0  0.23531764944E+02 -0.31028215245E+02 -0.61250720508E+02  0.72581987196E+02  0.00000000000E+00 0. -1.
        -14    1    3    3    0    0 -0.29601673388E+02  0.14698864894E+02 -0.17415409311E+03  0.17726241521E+03  0.00000000000E+00 0.  1.
          5    1    4    4  501    0  0.61117156484E+02  0.51970542410E+02 -0.48049182541E+02  0.93607907988E+02  0.41800000000E+01 0. -1.
         -5    1    4    4    0  501 -0.58227668202E+02  0.19204233007E+02 -0.64734561246E+02  0.89259731847E+02  0.41800000000E+01 0. -1.
</event>
<event>
11    1  0.9238666E-009  0.1909140E+03  0.7561462E-02  0.1061141E+00
         22   -1    0    0    0    0  0.00000000000E+00  0.00000000000E+00  0.15356062553E+03  0.15356062553E+03  0.00000000000E+00 0. -1.
         22   -1    0    0    0    0 -0.00000000000E+00 -0.00000000000E+00 -0.14185348706E+04  0.14185348706E+04  0.00000000000E+00 0. -1.
         24    2    1    2    0    0 -0.73058513277E+02 -0.11225588824E+03 -0.97854729837E+03  0.99144467523E+03  0.86422208289E+02 0.  0.
         25    2    1    2    0    0  0.18472326686E+03  0.12977219909E+03 -0.34480147731E+03  0.43069662868E+03  0.12509203905E+03 0.  0.
        -24    2    1    2    0    0 -0.11166475358E+03 -0.17516310848E+02  0.58374530578E+02  0.14995419225E+03  0.79390400022E+02 0.  0.
        -13    1    3    3    0    0 -0.15780313790E+02 -0.48780379057E+02 -0.15045723209E+03  0.15895257900E+03  0.00000000000E+00 0.  1.
         14    1    3    3    0    0 -0.57278199487E+02 -0.63475509181E+02 -0.82809006628E+03  0.83249209622E+03  0.00000000000E+00 0. -1.
         13    1    5    5    0    0 -0.22946228028E+02  0.10937330323E+02  0.50395572276E+02  0.56443496351E+02  0.00000000000E+00 0. -1.
        -14    1    5    5    0    0 -0.88718525552E+02 -0.28453641171E+02  0.79789583019E+01  0.93510695900E+02  0.00000000000E+00 0.  1.
          5    1    4    4  501    0  0.56516800024E+02 -0.12328284735E+02 -0.13361243073E+03  0.14565675176E+03  0.41800000000E+01 0. -1.
         -5    1    4    4    0  501  0.12820646683E+03  0.14210048382E+03 -0.21118904658E+03  0.28503987692E+03  0.41800000000E+01 0. -1.
</event>
<event>
11    1  0.9238666E-009  0.1565374E+03  0.7561462E-02  0.1090380E+00
         22   -1    0    0    0    0  0.00000000000E+00  0.00000000000E+00  0.32450415762E+03  0.32450415762E+03  0.00000000000E+00 0. -1.
         22   -1    0    0    0    0 -0.00000000000E+00 -0.00000000000E+00 -0.46592090108E+03  0.46592090108E+03  0.00000000000E+00 0. -1.
        -24    2    1    2    0    0 -0.30410705938E+01  0.10028004122E+03 -0.32960826599E+03  0.35365763339E+03  0.79792091543E+02 0.  0.
         25    2    1    2    0    0  0.26857346624E+02 -0.69123944053E+02 -0.70728516253E+02  0.16170808211E+03  0.12509014390E+03 0.  0.
         24    2    1    2    0    0 -0.23816276031E+02 -0.31156097171E+02  0.25892003878E+03  0.27505934320E+03  0.84143558296E+02 0.  0.
        -11    1    5    5    0    0  0.23304863631E+02 -0.37286068319E+02  0.14789463395E+03  0.15429254781E+03  0.00000000000E+00 0.  1.
         12    1    5    5    0    0 -0.47121139662E+02  0.61299711477E+01  0.11102540483E+03  0.12076679539E+03  0.00000000000E+00 0. -1.
         11    1    3    3    0    0 -0.16319780820E+02  0.56665013846E+02 -0.28057009553E+03  0.28669990852E+03  0.00000000000E+00 0. -1.
        -12    1    3    3    0    0  0.13278710227E+02  0.43615027379E+02 -0.49038170459E+02  0.66957724875E+02  0.00000000000E+00 0.  1.
          5    1    4    4  501    0 -0.46773467146E+01 -0.83593496703E+02 -0.89008471530E+02  0.12226909122E+03  0.41800000000E+01 0. -1.
         -5    1    4    4    0  501  0.31534693339E+02  0.14469552650E+02  0.18279955277E+02  0.39438990895E+02  0.41800000000E+01 0. -1.
</event>
<event>
11    1  0.9238666E-009  0.1431644E+03  0.7561462E-02  0.1104075E+00
         22   -1    0    0    0    0  0.00000000000E+00  0.00000000000E+00  0.47946181209E+03  0.47946181209E+03  0.00000000000E+00 0. -1.
         22   -1    0    0    0    0 -0.00000000000E+00 -0.00000000000E+00 -0.27498753975E+03  0.27498753975E+03  0.00000000000E+00 0. -1.
         24    2    1    2    0    0  0.47941090713E+02  0.58525029261E+02 -0.17254506691E+03  0.20517096694E+03  0.81239142837E+02 0.  0.
         25    2    1    2    0    0 -0.67775255127E+02  0.12211940685E+01 -0.16062760120E+02  0.14317851187E+03  0.12508835868E+03 0.  0.
        -24    2    1    2    0    0  0.19834164414E+02 -0.59746223329E+02  0.39308209937E+03  0.40609987304E+03  0.80253129225E+02 0.  0.
        -11    1    3    3    0    0  0.10383168114E+02 -0.17263525765E+02 -0.11327766332E+02  0.23111853928E+02  0.00000000000E+00 0.  1.
         12    1    3    3    0    0  0.37557922599E+02  0.75788555025E+02 -0.16121730058E+03  0.18205911301E+03  0.00000000000E+00 0. -1.
         13    1    5    5    0    0  0.50743422523E+02 -0.38439130710E+02  0.27096742507E+03  0.27834476311E+03  0.00000000000E+00 0. -1.
        -14    1    5    5    0    0 -0.30909258109E+02 -0.21307092619E+02  0.12211467430E+03  0.12775510993E+03  0.00000000000E+00 0.  1.
          5    1    4    4  501    0 -0.60580362680E+02 -0.52477113374E+02 -0.32226696838E+02  0.86486184790E+02  0.41800000000E+01 0. -1.
         -5    1    4    4    0  501 -0.71948924465E+01  0.53698307442E+02  0.16163936718E+02  0.56692327080E+02  0.41800000000E+01 0. -1.
</event>
<event>
11    1  0.9238666E-009  0.1554581E+03  0.7561462E-02  0.1091429E+00
         22   -1    0    0    0    0  0.00000000000E+00  0.00000000000E+00  0.10400918474E+04  0.10400918474E+04  0.00000000000E+00 0.  1.
         22   -1    0    0    0    0 -0.00000000000E+00 -0.00000000000E+00 -0.94421349431E+03  0.94421349431E+03  0.00000000000E+00 0. -1.
         24    2    1    2    0    0  0.80212133656E+02  0.18427511426E+02 -0.88260081580E+03  0.89024227938E+03  0.82301618293E+02 0.  0.
         25    2    1    2    0    0  0.94247009507E+01  0.22020723224E+02  0.22393911885E+02  0.12931679681E+03  0.12509040494E+03 0.  0.
        -24    2    1    2    0    0 -0.89636834607E+02 -0.40448234650E+02  0.95608525700E+03  0.96474626553E+03  0.83459669239E+02 0.  0.
        -13    1    3    3    0    0  0.66432132358E+02  0.38347588389E+02 -0.41596930230E+03  0.42298253652E+03  0.00000000000E+00 0.  1.
         14    1    3    3    0    0  0.13780001297E+02 -0.19920076962E+02 -0.46663151350E+03  0.46725974286E+03  0.00000000000E+00 0. -1.
         13    1    5    5    0    0 -0.40865248420E+02  0.36471420966E+01  0.13661863573E+03  0.14264614192E+03  0.00000000000E+00 0. -1.
        -14    1    5    5    0    0 -0.48771586186E+02 -0.44095376747E+02  0.81946662127E+03  0.82210012361E+03  0.00000000000E+00 0.  1.
          5    1    4    4  501    0  0.41441142223E+01  0.42572969372E+02  0.67082916227E+02  0.79669451193E+02  0.41800000000E+01 0.  1.
         -5    1    4    4    0  501  0.52805867284E+01 -0.20552246148E+02 -0.44689004342E+02  0.49647345619E+02  0.41800000000E+01 0.  1.
</event>
<event>
11    1  0.9238666E-009  0.1360093E+03  0.7561462E-02  0.1112098E+00
         22   -1    0    0    0    0  0.00000000000E+00  0.00000000000E+00  0.31896304456E+04  0.31896304456E+04  0.00000000000E+00 0.  1.
         22   -1    0    0    0    0 -0.00000000000E+00 -0.00000000000E+00 -0.11553842239E+04  0.11553842239E+04  0.00000000000E+00 0. -1.
        -24    2    1    2    0    0 -0.48519503397E+02 -0.21632626741E+02 -0.11343373472E+04  0.11385853965E+04  0.82664231420E+02 0.  0.
         25    2    1    2    0    0  0.10070344006E+03  0.18785524980E+02  0.34297597342E+03  0.37917547172E+03  0.12508973269E+03 0.  0.
         24    2    1    2    0    0 -0.52183936665E+02  0.28471017606E+01  0.28256075956E+04  0.28272538012E+04  0.81083310629E+02 0.  0.
        -13    1    5    5    0    0 -0.11644562576E+02 -0.27004503268E+02  0.19356370958E+04  0.19358604819E+04  0.00000000000E+00 0.  1.
         14    1    5    5    0    0 -0.40539374089E+02  0.29851605028E+02  0.88997049979E+03  0.89139331929E+03  0.00000000000E+00 0. -1.
         13    1    3    3    0    0  0.46090431212E+01  0.44488709666E+01 -0.72137450746E+03  0.72140294964E+03  0.00000000000E+00 0. -1.
        -14    1    3    3    0    0 -0.53128546518E+02 -0.26081497708E+02 -0.41296283975E+03  0.41718244689E+03  0.00000000000E+00 0.  1.
          5    1    4    4  501    0 -0.12535545810E+02  0.35044014119E+02  0.37699599361E+02  0.53140897868E+02  0.41800000000E+01 0. -1.
         -5    1    4    4    0  501  0.11323898587E+03 -0.16258489139E+02  0.30527637406E+03  0.32603457385E+03  0.41800000000E+01 0. -1.
</event>
<event>
11    1  0.9238666E-009  0.1325089E+03  0.7561462E-02  0.1116224E+00
         22   -1    0    0    0    0  0.00000000000E+00  0.00000000000E+00  0.21339889648E+03  0.21339889648E+03  0.00000000000E+00 0. -1.
         22   -1    0    0    0    0 -0.00000000000E+00 -0.00000000000E+00 -0.42961133409E+03  0.42961133409E+03  0.00000000000E+00 0.  1.
        -24    2    1    2    0    0  0.44236396491E+02  0.14484360868E+02 -0.34387411268E+03  0.35627939340E+03  0.80739985778E+02 0.  0.
         25    2    1    2    0    0 -0.19299934452E+02  0.74378773402E+01 -0.59668023138E+01  0.12692558383E+03  0.12508673635E+03 0.  0.
         24    2    1    2    0    0 -0.24936462040E+02 -0.21922238208E+02  0.13362847739E+03  0.15980525335E+03  0.81109415984E+02 0.  0.
        -13    1    5    5    0    0 -0.20152553343E+02  0.22242063332E+02  0.15880321754E+02  0.33956139452E+02  0.00000000000E+00 0.  1.
         14    1    5    5    0    0 -0.47839086968E+01 -0.44164301540E+02  0.11774815563E+03  0.12584911390E+03  0.00000000000E+00 0. -1.
         11    1    3    3    0    0 -0.21544869278E+02 -0.52517595873E+01 -0.53905337308E+02  0.58288487382E+02  0.00000000000E+00 0. -1.
        -12    1    3    3    0    0  0.65781265769E+02  0.19736120455E+02 -0.28996877538E+03  0.29799090602E+03  0.00000000000E+00 0.  1.
          5    1    4    4  501    0 -0.25470322500E+02 -0.13211588900E+02  0.54973419698E+02  0.62151690909E+02  0.41800000000E+01 0.  1.
         -5    1    4    4    0  501  0.61703880489E+01  0.20649466240E+02 -0.60940222012E+02  0.64773892916E+02  0.41800000000E+01 0.  1.
</event>
<event>
11    1  0.9238666E-009  0.1510522E+03  0.7561462E-02  0.1095809E+00
         22   -1    0    0    0    0  0.00000000000E+00  0.00000000000E+00  0.87353543299E+02  0.87353543299E+02  0.00000000000E+00 0. -1.
         22   -1    0    0    0    0 -0.00000000000E+00 -0.00000000000E+00 -0.16125890470E+04  0.16125890470E+04  0.00000000000E+00 0.  1.
         24    2    1    2    0    0  0.31757007418E+02  0.58123703488E+02 -0.51891034331E+03  0.52918746547E+03  0.79903421640E+02 0.  0.
         25    2    1    2    0    0 -0.47417103361E+02 -0.96924769237E+02 -0.10543098595E+04  0.10671697208E+04  0.12505654940E+03 0.  0.
        -24    2    1    2    0    0  0.15660095943E+02  0.38801065749E+02  0.47984699102E+02  0.10358540405E+03  0.81710729257E+02 0.  0.
        -13    1    3    3    0    0  0.15370582529E+01  0.30802762558E+02 -0.43310836187E+03  0.43420505047E+03  0.00000000000E+00 0.  1.
         14    1    3    3    0    0  0.30219949165E+02  0.27320940930E+02 -0.85801981436E+02  0.94982415000E+02  0.00000000000E+00 0. -1.
         13    1    5    5    0    0  0.62611193172E+01  0.41248632334E+02  0.68887381449E+02  0.80536467562E+02  0.00000000000E+00 0. -1.
        -14    1    5    5    0    0  0.93989766261E+01 -0.24475665846E+01 -0.20902682347E+02  0.23048936486E+02  0.00000000000E+00 0.  1.
          5    1    4    4  501    0  0.36315821753E+02 -0.38660260346E+02 -0.55400066244E+03  0.55654978306E+03  0.41800000000E+01 0. -1.
         -5    1    4    4    0  501 -0.83732925114E+02 -0.58264508891E+02 -0.50030919709E+03  0.51061993776E+03  0.41800000000E+01 0. -1.
</event>
<event>
11    1  0.9238666E-009  0.1927681E+03  0.7561462E-02  0.1059759E+00
         22   -1    0    0    0    0  0.00000000000E+00  0.00000000000E+00  0.97889476610E+03  0.97889476610E+03  0.00000000000E+00 0.  1.
         22   -1    0    0    0    0 -0.00000000000E+00 -0.00000000000E+00 -0.19140761185E+04  0.19140761185E+04  0.00000000000E+00 0.  1.
        -24    2    1    2    0    0  0.75579751246E+02  0.13608084400E+03 -0.16211716530E+04  0.16306169008E+04  0.80521138748E+02 0.  0.
         25    2    1    2    0    0 -0.39343966163E+02 -0.95475083242E+02 -0.26269933410E+03  0.30875663707E+03  0.12512506386E+03 0.  0.
         24    2    1    2    0    0 -0.36235785082E+02 -0.40605760763E+02  0.94868963468E+03  0.95359734674E+03  0.79837440062E+02 0.  0.
        -13    1    5    5    0    0 -0.18342489985E+01  0.23563360039E+02  0.25833609900E+03  0.25941498888E+03  0.00000000000E+00 0.  1.
         14    1    5    5    0    0 -0.34401536084E+02 -0.64169120802E+02  0.69035353568E+03  0.69418235786E+03  0.00000000000E+00 0. -1.
         11    1    3    3    0    0 -0.16063976529E+02  0.30089970312E+02 -0.39337341799E+03  0.39484946959E+03  0.00000000000E+00 0. -1.
        -12    1    3    3    0    0  0.91643727774E+02  0.10599087369E+03 -0.12277982350E+04  0.12357674312E+04  0.00000000000E+00 0.  1.
          5    1    4    4  501    0 -0.10144436458E+02 -0.13685457455E+02  0.11585259777E+02  0.21021226912E+02  0.41800000000E+01 0.  1.
         -5    1    4    4    0  501 -0.29199529706E+02 -0.81789625787E+02 -0.27428459387E+03  0.28773541015E+03  0.41800000000E+01 0.  1.
</event>
<event>
11    1  0.9238666E-009  0.2227570E+03  0.7561462E-02  0.1039504E+00
         22   -1    0    0    0    0  0.00000000000E+00  0.00000000000E+00  0.17150258427E+03  0.17150258427E+03  0.00000000000E+00 0. -1.
         22   -1    0    0    0    0 -0.00000000000E+00 -0.00000000000E+00 -0.12102199274E+04  0.12102199274E+04  0.00000000000E+00 0.  1.
        -24    2    1    2    0    0 -0.45822961549E+02  0.17878064558E+03 -0.85360216472E+03  0.87723396895E+03  0.82707421896E+02 0.  0.
         25    2    1    2    0    0  0.12423659287E+03 -0.15342417278E+03 -0.27340011219E+03  0.35968046960E+03  0.12509480829E+03 0.  0.
         24    2    1    2    0    0 -0.78413631324E+02 -0.25356472806E+02  0.88284933733E+02  0.14480807316E+03  0.79896809931E+02 0.  0.
        -13    1    5    5    0    0 -0.14730050643E+02 -0.20128859931E+02 -0.10577979412E+02  0.27093154902E+02  0.00000000000E+00 0.  1.
         14    1    5    5    0    0 -0.63683580681E+02 -0.52276128747E+01  0.98862913146E+02  0.11771491826E+03  0.00000000000E+00 0. -1.
         13    1    3    3    0    0 -0.51979689244E+02  0.12420903346E+03 -0.44402350318E+03  0.46398991741E+03  0.00000000000E+00 0. -1.
        -14    1    3    3    0    0  0.61567276951E+01  0.54571612126E+02 -0.40957866154E+03  0.41324405154E+03  0.00000000000E+00 0.  1.
          5    1    4    4  501    0  0.91325850588E+01 -0.96570403213E+02 -0.16572569404E+03  0.19207218683E+03  0.41800000000E+01 0.  1.
         -5    1    4    4    0  501  0.11510400781E+03 -0.56853769564E+02 -0.10767441815E+03  0.16760828277E+03  0.41800000000E+01 0.  1.
</event>
<event>
11    1  0.9238666E-009  0.3602110E+03  0.7561462E-02  0.9775050E-01
         22   -1    0    0    0    0  0.00000000000E+00  0.00000000000E+00  0.52432622299E+03  0.52432622299E+03  0.00000000000E+00 0. -1.
         22   -1    0    0    0    0 -0.00000000000E+00 -0.00000000000E+00 -0.20803870654E+04  0.20803870654E+04  0.00000000000E+00 0.  1.
         24    2    1    2    0    0  0.31690676943E+03  0.14370312846E+03 -0.18470475387E+04  0.18807657001E+04  0.67930248528E+02 0.  0.
         25    2    1    2    0    0 -0.22535165846E+03 -0.15810784774E+03 -0.96341535930E+02  0.31735965515E+03  0.12511593696E+03 0.  0.
        -24    2    1    2    0    0 -0.91555110961E+02  0.14404719281E+02  0.38732823224E+03  0.40658793315E+03  0.81858131020E+02 0.  0.
        -13    1    3    3    0    0  0.17570907084E+03  0.42558812210E+02 -0.92490337025E+03  0.94240711711E+03  0.00000000000E+00 0.  1.
         14    1    3    3    0    0  0.14119769858E+03  0.10114431625E+03 -0.92214416844E+03  0.93835858295E+03  0.00000000000E+00 0. -1.
         11    1    5    5    0    0 -0.87877527327E+02  0.31179372429E+02  0.37219825356E+03  0.38370060337E+03  0.00000000000E+00 0. -1.
        -12    1    5    5    0    0 -0.36775836339E+01 -0.16774653148E+02  0.15129978678E+02  0.22887329779E+02  0.00000000000E+00 0.  1.
          5    1    4    4  501    0 -0.10985004277E+03 -0.34122213680E+02  0.12718563067E+02  0.11580410877E+03  0.41800000000E+01 0.  1.
         -5    1    4    4    0  501 -0.11550161570E+03 -0.12398563406E+03 -0.10906009900E+03  0.20155554638E+03  0.41800000000E+01 0.  1.
</event>
<event>
11    1  0.9238666E-009  0.1355096E+03  0.7561462E-02  0.1112679E+00
         22   -1    0    0    0    0  0.00000000000E+00  0.00000000000E+00  0.17235224398E+04  0.17235224398E+04  0.00000000000E+00 0. -1.
         22   -1    0    0    0    0 -0.00000000000E+00 -0.00000000000E+00 -0.34498685894E+03  0.34498685894E+03  0.00000000000E+00 0.  1.
         24    2    1    2    0    0  0.73219695263E+01 -0.49181578371E+02 -0.28559808448E+03  0.30086418234E+03  0.80501872461E+02 0.  0.
         25    2    1    2    0    0 -0.15816080222E+02  0.86966591426E+02  0.65473751347E+02  0.16657658161E+03  0.12509040334E+03 0.  0.
        -24    2    1    2    0    0  0.84941106954E+01 -0.37785013055E+02  0.15986599140E+04  0.16010685348E+04  0.78784994398E+02 0.  0.
        -11    1    3    3    0    0  0.24458672912E+02  0.10489962189E+02 -0.14118865590E+03  0.14367498927E+03  0.00000000000E+00 0.  1.
         12    1    3    3    0    0 -0.17136703386E+02 -0.59671540560E+02 -0.14440942858E+03  0.15718919307E+03  0.00000000000E+00 0. -1.
         13    1    5    5    0    0 -0.10467033699E+02 -0.32852575015E+02  0.15043482452E+04  0.15047433314E+04  0.00000000000E+00 0. -1.
        -14    1    5    5    0    0  0.18961144395E+02 -0.49324380397E+01  0.94311668852E+02  0.96325203469E+02  0.00000000000E+00 0.  1.
          5    1    4    4  501    0  0.43401960410E+02  0.14630151837E+02  0.56081691163E+02  0.72528615000E+02  0.41800000000E+01 0.  1.
         -5    1    4    4    0  501 -0.59218040631E+02  0.72336439589E+02  0.93920601835E+01  0.94047966608E+02  0.41800000000E+01 0.  1.
</event>
<event>
11    1  0.9238666E-009  0.1319422E+03  0.7561462E-02  0.1116905E+00
         22   -1    0    0    0    0  0.00000000000E+00  0.00000000000E+00  0.17183793374E+04  0.17183793374E+04  0.00000000000E+00 0. -1.
         22   -1    0    0    0    0 -0.00000000000E+00 -0.00000000000E+00 -0.18228704476E+02  0.18228704476E+02  0.00000000000E+00 0. -1.
         24    2    1    2    0    0 -0.20857075871E+02  0.21006565259E+01  0.18350230193E+03  0.20116847089E+03  0.79725958720E+02 0.  0.
         25    2    1    2    0    0  0.21243958740E+02 -0.43221634468E+02  0.61482818193E+03  0.62927224791E+03  0.12510177147E+03 0.  0.
        -24    2    1    2    0    0 -0.38688286873E+00  0.41120977942E+02  0.90182014907E+03  0.90616732309E+03  0.78540127657E+02 0.  0.
        -11    1    3    3    0    0  0.14630469527E+02 -0.30168007394E+02  0.90798256878E+02  0.96790922926E+02  0.00000000000E+00 0.  1.
         12    1    3    3    0    0 -0.35487545398E+02  0.32268663920E+02  0.92704045051E+02  0.10437754796E+03  0.00000000000E+00 0. -1.
         13    1    5    5    0    0 -0.32463187102E+02  0.36891964306E+02  0.35425275591E+03  0.35764492254E+03  0.00000000000E+00 0. -1.
        -14    1    5    5    0    0  0.32076304233E+02  0.42290136355E+01  0.54756739316E+03  0.54852240055E+03  0.00000000000E+00 0.  1.
          5    1    4    4  501    0  0.10655823146E+02  0.16555293668E+02  0.12108502666E+02  0.23488562156E+02  0.41800000000E+01 0.  1.
         -5    1    4    4    0  501  0.10588135594E+02 -0.59776928136E+02  0.60271967926E+03  0.60578368575E+03  0.41800000000E+01 0.  1.
</event>
<event>
11    1  0.9238666E-009  0.1305593E+03  0.7561462E-02  0.1118584E+00
         22   -1    0    0    0    0  0.00000000000E+00  0.00000000000E+00  0.94377947329E+03  0.94377947329E+03  0.00000000000E+00 0.  1.
         22   -1    0    0    0    0 -0.00000000000E+00 -0.00000000000E+00 -0.15659128133E+03  0.15659128133E+03  0.00000000000E+00 0.  1.
        -24    2    1    2    0    0  0.53965302882E+01 -0.37487412844E+01 -0.11977928129E+03  0.14396557717E+03  0.79597962177E+02 0.  0.
         25    2    1    2    0    0 -0.24150304896E+02 -0.28670277600E+02  0.17295515468E+03  0.21671605353E+03  0.12508852978E+03 0.  0.
         24    2    1    2    0    0  0.18753774608E+02  0.32419018885E+02  0.73401231856E+03  0.73968912392E+03  0.83445907031E+02 0.  0.
        -11    1    5    5    0    0  0.38204392006E+02  0.46369828101E+02  0.63451209221E+03  0.63735024256E+03  0.00000000000E+00 0.  1.
         12    1    5    5    0    0 -0.19450617398E+02 -0.13950809217E+02  0.99500226353E+02  0.10233888137E+03  0.00000000000E+00 0. -1.
         13    1    3    3    0    0 -0.41441806633E+00  0.29700109239E+02 -0.13934099573E+02  0.32808952468E+02  0.00000000000E+00 0. -1.
        -14    1    3    3    0    0  0.58109483545E+01 -0.33448850523E+02 -0.10584518172E+03  0.11115662470E+03  0.00000000000E+00 0.  1.
          5    1    4    4  501    0 -0.72285255773E+02 -0.16252198005E+02  0.68636274898E+02  0.10108265318E+03  0.41800000000E+01 0.  1.
         -5    1    4    4    0  501  0.48134950877E+02 -0.12418079595E+02  0.10431887978E+03  0.11563340035E+03  0.41800000000E+01 0.  1.
</event>
<event>
11    1  0.9238666E-009  0.1814555E+03  0.7561462E-02  0.1068472E+00
         22   -1    0    0    0    0  0.00000000000E+00  0.00000000000E+00  0.54492518098E+03  0.54492518098E+03  0.00000000000E+00 0. -1.
         22   -1    0    0    0    0 -0.00000000000E+00 -0.00000000000E+00 -0.36505673261E+03  0.36505673261E+03  0.00000000000E+00 0.  1.
        -24    2    1    2    0    0 -0.67558521227E+02  0.57933784133E+02 -0.20662075308E+03  0.23922991953E+03  0.81353190835E+02 0.  0.
         25    2    1    2    0    0  0.18537658727E+03 -0.95832207306E+02 -0.14062261132E+02  0.24370671691E+03  0.12508767171E+03 0.  0.
         24    2    1    2    0    0 -0.11781806604E+03  0.37898423173E+02  0.40055146258E+03  0.42704527715E+03  0.81294571786E+02 0.  0.
        -13    1    5    5    0    0 -0.29887804206E+02  0.46850357235E+02  0.10836541918E+03  0.12178382851E+03  0.00000000000E+00 0.  1.
         14    1    5    5    0    0 -0.87930261838E+02 -0.89519340623E+01  0.29218604340E+03  0.30526144864E+03  0.00000000000E+00 0. -1.
         13    1    3    3    0    0  0.18521049269E+02  0.16027163435E+02 -0.49744327381E+02  0.55447248267E+02  0.00000000000E+00 0. -1.
        -14    1    3    3    0    0 -0.86079570497E+02  0.41906620698E+02 -0.15687642570E+03  0.18378267126E+03  0.00000000000E+00 0.  1.
          5    1    4    4  501    0  0.10732069464E+03 -0.73634296148E+02 -0.67278865930E+02  0.14657305096E+03  0.41800000000E+01 0.  1.
         -5    1    4    4    0  501  0.78055892628E+02 -0.22197911158E+02  0.53216604798E+02  0.97133665945E+02  0.41800000000E+01 0.  1.
</event>
<event>
11    1  0.9238666E-009  0.1513625E+03  0.7561462E-02  0.1095495E+00
         22   -1    0    0    0    0  0.00000000000E+00  0.00000000000E+00  0.52903609159E+03  0.52903609159E+03  0.00000000000E+00 0. -1.
         22   -1    0    0    0    0 -0.00000000000E+00 -0.00000000000E+00 -0.16089760590E+04  0.16089760590E+04  0.00000000000E+00 0.  1.
        -24    2    1    2    0    0 -0.36913545093E+02  0.77227087882E+02 -0.15370364791E+04  0.15415091899E+04  0.80267124449E+02 0.  0.
         25    2    1    2    0    0  0.50402486134E+02 -0.56167248271E+02  0.16049987602E+02  0.14695770644E+03  0.12507515738E+03 0.  0.
         24    2    1    2    0    0 -0.13488941041E+02 -0.21059839612E+02  0.44104652418E+03  0.44954525425E+03  0.83327250982E+02 0.  0.
        -13    1    5    5    0    0  0.70183194961E+01 -0.15243094453E+02  0.13688746994E+02  0.21656189215E+02  0.00000000000E+00 0.  1.
         14    1    5    5    0    0 -0.20507260537E+02 -0.58167451591E+01  0.42735777718E+03  0.42788906504E+03  0.00000000000E+00 0. -1.
         11    1    3    3    0    0  0.17461859142E+02  0.51117997769E+02 -0.90140449075E+03  0.90302160670E+03  0.00000000000E+00 0. -1.
        -12    1    3    3    0    0 -0.54375404235E+02  0.26109090114E+02 -0.63563198839E+03  0.63848758315E+03  0.00000000000E+00 0.  1.
          5    1    4    4  501    0  0.34954577801E+02 -0.96473180868E+02  0.10280293848E+02  0.10320878828E+03  0.41800000000E+01 0. -1.
         -5    1    4    4    0  501  0.15447908333E+02  0.40305932597E+02  0.57696937538E+01  0.43748918163E+02  0.41800000000E+01 0. -1.
</event>
<event>
11    1  0.9238666E-009  0.1304722E+03  0.7561462E-02  0.1118690E+00
         22   -1    0    0    0    0  0.00000000000E+00  0.00000000000E+00  0.10330339177E+03  0.10330339177E+03  0.00000000000E+00 0.  1.
         22   -1    0    0    0    0 -0.00000000000E+00 -0.00000000000E+00 -0.21513252958E+04  0.21513252958E+04  0.00000000000E+00 0. -1.
         24    2    1    2    0    0  0.40621402518E+02  0.13875352946E+02 -0.11356200432E+04  0.11389259290E+04  0.75344312631E+02 0.  0.
         25    2    1    2    0    0 -0.29630438469E+01 -0.94881113922E+01 -0.99004993488E+03  0.99797065482E+03  0.12509096863E+03 0.  0.
        -24    2    1    2    0    0 -0.37658358671E+02 -0.43872415535E+01  0.77648074067E+02  0.11773210374E+03  0.79963897967E+02 0.  0.
        -13    1    3    3    0    0 -0.16616617421E+02  0.13740873245E+02 -0.13888869196E+03  0.14055245400E+03  0.00000000000E+00 0.  1.
         14    1    3    3    0    0  0.57238019939E+02  0.13447970094E+00 -0.99673135125E+03  0.99837347500E+03  0.00000000000E+00 0. -1.
         13    1    5    5    0    0 -0.22175406804E+02 -0.40397118555E+01 -0.12831462836E+02  0.25936737986E+02  0.00000000000E+00 0. -1.
        -14    1    5    5    0    0 -0.15482951867E+02 -0.34752969807E+00  0.90479536904E+02  0.91795365753E+02  0.00000000000E+00 0.  1.
          5    1    4    4  501    0 -0.12178148571E+02 -0.53222162813E+02 -0.22359475265E+03  0.23020206718E+03  0.41800000000E+01 0. -1.
         -5    1    4    4    0  501  0.92151047240E+01  0.43734051421E+02 -0.76645518223E+03  0.76776858764E+03  0.41800000000E+01 0. -1.
</event>
<event>
11    1  0.9238666E-009  0.1351927E+03  0.7561462E-02  0.1113048E+00
         22   -1    0    0    0    0  0.00000000000E+00  0.00000000000E+00  0.78851224596E+03  0.78851224596E+03  0.00000000000E+00 0. -1.
         22   -1    0    0    0    0 -0.00000000000E+00 -0.00000000000E+00 -0.14520185204E+04  0.14520185204E+04  0.00000000000E+00 0.  1.
        -24    2    1    2    0    0  0.21089966745E+02 -0.20715971703E+02 -0.14156739753E+04  0.14183036826E+04  0.81108528680E+02 0.  0.
         25    2    1    2    0    0 -0.31743351292E+02  0.68027852777E+02  0.13886199438E+03  0.20143424373E+03  0.12513061959E+03 0.  0.
         24    2    1    2    0    0  0.10653384547E+02 -0.47311881075E+02  0.61330570650E+03  0.62079284006E+03  0.82993686230E+02 0.  0.
        -11    1    5    5    0    0 -0.14490400894E+02 -0.40411742085E+02  0.13251669684E+03  0.13929736378E+03  0.00000000000E+00 0.  1.
         12    1    5    5    0    0  0.25143785441E+02 -0.69001389901E+01  0.48078900966E+03  0.48149547628E+03  0.00000000000E+00 0. -1.
         13    1    3    3    0    0  0.46822329909E+02 -0.14949671131E+02 -0.53987190078E+03  0.54210468776E+03  0.00000000000E+00 0. -1.
        -14    1    3    3    0    0 -0.25732363164E+02 -0.57663005722E+01 -0.87580207452E+03  0.87619899479E+03  0.00000000000E+00 0.  1.
          5    1    4    4  501    0 -0.39295696961E+02  0.70638885453E+02  0.15952743524E+03  0.17888677685E+03  0.41800000000E+01 0.  1.
         -5    1    4    4    0  501  0.75523456698E+01 -0.26110326759E+01 -0.20665440859E+02  0.22547466879E+02  0.41800000000E+01 0.  1.
</event>
<event>
11    1  0.9238666E-009  0.1660222E+03  0.7561462E-02  0.1081546E+00
         22   -1    0    0    0    0  0.00000000000E+00  0.00000000000E+00  0.33971179725E+03  0.33971179725E+03  0.00000000000E+00 0.  1.
         22   -1    0    0    0    0 -0.00000000000E+00 -0.00000000000E+00 -0.93021728077E+03  0.93021728077E+03  0.00000000000E+00 0. -1.
        -24    2    1    2    0    0 -0.39295428329E+02  0.71878109150E+02 -0.84104455123E+03  0.84859878578E+03  0.77803398452E+02 0.  0.
         25    2    1    2    0    0 -0.29004844170E+02 -0.14554170670E+03  0.86305081228E+02  0.21241187971E+03  0.12508625112E+03 0.  0.
         24    2    1    2    0    0  0.68300272499E+02  0.73663597555E+02  0.16423398649E+03  0.20891841253E+03  0.81134751795E+02 0.  0.
        -13    1    5    5    0    0  0.86018399022E+02  0.51583271143E+02  0.11995086700E+03  0.15635923166E+03  0.00000000000E+00 0.  1.
         14    1    5    5    0    0 -0.17718126524E+02  0.22080326412E+02  0.44283119488E+02  0.52559180869E+02  0.00000000000E+00 0. -1.
         13    1    3    3    0    0 -0.28831524606E+02  0.71059571443E+02 -0.82933838247E+03  0.83287626460E+03  0.00000000000E+00 0. -1.
        -14    1    3    3    0    0 -0.10463903723E+02  0.81853770614E+00 -0.11706168767E+02  0.15722521182E+02  0.00000000000E+00 0.  1.
          5    1    4    4  501    0 -0.31652393981E+02  0.11656208688E+02  0.21984940199E+01  0.34059463026E+02  0.41800000000E+01 0.  1.
         -5    1    4    4    0  501  0.26475498105E+01 -0.15719791539E+03  0.84106587208E+02  0.17835241668E+03  0.41800000000E+01 0.  1.
</event>
<event>
11    1  0.9238666E-009  0.1442580E+03  0.7561462E-02  0.1102895E+00
         22   -1    0    0    0    0  0.00000000000E+00  0.00000000000E+00  0.15784202334E+03  0.15784202334E+03  0.00000000000E+00 0.  1.
         22   -1    0    0    0    0 -0.00000000000E+00 -0.00000000000E+00 -0.30437907343E+04  0.30437907343E+04  0.00000000000E+00 0.  1.
        -24    2    1    2    0    0 -0.37689380140E+02 -0.63584569288E+02 -0.28931483022E+04  0.28951879746E+04  0.79641842315E+02 0.  0.
         25    2    1    2    0    0  0.54867349537E+01  0.84823915029E+01 -0.98587792949E+02  0.15959157444E+03  0.12509141653E+03 0.  0.
         24    2    1    2    0    0  0.32202645186E+02  0.55102177785E+02  0.10578738424E+03  0.14685320851E+03  0.79382830839E+02 0.  0.
        -11    1    5    5    0    0  0.34181254367E+02  0.36014942505E+01  0.84257852966E+02  0.90998432389E+02  0.00000000000E+00 0.  1.
         12    1    5    5    0    0 -0.19786091806E+01  0.51500683535E+02  0.21529531277E+02  0.55854776124E+02  0.00000000000E+00 0. -1.
         11    1    3    3    0    0  0.99049739715E+01  0.13939456080E+02 -0.57882516506E+03  0.57907770520E+03  0.00000000000E+00 0. -1.
        -12    1    3    3    0    0 -0.47594354111E+02 -0.77524025368E+02 -0.23143231372E+04  0.23161102694E+04  0.00000000000E+00 0.  1.
          5    1    4    4  501    0 -0.76059247484E+01  0.57238728366E+02 -0.11772099112E+02  0.59077718589E+02  0.41800000000E+01 0.  1.
         -5    1    4    4    0  501  0.13092659702E+02 -0.48756336863E+02 -0.86815693838E+02  0.10051385586E+03  0.41800000000E+01 0.  1.
</event>
<event>
11    1  0.9238666E-009  0.1406654E+03  0.7561462E-02  0.1106818E+00
         22   -1    0    0    0    0  0.00000000000E+00  0.00000000000E+00  0.41623230098E+03  0.41623230098E+03  0.00000000000E+00 0. -1.
         22   -1    0    0    0    0 -0.00000000000E+00 -0.00000000000E+00 -0.10006012399E+04  0.10006012399E+04  0.00000000000E+00 0. -1.
         24    2    1    2    0    0 -0.90643314262E+01 -0.44166633914E+02 -0.79660498449E+03  0.80195997406E+03  0.80792604949E+02 0.  0.
         25    2    1    2    0    0 -0.15287964525E+02  0.10233380314E+03 -0.16055283541E+03  0.22832111237E+03  0.12508952103E+03 0.  0.
        -24    2    1    2    0    0  0.24352295952E+02 -0.58167169223E+02  0.37278888099E+03  0.38655245444E+03  0.80466119278E+02 0.  0.
        -13    1    3    3    0    0  0.87124979279E+01  0.21122854798E+02 -0.13689100432E+03  0.13878483231E+03  0.00000000000E+00 0.  1.
         14    1    3    3    0    0 -0.17776829354E+02 -0.65289488712E+02 -0.65971398017E+03  0.66317514174E+03  0.00000000000E+00 0. -1.
         11    1    5    5    0    0  0.24891001676E+02 -0.24930125441E+02  0.33231722714E+03  0.33417931201E+03  0.00000000000E+00 0. -1.
        -12    1    5    5    0    0 -0.53870572423E+00 -0.33237043782E+02  0.40471653851E+02  0.52373142436E+02  0.00000000000E+00 0.  1.
          5    1    4    4  501    0  0.54824883683E+02  0.36307499645E+02 -0.62460881680E+02  0.90790068519E+02  0.41800000000E+01 0. -1.
         -5    1    4    4    0  501 -0.70112848208E+02  0.66026303492E+02 -0.98091953727E+02  0.13753104385E+03  0.41800000000E+01 0. -1.
</event>
<event>
11    1  0.9238666E-009  0.1584733E+03  0.7561462E-02  0.1088522E+00
         22   -1    0    0    0    0  0.00000000000E+00  0.00000000000E+00  0.25026756318E+03  0.25026756318E+03  0.00000000000E+00 0.  1.
         22   -1    0    0    0    0 -0.00000000000E+00 -0.00000000000E+00 -0.21584484576E+04  0.21584484576E+04  0.00000000000E+00 0.  1.
        -24    2    1    2    0    0 -0.87639717170E+02 -0.24390699568E+02 -0.15854961675E+04  0.15902511158E+04  0.82612879857E+02 0.  0.
         25    2    1    2    0    0  0.13598732120E+03  0.28658702452E+02 -0.54548430946E+03  0.57664044772E+03  0.12508877376E+03 0.  0.
         24    2    1    2    0    0 -0.48347604033E+02 -0.42680028843E+01  0.22279958254E+03  0.24182445726E+03  0.80521472181E+02 0.  0.
        -11    1    5    5    0    0 -0.42745798058E+02 -0.30742425684E+02  0.19880074894E+03  0.20565514282E+03  0.00000000000E+00 0.  1.
         12    1    5    5    0    0 -0.56018059747E+01  0.26474422799E+02  0.23998833605E+02  0.36169314441E+02  0.00000000000E+00 0. -1.
         11    1    3    3    0    0  0.16092808152E+02 -0.33809369082E+01 -0.27277107901E+03  0.27326630007E+03  0.00000000000E+00 0. -1.
        -12    1    3    3    0    0 -0.10373252532E+03 -0.21009762660E+02 -0.13127250885E+04  0.13169848157E+04  0.00000000000E+00 0.  1.
          5    1    4    4  501    0  0.14136886601E+03  0.60412459585E+02 -0.46812188173E+03  0.49273764835E+03  0.41800000000E+01 0.  1.
         -5    1    4    4    0  501 -0.53815448099E+01 -0.31753757132E+02 -0.77362427735E+02  0.83902799367E+02  0.41800000000E+01 0.  1.
</event>
<event>
11    1  0.9238666E-009  0.1544478E+03  0.7561462E-02  0.1092419E+00
         22   -1    0    0    0    0  0.00000000000E+00  0.00000000000E+00  0.57422579419E+02  0.57422579419E+02  0.00000000000E+00 0.  1.
         22   -1    0    0    0    0 -0.00000000000E+00 -0.00000000000E+00 -0.20124435127E+04  0.20124435127E+04  0.00000000000E+00 0. -1.
        -24    2    1    2    0    0 -0.45651734710E+02  0.35822565398E+02 -0.13343941857E+04  0.13380475340E+04  0.79975141945E+02 0.  0.
         25    2    1    2    0    0  0.51321279149E+02 -0.12133532099E+03 -0.57959648396E+03  0.60739983134E+03  0.12508531918E+03 0.  0.
         24    2    1    2    0    0 -0.56695444393E+01  0.85512755587E+02 -0.41030263612E+02  0.12441872678E+03  0.80324105592E+02 0.  0.
        -13    1    5    5    0    0  0.77366735533E+01  0.70368652492E+02  0.81323767521E+01  0.71258255120E+02  0.00000000000E+00 0.  1.
         14    1    5    5    0    0 -0.13406217993E+02  0.15144103096E+02 -0.49162640364E+02  0.53160471659E+02  0.00000000000E+00 0. -1.
         11    1    3    3    0    0 -0.31491725660E+02  0.39682234534E+02 -0.12952828459E+04  0.12962731422E+04  0.00000000000E+00 0. -1.
        -12    1    3    3    0    0 -0.14160009049E+02 -0.38596691358E+01 -0.39111339821E+02  0.41774391734E+02  0.00000000000E+00 0.  1.
          5    1    4    4  501    0  0.24797524804E+02 -0.52189304276E+02 -0.47858400603E+03  0.48207754972E+03  0.41800000000E+01 0. -1.
         -5    1    4    4    0  501  0.26523754345E+02 -0.69146016709E+02 -0.10101247793E+03  0.12532228161E+03  0.41800000000E+01 0. -1.
</event>
<event>
11    1  0.9238666E-009  0.1356817E+03  0.7561462E-02  0.1112479E+00
         22   -1    0    0    0    0  0.00000000000E+00  0.00000000000E+00  0.13195986321E+03  0.13195986321E+03  0.00000000000E+00 0.  1.
         22   -1    0    0    0    0 -0.00000000000E+00 -0.00000000000E+00 -0.76426604945E+03  0.76426604945E+03  0.00000000000E+00 0. -1.
        -24    2    1    2    0    0 -0.58090882331E+02 -0.21007149469E+02 -0.33646095552E+03  0.35168827156E+03  0.81626067076E+02 0.  0.
         25    2    1    2    0    0  0.40672772290E+02  0.25033639301E+01 -0.39407141070E+03  0.41545144148E+03  0.12508829786E+03 0.  0.
         24    2    1    2    0    0  0.17418110041E+02  0.18503785539E+02  0.98226179972E+02  0.12908619962E+03  0.79806540231E+02 0.  0.
        -11    1    5    5    0    0  0.39024475696E+02 -0.36577600595E+01  0.88257239592E+02  0.96569297669E+02  0.00000000000E+00 0.  1.
         12    1    5    5    0    0 -0.21606365655E+02  0.22161545598E+02  0.99689403797E+01  0.32516901949E+02  0.00000000000E+00 0. -1.
         13    1    3    3    0    0 -0.36895064234E+02 -0.25980772757E+02 -0.32290197644E+03  0.32603977166E+03  0.00000000000E+00 0. -1.
        -14    1    3    3    0    0 -0.21195818097E+02  0.49736232878E+01 -0.13558979083E+02  0.25648499901E+02  0.00000000000E+00 0.  1.
          5    1    4    4  501    0  0.10385741118E+02 -0.76654104940E+01  0.54580718246E+01  0.14624810585E+02  0.41800000000E+01 0. -1.
         -5    1    4    4    0  501  0.30287031172E+02  0.10168774424E+02 -0.39952948252E+03  0.40082663089E+03  0.41800000000E+01 0. -1.
</event>
<event>
11    1  0.9238666E-009  0.1307263E+03  0.7561462E-02  0.1118380E+00
         22   -1    0    0    0    0  0.00000000000E+00  0.00000000000E+00  0.72352622818E+02  0.72352622818E+02  0.00000000000E+00 0.  1.
         22   -1    0    0    0    0 -0.00000000000E+00 -0.00000000000E+00 -0.11692045335E+04  0.11692045335E+04  0.00000000000E+00 0.  1.
        -24    2    1    2    0    0  0.39271127719E+02  0.11297720197E+02 -0.98748750229E+03  0.99199134817E+03  0.85119960691E+02 0.  0.
         25    2    1    2    0    0 -0.22573703471E+00  0.16405856530E+02 -0.88688001593E+02  0.15421500706E+03  0.12508998238E+03 0.  0.
         24    2    1    2    0    0 -0.39045390684E+02 -0.27703576727E+02 -0.20676406754E+02  0.95350801040E+02  0.79826253612E+02 0.  0.
        -13    1    5    5    0    0 -0.61777601421E+02 -0.29566145078E+02 -0.72172737585E+01  0.68867394408E+02  0.00000000000E+00 0.  1.
         14    1    5    5    0    0  0.22732210737E+02  0.18625683509E+01 -0.13459132996E+02  0.26483406632E+02  0.00000000000E+00 0. -1.
         11    1    3    3    0    0 -0.17698901463E+02 -0.89174436232E+01 -0.77351236276E+02  0.79849769362E+02  0.00000000000E+00 0. -1.
        -12    1    3    3    0    0  0.56970029181E+02  0.20215163820E+02 -0.91013626602E+03  0.91214157881E+03  0.00000000000E+00 0.  1.
          5    1    4    4  501    0 -0.43808845060E+02  0.36503905048E+02 -0.89298967894E+02  0.10603550375E+03  0.41800000000E+01 0. -1.
         -5    1    4    4    0  501  0.43583108025E+02 -0.20098048518E+02  0.61096630187E+00  0.48179503310E+02  0.41800000000E+01 0. -1.
</event>
<event>
11    1  0.9238666E-009  0.2359238E+03  0.7561462E-02  0.1031677E+00
         22   -1    0    0    0    0  0.00000000000E+00  0.00000000000E+00  0.60652097785E+03  0.60652097785E+03  0.00000000000E+00 0.  1.
         22   -1    0    0    0    0 -0.00000000000E+00 -0.00000000000E+00 -0.10944529023E+04  0.10944529023E+04  0.00000000000E+00 0. -1.
         24    2    1    2    0    0 -0.78479093516E+02  0.14176093422E+03 -0.97950459710E+03  0.99621262053E+03  0.82190017434E+02 0.  0.
         25    2    1    2    0    0 -0.10273303939E+03  0.29004479575E+02  0.21121040321E+02  0.16580133171E+03  0.12509454839E+03 0.  0.
        -24    2    1    2    0    0  0.18121213291E+03 -0.17076541380E+03  0.47045163239E+03  0.53895992786E+03  0.84583696803E+02 0.  0.
        -13    1    3    3    0    0 -0.13185167678E+02  0.11048609488E+02 -0.33121140707E+03  0.33165783059E+03  0.00000000000E+00 0.  1.
         14    1    3    3    0    0 -0.65293925838E+02  0.13071232473E+03 -0.64829319004E+03  0.66455478994E+03  0.00000000000E+00 0. -1.
         13    1    5    5    0    0  0.97308485394E+02 -0.96628596033E+02  0.34251865040E+03  0.36895128781E+03  0.00000000000E+00 0. -1.
        -14    1    5    5    0    0  0.83903647512E+02 -0.74136817765E+02  0.12793298198E+03  0.17000864005E+03  0.00000000000E+00 0.  1.
          5    1    4    4  501    0 -0.54553119352E+02  0.69603167222E+02 -0.19586536128E+02  0.90673857952E+02  0.41800000000E+01 0.  1.
         -5    1    4    4    0  501 -0.48179920039E+02 -0.40598687647E+02  0.40707576448E+02  0.75127473762E+02  0.41800000000E+01 0.  1.
</event>
<event>
11    1  0.9238666E-009  0.1374405E+03  0.7561462E-02  0.1110451E+00
         22   -1    0    0    0    0  0.00000000000E+00  0.00000000000E+00  0.12279302885E+04  0.12279302885E+04  0.00000000000E+00 0. -1.
         22   -1    0    0    0    0 -0.00000000000E+00 -0.00000000000E+00 -0.13249401272E+04  0.13249401272E+04  0.00000000000E+00 0. -1.
        -24    2    1    2    0    0 -0.54256230399E+01  0.29418369156E+02 -0.12838161714E+04  0.12865217578E+04  0.77842106220E+02 0.  0.
         25    2    1    2    0    0  0.62041450199E+02 -0.29558005535E+02  0.97840774635E+02  0.17304190407E+03  0.12509143116E+03 0.  0.
         24    2    1    2    0    0 -0.56615827159E+02  0.13963637822E+00  0.10889655581E+04  0.10933067539E+04  0.79172595874E+02 0.  0.
        -11    1    5    5    0    0  0.13036993996E+02 -0.20342222261E+02  0.32631478141E+03  0.32720804664E+03  0.00000000000E+00 0.  1.
         12    1    5    5    0    0 -0.69652821155E+02  0.20481858639E+02  0.76265077669E+03  0.76609870723E+03  0.00000000000E+00 0. -1.
         13    1    3    3    0    0 -0.14040529445E+02  0.10304544575E+02 -0.11998942415E+04  0.12000206293E+04  0.00000000000E+00 0. -1.
        -14    1    3    3    0    0  0.86149064054E+01  0.19113824582E+02 -0.83921929969E+02  0.86501128502E+02  0.00000000000E+00 0.  1.
          5    1    4    4  501    0  0.79504773648E+02 -0.63716279122E+01  0.11427863918E+03  0.13942268986E+03  0.41800000000E+01 0. -1.
         -5    1    4    4    0  501 -0.17463323449E+02 -0.23186377622E+02 -0.16437864550E+02  0.33619214210E+02  0.41800000000E+01 0. -1.
</event>
<event>
11    1  0.9238666E-009  0.1592303E+03  0.7561462E-02  0.1087803E+00
         22   -1    0    0    0    0  0.00000000000E+00  0.00000000000E+00  0.15391220984E+03  0.15391220984E+03  0.00000000000E+00 0. -1.
         22   -1    0    0    0    0 -0.00000000000E+00 -0.00000000000E+00 -0.10342456125E+04  0.10342456125E+04  0.00000000000E+00 0. -1.
         24    2    1    2    0    0 -0.85347344697E+02 -0.22999405015E+02 -0.56016454897E+03  0.57231807847E+03  0.77139608110E+02 0.  0.
         25    2    1    2    0    0  0.13240760479E+03 -0.44521629070E+00 -0.43136348400E+03  0.46824574292E+03  0.12509056081E+03 0.  0.
        -24    2    1    2    0    0 -0.47060260094E+02  0.23444621306E+02  0.11119463033E+03  0.14759400095E+03  0.81580787895E+02 0.  0.
        -11    1    3    3    0    0 -0.74511941255E+02  0.48398935985E+01 -0.25535676212E+03  0.26604986359E+03  0.00000000000E+00 0.  1.
         12    1    3    3    0    0 -0.10835403442E+02 -0.27839298614E+02 -0.30480778685E+03  0.30626821487E+03  0.00000000000E+00 0. -1.
         11    1    5    5    0    0 -0.49820992647E+02 -0.12517118917E+01  0.11215095523E+03  0.12272544500E+03  0.00000000000E+00 0. -1.
        -12    1    5    5    0    0  0.27607325523E+01  0.24696333198E+02 -0.95632490352E+00  0.24868555949E+02  0.00000000000E+00 0.  1.
          5    1    4    4  501    0  0.76546179109E+02 -0.38504080520E+02 -0.10830004149E+03  0.13816024443E+03  0.41800000000E+01 0.  1.
         -5    1    4    4    0  501  0.55861425682E+02  0.38058864229E+02 -0.32306344251E+03  0.33008549849E+03  0.41800000000E+01 0.  1.
</event>
<event>
11    1  0.9238666E-009  0.2320968E+03  0.7561462E-02  0.1033894E+00
         22   -1    0    0    0    0  0.00000000000E+00  0.00000000000E+00  0.36159720035E+03  0.36159720035E+03  0.00000000000E+00 0.  1.
         22   -1    0    0    0    0 -0.00000000000E+00 -0.00000000000E+00 -0.99543306360E+03  0.99543306360E+03  0.00000000000E+00 0.  1.
         24    2    1    2    0    0  0.19726226712E+03  0.32092273254E+02 -0.88286367085E+03  0.90887379903E+03  0.81614981627E+02 0.  0.
         25    2    1    2    0    0 -0.16015839750E+03  0.10626825504E+02  0.26518463782E+02  0.20521882725E+03  0.12509155217E+03 0.  0.
        -24    2    1    2    0    0 -0.37103869619E+02 -0.42719098758E+02  0.22250934382E+03  0.24293763768E+03  0.79414540073E+02 0.  0.
        -13    1    3    3    0    0  0.17890494661E+03  0.54013879555E+02 -0.74559340489E+03  0.76865727377E+03  0.00000000000E+00 0.  1.
         14    1    3    3    0    0  0.18357320512E+02 -0.21921606302E+02 -0.13727026596E+03  0.14021652526E+03  0.00000000000E+00 0. -1.
         11    1    5    5    0    0 -0.51293708359E+02 -0.20146951618E+02  0.75176704833E+02  0.93212022434E+02  0.00000000000E+00 0. -1.
        -12    1    5    5    0    0  0.14189838740E+02 -0.22572147140E+02  0.14733263898E+03  0.14972561524E+03  0.00000000000E+00 0.  1.
          5    1    4    4  501    0 -0.16073261629E+03 -0.16610249082E+02  0.49799726257E+02  0.16914005867E+03  0.41800000000E+01 0. -1.
         -5    1    4    4    0  501  0.57421878685E+00  0.27237074586E+02 -0.23281262476E+02  0.36078768572E+02  0.41800000000E+01 0. -1.
</event>
<event>
11    1  0.9238666E-009  0.2484675E+03  0.7561462E-02  0.1024719E+00
         22   -1    0    0    0    0  0.00000000000E+00  0.00000000000E+00  0.15640888876E+04  0.15640888876E+04  0.00000000000E+00 0.  1.
         22   -1    0    0    0    0 -0.00000000000E+00 -0.00000000000E+00 -0.11586615465E+03  0.11586615465E+03  0.00000000000E+00 0. -1.
        -24    2    1    2    0    0  0.63892357822E+02  0.21774748477E+03  0.50291451112E+02  0.24641100730E+03  0.81810475799E+02 0.  0.
         25    2    1    2    0    0 -0.72692020344E+02 -0.13519343762E+03  0.76416819834E+03  0.78940603358E+03  0.12508978816E+03 0.  0.
         24    2    1    2    0    0  0.87996625225E+01 -0.82554047148E+02  0.63376308350E+03  0.64413800136E+03  0.79784171589E+02 0.  0.
        -11    1    5    5    0    0  0.33149763539E+02 -0.49538804623E+02  0.20710235333E+03  0.21550959315E+03  0.00000000000E+00 0.  1.
         12    1    5    5    0    0 -0.24350101016E+02 -0.33015242525E+02  0.42666073017E+03  0.42862840821E+03  0.00000000000E+00 0. -1.
         11    1    3    3    0    0  0.74331612522E+02  0.19578861551E+03  0.24314741523E+02  0.21083068382E+03  0.00000000000E+00 0. -1.
        -12    1    3    3    0    0 -0.10439254701E+02  0.21958869261E+02  0.25976709589E+02  0.35580323481E+02  0.00000000000E+00 0.  1.
          5    1    4    4  501    0  0.85532097640E+01  0.20340916423E+02  0.82535251181E+02  0.85536251763E+02  0.41800000000E+01 0.  1.
         -5    1    4    4    0  501 -0.81245230108E+02 -0.15553435405E+03  0.68163294716E+03  0.70386978182E+03  0.41800000000E+01 0.  1.
</event>
<event>
11    1  0.9238666E-009  0.1717822E+03  0.7561462E-02  0.1076491E+00
         22   -1    0    0    0    0  0.00000000000E+00  0.00000000000E+00  0.17228332344E+03  0.17228332344E+03  0.00000000000E+00 0.  1.
         22   -1    0    0    0    0 -0.00000000000E+00 -0.00000000000E+00 -0.12096335769E+04  0.12096335769E+04  0.00000000000E+00 0. -1.
         24    2    1    2    0    0 -0.11099033456E+03  0.49124101181E+02 -0.10265394065E+04  0.10368248751E+04  0.80564488737E+02 0.  0.
         25    2    1    2    0    0  0.83512241592E+02 -0.37997034001E+02 -0.12712108806E+03  0.20056241104E+03  0.12508973020E+03 0.  0.
        -24    2    1    2    0    0  0.27478092971E+02 -0.11127067180E+02  0.11631024109E+03  0.14452961421E+03  0.80510123497E+02 0.  0.
        -13    1    3    3    0    0 -0.23724426421E+02 -0.22566112663E+02 -0.23135939791E+03  0.23366482159E+03  0.00000000000E+00 0.  1.
         14    1    3    3    0    0 -0.87265908142E+02  0.71690213844E+02 -0.79518000862E+03  0.80316005354E+03  0.00000000000E+00 0. -1.
         13    1    5    5    0    0  0.10881258142E+02 -0.31730326781E+01 -0.11060063593E+02  0.15836505985E+02  0.00000000000E+00 0. -1.
        -14    1    5    5    0    0  0.16596834829E+02 -0.79540345019E+01  0.12737030468E+03  0.12869310823E+03  0.00000000000E+00 0.  1.
          5    1    4    4  501    0 -0.40169382269E+01  0.17992018256E+02 -0.87117593319E+02  0.89144803434E+02  0.41800000000E+01 0.  1.
         -5    1    4    4    0  501  0.87529179819E+02 -0.55989052257E+02 -0.40003494742E+02  0.11141760760E+03  0.41800000000E+01 0.  1.
</event>
<event>
11    1  0.9238666E-009  0.1562233E+03  0.7561462E-02  0.1090684E+00
         22   -1    0    0    0    0  0.00000000000E+00  0.00000000000E+00  0.37906554584E+03  0.37906554584E+03  0.00000000000E+00 0.  1.
         22   -1    0    0    0    0 -0.00000000000E+00 -0.00000000000E+00 -0.10372953500E+04  0.10372953500E+04  0.00000000000E+00 0.  1.
        -24    2    1    2    0    0  0.18794208513E+02  0.20688319546E+02 -0.98266006874E+03  0.98632966021E+03  0.80275519812E+02 0.  0.
         25    2    1    2    0    0  0.79858598184E+02 -0.32478124091E+02  0.14371612844E+03  0.20912534108E+03  0.12508740328E+03 0.  0.
         24    2    1    2    0    0 -0.98652806697E+02  0.11789804544E+02  0.18071413617E+03  0.22090589451E+03  0.79186106468E+02 0.  0.
        -11    1    5    5    0    0 -0.96909047462E+02  0.27182720056E+02  0.17895204304E+03  0.20531463040E+03  0.00000000000E+00 0.  1.
         12    1    5    5    0    0 -0.17437592345E+01 -0.15392915511E+02  0.17620931278E+01  0.15591264105E+02  0.00000000000E+00 0. -1.
         13    1    3    3    0    0 -0.27730338461E+01 -0.70518964249E+01 -0.79367037935E+01  0.10973159390E+02  0.00000000000E+00 0. -1.
        -14    1    3    3    0    0  0.21567242359E+02  0.27740215971E+02 -0.97472336495E+03  0.97535650082E+03  0.00000000000E+00 0.  1.
          5    1    4    4  501    0 -0.88565489331E+01 -0.51922905574E+02  0.87547640492E+02  0.10225697208E+03  0.41800000000E+01 0.  1.
         -5    1    4    4    0  501  0.88715147117E+02  0.19444781484E+02  0.56168487951E+02  0.10686836900E+03  0.41800000000E+01 0.  1.
</event>
<event>
11    1  0.9238666E-009  0.1267038E+03  0.7561462E-02  0.1123387E+00
         22   -1    0    0    0    0  0.00000000000E+00  0.00000000000E+00  0.41523020490E+03  0.41523020490E+03  0.00000000000E+00 0.  1.
         22   -1    0    0    0    0 -0.00000000000E+00 -0.00000000000E+00 -0.17821677791E+03  0.17821677791E+03  0.00000000000E+00 0.  1.
        -24    2    1    2    0    0 -0.17079284623E+02 -0.15893820647E+02 -0.12058309599E+03  0.14633902951E+03  0.79564521135E+02 0.  0.
         25    2    1    2    0    0 -0.48409878462E+01  0.17844964673E+02  0.63715639476E+02  0.14160198411E+03  0.12509820648E+03 0.  0.
         24    2    1    2    0    0  0.21920272470E+02 -0.19511440252E+01  0.29388088350E+03  0.30550596918E+03  0.80520917849E+02 0.  0.
        -11    1    5    5    0    0  0.36834466286E+01  0.17231735262E+02  0.26769181508E+03  0.26827114705E+03  0.00000000000E+00 0.  1.
         12    1    5    5    0    0  0.18236825841E+02 -0.19182879288E+02  0.26189068422E+02  0.37234822134E+02  0.00000000000E+00 0. -1.
         11    1    3    3    0    0 -0.37347263245E+01  0.12919756065E+02  0.67913606266E+01  0.15066215738E+02  0.00000000000E+00 0. -1.
        -12    1    3    3    0    0 -0.13344558299E+02 -0.28813576713E+02 -0.12737445661E+03  0.13127281378E+03  0.00000000000E+00 0.  1.
          5    1    4    4  501    0 -0.32844929417E+02  0.63253253086E+02  0.47246683056E+02  0.85612410748E+02  0.41800000000E+01 0. -1.
         -5    1    4    4    0  501  0.28003941571E+02 -0.45408288413E+02  0.16468956420E+02  0.55989573366E+02  0.41800000000E+01 0. -1.
</event>
<event>
11    1  0.9238666E-009  0.1340638E+03  0.7561462E-02  0.1114374E+00
         22   -1    0    0    0    0  0.00000000000E+00  0.00000000000E+00  0.14972552446E+04  0.14972552446E+04  0.00000000000E+00 0.  1.
         22   -1    0    0    0    0 -0.00000000000E+00 -0.00000000000E+00 -0.41882832915E+03  0.41882832915E+03  0.00000000000E+00 0. -1.
         24    2    1    2    0    0 -0.48280410523E+02  0.16779878679E+02 -0.38231113058E+03  0.40043539457E+03  0.10758318777E+03 0.  0.
         25    2    1    2    0    0  0.60349227834E+01  0.29759335153E+02  0.13727237164E+03  0.18818303071E+03  0.12508841158E+03 0.  0.
        -24    2    1    2    0    0  0.42245487739E+02 -0.46539213832E+02  0.13234656744E+04  0.13274651485E+04  0.81558257928E+02 0.  0.
        -13    1    3    3    0    0 -0.18867652732E+02  0.58298621644E+02 -0.13972497508E+03  0.15257059437E+03  0.00000000000E+00 0.  1.
         14    1    3    3    0    0 -0.29412757791E+02 -0.41518742965E+02 -0.24258615550E+03  0.24786480020E+03  0.00000000000E+00 0. -1.
         11    1    5    5    0    0 -0.90210442975E+01 -0.50570726689E+02  0.69991999642E+03  0.70180252139E+03  0.00000000000E+00 0. -1.
        -12    1    5    5    0    0  0.51266532037E+02  0.40315128563E+01  0.62354567802E+03  0.62566262713E+03  0.00000000000E+00 0.  1.
          5    1    4    4  501    0  0.56498678624E+02  0.41728198878E+02  0.10676979630E+03  0.12786948452E+03  0.41800000000E+01 0. -1.
         -5    1    4    4    0  501 -0.50463755841E+02 -0.11968863725E+02  0.30502575336E+02  0.60313546194E+02  0.41800000000E+01 0. -1.
</event>
<event>
11    1  0.9238666E-009  0.1848562E+03  0.7561462E-02  0.1065781E+00
         22   -1    0    0    0    0  0.00000000000E+00  0.00000000000E+00  0.50789892124E+03  0.50789892124E+03  0.00000000000E+00 0.  1.
         22   -1    0    0    0    0 -0.00000000000E+00 -0.00000000000E+00 -0.16762992154E+04  0.16762992154E+04  0.00000000000E+00 0.  1.
         24    2    1    2    0    0 -0.33567379427E+02  0.59500014853E+02 -0.16121942306E+04  0.16156905248E+04  0.81354864439E+02 0.  0.
         25    2    1    2    0    0  0.10127375408E+03 -0.14473244610E+03  0.27735829509E+03  0.35182202340E+03  0.12508900063E+03 0.  0.
        -24    2    1    2    0    0 -0.67706374656E+02  0.85232431250E+02  0.16643564138E+03  0.21668558842E+03  0.86041274999E+02 0.  0.
        -11    1    3    3    0    0 -0.27854123287E+02  0.75173789320E+02 -0.15114315626E+04  0.15135561830E+04  0.00000000000E+00 0.  1.
         12    1    3    3    0    0 -0.57132561406E+01 -0.15673774467E+02 -0.10076266802E+03  0.10213434177E+03  0.00000000000E+00 0. -1.
         11    1    5    5    0    0 -0.47453651507E+02  0.51373405983E+02  0.32610039129E+02  0.77165345432E+02  0.00000000000E+00 0. -1.
        -12    1    5    5    0    0 -0.20252723150E+02  0.33859025267E+02  0.13382560225E+03  0.13952024299E+03  0.00000000000E+00 0.  1.
          5    1    4    4  501    0  0.11246894168E+03 -0.15157228882E+03  0.20712953193E+03  0.28025619882E+03  0.41800000000E+01 0.  1.
         -5    1    4    4    0  501 -0.11195187592E+02  0.68398427217E+01  0.70228763155E+02  0.71565824581E+02  0.41800000000E+01 0.  1.
</event>
<event>
11    1  0.9238666E-009  0.2097199E+03  0.7561462E-02  0.1047855E+00
         22   -1    0    0    0    0  0.00000000000E+00  0.00000000000E+00  0.32432301025E+04  0.32432301025E+04  0.00000000000E+00 0. -1.
         22   -1    0    0    0    0 -0.00000000000E+00 -0.00000000000E+00 -0.32240299067E+02  0.32240299067E+02  0.00000000000E+00 0.  1.
        -24    2    1    2    0    0  0.72137909165E+02 -0.13307917938E+03  0.65392998084E+03  0.67644021141E+03  0.83862946782E+02 0.  0.
         25    2    1    2    0    0 -0.70774858801E+02  0.17032085776E+03  0.59492440735E+03  0.63529454794E+03  0.12508332002E+03 0.  0.
         24    2    1    2    0    0 -0.13630503643E+01 -0.37241678387E+02  0.19621354152E+04  0.19637356422E+04  0.69953443717E+02 0.  0.
        -11    1    5    5    0    0  0.14942899440E+02 -0.48380500742E+02  0.90474403774E+03  0.90615988486E+03  0.00000000000E+00 0.  1.
         12    1    5    5    0    0 -0.16305949804E+02  0.11138822355E+02  0.10573913775E+04  0.10575757574E+04  0.00000000000E+00 0. -1.
         11    1    3    3    0    0  0.71820558797E+02 -0.64905291245E+02  0.27783582967E+03  0.29421699092E+03  0.00000000000E+00 0. -1.
        -12    1    3    3    0    0  0.31735036835E+00 -0.68173888131E+02  0.37609415117E+03  0.38222322049E+03  0.00000000000E+00 0.  1.
          5    1    4    4  501    0  0.52757801119E+01  0.97497533424E+01  0.22066314122E+03  0.22098096262E+03  0.41800000000E+01 0. -1.
         -5    1    4    4    0  501 -0.76050638913E+02  0.16057110442E+03  0.37426126613E+03  0.41431358532E+03  0.41800000000E+01 0. -1.
</event>
<event>
11    1  0.9238666E-009  0.1608935E+03  0.7561462E-02  0.1086240E+00
         22   -1    0    0    0    0  0.00000000000E+00  0.00000000000E+00  0.86833336186E+02  0.86833336186E+02  0.00000000000E+00 0. -1.
         22   -1    0    0    0    0 -0.00000000000E+00 -0.00000000000E+00 -0.94740689835E+03  0.94740689835E+03  0.00000000000E+00 0.  1.
        -24    2    1    2    0    0 -0.16699073594E+02 -0.36856956014E+02 -0.68006096758E+03  0.68599206409E+03  0.80404589996E+02 0.  0.
         25    2    1    2    0    0 -0.90391759969E+02  0.26268495323E+02 -0.13451378253E+03  0.20640274091E+03  0.12508968642E+03 0.  0.
         24    2    1    2    0    0  0.10709083356E+03  0.10588460690E+02 -0.45998812045E+02  0.14184542953E+03  0.80147819913E+02 0.  0.
        -13    1    5    5    0    0  0.59130726510E+01  0.14925112264E+02 -0.36810391257E+02  0.40158788687E+02  0.00000000000E+00 0.  1.
         14    1    5    5    0    0  0.10117776091E+03 -0.43366515740E+01 -0.91884207879E+01  0.10168664085E+03  0.00000000000E+00 0. -1.
         13    1    3    3    0    0 -0.38482660314E+02  0.80420086550E+01 -0.25523916032E+03  0.25824913941E+03  0.00000000000E+00 0. -1.
        -14    1    3    3    0    0  0.21783586720E+02 -0.44898964669E+02 -0.42482180727E+03  0.42774292467E+03  0.00000000000E+00 0.  1.
          5    1    4    4  501    0 -0.47130909901E+02  0.51872764684E+02 -0.13903475602E+03  0.15575699717E+03  0.41800000000E+01 0. -1.
         -5    1    4    4    0  501 -0.43260850068E+02 -0.25604269361E+02  0.45209734941E+01  0.50645743745E+02  0.41800000000E+01 0. -1.
</event>
<event>
11    1  0.9238666E-009  0.1532173E+03  0.7561462E-02  0.1093636E+00
         22   -1    0    0    0    0  0.00000000000E+00  0.00000000000E+00  0.12514673583E+04  0.12514673583E+04  0.00000000000E+00 0. -1.
         22   -1    0    0    0    0 -0.00000000000E+00 -0.00000000000E+00 -0.10860246494E+04  0.10860246494E+04  0.00000000000E+00 0. -1.
        -24    2    1    2    0    0 -0.83272148823E+01  0.88470035890E+02 -0.10404217117E+04  0.10473590778E+04  0.81162860940E+02 0.  0.
         25    2    1    2    0    0  0.14171687088E+02 -0.73012627199E+02  0.90656918078E+02  0.17145679289E+03  0.12508826718E+03 0.  0.
         24    2    1    2    0    0 -0.58444722053E+01 -0.15457408691E+02  0.11152075025E+04  0.11186761370E+04  0.86460606329E+02 0.  0.
        -11    1    5    5    0    0  0.71749591269E+01  0.28722649136E+02  0.74881673997E+03  0.74940174851E+03  0.00000000000E+00 0.  1.
         12    1    5    5    0    0 -0.13019431332E+02 -0.44180057827E+02  0.36639076253E+03  0.36927438846E+03  0.00000000000E+00 0. -1.
         11    1    3    3    0    0 -0.14621951872E+01  0.85399964163E+02 -0.52655959808E+03  0.53344193894E+03  0.00000000000E+00 0. -1.
        -12    1    3    3    0    0 -0.68650196950E+01  0.30700717271E+01 -0.51386211363E+03  0.51391713891E+03  0.00000000000E+00 0.  1.
          5    1    4    4  501    0 -0.35225058190E+02 -0.85194898597E+02  0.43748702024E+02  0.10212931411E+03  0.41800000000E+01 0. -1.
         -5    1    4    4    0  501  0.49396745277E+02  0.12182271398E+02  0.46908216054E+02  0.69327478779E+02  0.41800000000E+01 0. -1.
</event>
<event>
11    1  0.9238666E-009  0.1455385E+03  0.7561462E-02  0.1101527E+00
         22   -1    0    0    0    0  0.00000000000E+00  0.00000000000E+00  0.46958528786E+03  0.46958528786E+03  0.00000000000E+00 0.  1.
         22   -1    0    0    0    0 -0.00000000000E+00 -0.00000000000E+00 -0.59605191248E+03  0.59605191248E+03  0.00000000000E+00 0. -1.
         24    2    1    2    0    0 -0.53069487868E+02  0.49512003488E+02 -0.47286075987E+03  0.48479180697E+03  0.78472854221E+02 0.  0.
         25    2    1    2    0    0  0.14038703042E+02 -0.11917343056E+03 -0.43793460179E+02  0.17878786659E+03  0.12509133603E+03 0.  0.
        -24    2    1    2    0    0  0.39030784826E+02  0.69661427072E+02  0.39018759543E+03  0.40205752678E+03  0.55025254481E+02 0.  0.
        -13    1    3    3    0    0 -0.84741529975E+01  0.39738372366E+02 -0.84549620292E+02  0.93806118131E+02  0.00000000000E+00 0.  1.
         14    1    3    3    0    0 -0.44595334871E+02  0.97736311228E+01 -0.38831113958E+03  0.39098568884E+03  0.00000000000E+00 0. -1.
         11    1    5    5    0    0 -0.11355091654E+02  0.40080409813E+01  0.27055774874E+02  0.29614480461E+02  0.00000000000E+00 0. -1.
        -12    1    5    5    0    0  0.50385876480E+02  0.65653386091E+02  0.36313182055E+03  0.37244304632E+03  0.00000000000E+00 0.  1.
          5    1    4    4  501    0  0.21303742815E+02 -0.10710640748E+03  0.21912146496E+02  0.11145961845E+03  0.41800000000E+01 0.  1.
         -5    1    4    4    0  501 -0.72650397726E+01 -0.12067023081E+02 -0.65705606675E+02  0.67328248139E+02  0.41800000000E+01 0.  1.
</event>
<event>
11    1  0.9238666E-009  0.1593164E+03  0.7561462E-02  0.1087722E+00
         22   -1    0    0    0    0  0.00000000000E+00  0.00000000000E+00  0.11855631918E+04  0.11855631918E+04  0.00000000000E+00 0.  1.
         22   -1    0    0    0    0 -0.00000000000E+00 -0.00000000000E+00 -0.37459090085E+03  0.37459090085E+03  0.00000000000E+00 0. -1.
        -24    2    1    2    0    0 -0.11101540177E+02 -0.10545347092E+03 -0.31171262087E+03  0.33819542192E+03  0.77250933174E+02 0.  0.
         25    2    1    2    0    0 -0.23837539560E+02  0.46434671355E+02  0.50718302176E+02  0.14472639985E+03  0.12509587380E+03 0.  0.
         24    2    1    2    0    0  0.34939079737E+02  0.59018799560E+02  0.10719666097E+04  0.10772322709E+04  0.81320324903E+02 0.  0.
        -11    1    5    5    0    0  0.47260951575E+00 -0.42089531841E+01  0.58073722023E+03  0.58075266475E+03  0.00000000000E+00 0.  1.
         12    1    5    5    0    0  0.34466470221E+02  0.63227752744E+02  0.49122938945E+03  0.49647960617E+03  0.00000000000E+00 0. -1.
         13    1    3    3    0    0  0.13497921232E+01 -0.11075306307E+03 -0.22896104387E+03  0.25434469236E+03  0.00000000000E+00 0. -1.
        -14    1    3    3    0    0 -0.12451332300E+02  0.52995921554E+01 -0.82751576996E+02  0.83850729564E+02  0.00000000000E+00 0.  1.
          5    1    4    4  501    0  0.15840741986E+02 -0.37227210259E+02  0.27740961750E+02  0.49232384150E+02  0.41800000000E+01 0.  1.
         -5    1    4    4    0  501 -0.39678281546E+02  0.83661881614E+02  0.22977340427E+02  0.95494015701E+02  0.41800000000E+01 0.  1.
</event>
<event>
11    1  0.9238666E-009  0.1353349E+03  0.7561462E-02  0.1112883E+00
         22   -1    0    0    0    0  0.00000000000E+00  0.00000000000E+00  0.82296825942E+03  0.82296825942E+03  0.00000000000E+00 0. -1.
         22   -1    0    0    0    0 -0.00000000000E+00 -0.00000000000E+00 -0.43350148927E+03  0.43350148927E+03  0.00000000000E+00 0.  1.
        -24    2    1    2    0    0 -0.47706186400E+02  0.20491827145E+02 -0.36160480551E+03  0.37419658586E+03  0.81050936455E+02 0.  0.
         25    2    1    2    0    0  0.27442495105E+02 -0.55601663977E+02  0.14521576165E+02  0.14036782421E+03  0.12509042459E+03 0.  0.
         24    2    1    2    0    0  0.20263691296E+02  0.35109836832E+02  0.73654999949E+03  0.74190533862E+03  0.79210554238E+02 0.  0.
        -13    1    5    5    0    0 -0.12999639571E+02 -0.10161132126E+02  0.42576793229E+02  0.45662047225E+02  0.00000000000E+00 0.  1.
         14    1    5    5    0    0  0.33263330867E+02  0.45270968957E+02  0.69397320626E+03  0.69624329140E+03  0.00000000000E+00 0. -1.
         13    1    3    3    0    0 -0.55101772931E+01  0.11364597765E+02 -0.29723935220E+01  0.12975024447E+02  0.00000000000E+00 0. -1.
        -14    1    3    3    0    0 -0.42196009107E+02  0.91272293808E+01 -0.35863241199E+03  0.36122156141E+03  0.00000000000E+00 0.  1.
          5    1    4    4  501    0  0.83043692994E+01 -0.71287885950E+00 -0.51480363941E+02  0.52317979866E+02  0.41800000000E+01 0.  1.
         -5    1    4    4    0  501  0.19138125805E+02 -0.54888785118E+02  0.66001940106E+02  0.88049844343E+02  0.41800000000E+01 0.  1.
</event>
<event>
11    1  0.9238666E-009  0.1630499E+03  0.7561462E-02  0.1084243E+00
         22   -1    0    0    0    0  0.00000000000E+00  0.00000000000E+00  0.83851387972E+02  0.83851387972E+02  0.00000000000E+00 0. -1.
         22   -1    0    0    0    0 -0.00000000000E+00 -0.00000000000E+00 -0.10910665313E+04  0.10910665313E+04  0.00000000000E+00 0. -1.
         24    2    1    2    0    0 -0.76049446065E+02  0.55533729756E+02 -0.49639005555E+03  0.51428465968E+03  0.96010991820E+02 0.  0.
         25    2    1    2    0    0  0.90654142559E+02 -0.79360290689E+02 -0.54255046145E+03  0.56968153322E+03  0.12513918960E+03 0.  0.
        -24    2    1    2    0    0 -0.14604696495E+02  0.23826560933E+02  0.31725373655E+02  0.90951726383E+02  0.80527728348E+02 0.  0.
        -13    1    3    3    0    0  0.16408976424E+02  0.34624540786E+02 -0.17829723287E+03  0.18236780577E+03  0.00000000000E+00 0.  1.
         14    1    3    3    0    0 -0.92458422488E+02  0.20909188970E+02 -0.31809282268E+03  0.33191685391E+03  0.00000000000E+00 0. -1.
         13    1    5    5    0    0 -0.31526181561E+02  0.20895315687E+02  0.52051566059E+02  0.64341898252E+02  0.00000000000E+00 0. -1.
        -14    1    5    5    0    0  0.16921485067E+02  0.29312452454E+01 -0.20326192403E+02  0.26609828131E+02  0.00000000000E+00 0.  1.
          5    1    4    4  501    0  0.15710083772E+02 -0.94856662012E+02 -0.32935559619E+03  0.34312850975E+03  0.41800000000E+01 0. -1.
         -5    1    4    4    0  501  0.74944058787E+02  0.15496371323E+02 -0.21319486526E+03  0.22655302347E+03  0.41800000000E+01 0. -1.
</event>
<event>
11    1  0.9238666E-009  0.1482042E+03  0.7561462E-02  0.1098728E+00
         22   -1    0    0    0    0  0.00000000000E+00  0.00000000000E+00  0.42883527721E+03  0.42883527721E+03  0.00000000000E+00 0. -1.
         22   -1    0    0    0    0 -0.00000000000E+00 -0.00000000000E+00 -0.21341684469E+03  0.21341684469E+03  0.00000000000E+00 0. -1.
        -24    2    1    2    0    0  0.12480841820E+02  0.77338752792E+02 -0.15518397873E+03  0.19017026021E+03  0.77107759115E+02 0.  0.
         25    2    1    2    0    0 -0.19862020699E+02 -0.89015536919E+02  0.14396658382E+03  0.21140515208E+03  0.12508994919E+03 0.  0.
         24    2    1    2    0    0  0.73811788790E+01  0.11676784127E+02  0.22663582742E+03  0.24067670961E+03  0.79816359162E+02 0.  0.
        -11    1    5    5    0    0  0.33205101222E+02  0.60555524384E+01  0.40712408093E+02  0.52884294788E+02  0.00000000000E+00 0.  1.
         12    1    5    5    0    0 -0.25823922343E+02  0.56212316886E+01  0.18592341933E+03  0.18779241482E+03  0.00000000000E+00 0. -1.
         13    1    3    3    0    0  0.95742762257E+01  0.65144136247E+02 -0.16272438644E+03  0.17554102425E+03  0.00000000000E+00 0. -1.
        -14    1    3    3    0    0  0.29065655940E+01  0.12194616545E+02  0.75404077079E+01  0.14629235955E+02  0.00000000000E+00 0.  1.
          5    1    4    4  501    0 -0.44434698908E+01  0.20447350234E+02 -0.85559998725E+01  0.22989477812E+02  0.41800000000E+01 0. -1.
         -5    1    4    4    0  501 -0.15418550808E+02 -0.10946288715E+03  0.15252258370E+03  0.18841567427E+03  0.41800000000E+01 0. -1.
</event>
<event>
11    1  0.9238666E-009  0.2114620E+03  0.7561462E-02  0.1046702E+00
         22   -1    0    0    0    0  0.00000000000E+00  0.00000000000E+00  0.16802609101E+04  0.16802609101E+04  0.00000000000E+00 0. -1.
         22   -1    0    0    0    0 -0.00000000000E+00 -0.00000000000E+00 -0.77126674614E+02  0.77126674614E+02  0.00000000000E+00 0. -1.
        -24    2    1    2    0    0  0.39880006923E+02  0.32511823311E+02  0.81351253072E+01  0.96448046536E+02  0.81170264319E+02 0.  0.
         25    2    1    2    0    0  0.92938235544E+02  0.92350773012E+02  0.29770866092E+03  0.34848802726E+03  0.12508907807E+03 0.  0.
         24    2    1    2    0    0 -0.13281824247E+03 -0.12486259632E+03  0.12972904492E+04  0.13124515109E+04  0.79593374666E+02 0.  0.
        -11    1    5    5    0    0 -0.10365072840E+03 -0.99121629832E+02  0.73777590752E+03  0.75158622973E+03  0.00000000000E+00 0.  1.
         12    1    5    5    0    0 -0.29167514063E+02 -0.25740966491E+02  0.55951454170E+03  0.56086528115E+03  0.00000000000E+00 0. -1.
         13    1    3    3    0    0  0.42273396538E+02  0.56450579907E+02 -0.14790821127E+01  0.70540029137E+02  0.00000000000E+00 0. -1.
        -14    1    3    3    0    0 -0.23933896145E+01 -0.23938756596E+02  0.96142074200E+01  0.25908017399E+02  0.00000000000E+00 0.  1.
          5    1    4    4  501    0 -0.13561906763E+02  0.38947403593E+02  0.16486699321E+03  0.16999830415E+03  0.41800000000E+01 0. -1.
         -5    1    4    4    0  501  0.10650014231E+03  0.53403369419E+02  0.13284166771E+03  0.17848972311E+03  0.41800000000E+01 0. -1.
</event>
<event>
11    1  0.9238666E-009  0.1310226E+03  0.7561462E-02  0.1118019E+00
         22   -1    0    0    0    0  0.00000000000E+00  0.00000000000E+00  0.88789002286E+03  0.88789002286E+03  0.00000000000E+00 0. -1.
         22   -1    0    0    0    0 -0.00000000000E+00 -0.00000000000E+00 -0.11843038096E+04  0.11843038096E+04  0.00000000000E+00 0. -1.
         24    2    1    2    0    0 -0.23994006398E+02 -0.21396938337E+02 -0.61938386563E+03  0.62525209045E+03  0.79184987821E+02 0.  0.
         25    2    1    2    0    0  0.26648188359E+02  0.60194541241E+02 -0.55073068927E+03  0.56858155902E+03  0.12508872215E+03 0.  0.
        -24    2    1    2    0    0 -0.26541819612E+01 -0.38797602903E+02  0.87370076815E+03  0.87836018300E+03  0.81555380804E+02 0.  0.
        -13    1    3    3    0    0 -0.96173538936E+01 -0.21244532833E+02 -0.44957582899E+02  0.50645907350E+02  0.00000000000E+00 0.  1.
         14    1    3    3    0    0 -0.14376652504E+02 -0.15240550468E+00 -0.57442628273E+03  0.57460618310E+03  0.00000000000E+00 0. -1.
         11    1    5    5    0    0  0.28576371922E+01 -0.79699861291E+01  0.76970388473E+03  0.76975045108E+03  0.00000000000E+00 0. -1.
        -12    1    5    5    0    0 -0.55118191534E+01 -0.30827616774E+02  0.10399688342E+03  0.10860973192E+03  0.00000000000E+00 0.  1.
          5    1    4    4  501    0  0.50758895666E+02 -0.21741971920E+02 -0.23932032621E+03  0.24564378635E+03  0.41800000000E+01 0. -1.
         -5    1    4    4    0  501 -0.24110707307E+02  0.81936513160E+02 -0.31141036306E+03  0.32293777267E+03  0.41800000000E+01 0. -1.
</event>
<event>
11    1  0.9238666E-009  0.1507664E+03  0.7561462E-02  0.1096098E+00
         22   -1    0    0    0    0  0.00000000000E+00  0.00000000000E+00  0.28721070854E+03  0.28721070854E+03  0.00000000000E+00 0. -1.
         22   -1    0    0    0    0 -0.00000000000E+00 -0.00000000000E+00 -0.25056011172E+03  0.25056011172E+03  0.00000000000E+00 0.  1.
        -24    2    1    2    0    0  0.74938407359E+02 -0.40289889869E+02 -0.16900183208E+03  0.20688793061E+03  0.83677693934E+02 0.  0.
         25    2    1    2    0    0 -0.43770365837E+02  0.77857007275E+02  0.11152192836E+03  0.18989480320E+03  0.12508132263E+03 0.  0.
         24    2    1    2    0    0 -0.31168041522E+02 -0.37567117406E+02  0.94130500542E+02  0.14098808645E+03  0.92921226132E+02 0.  0.
        -13    1    5    5    0    0 -0.18028549657E+02  0.24982070916E+02  0.62488020355E+02  0.69669829610E+02  0.00000000000E+00 0.  1.
         14    1    5    5    0    0 -0.13139491864E+02 -0.62549188322E+02  0.31642480187E+02  0.71318256840E+02  0.00000000000E+00 0. -1.
         13    1    3    3    0    0  0.35436636118E+02 -0.29601482305E+02 -0.16567093927E+02  0.49055800220E+02  0.00000000000E+00 0. -1.
        -14    1    3    3    0    0  0.39501771240E+02 -0.10688407564E+02 -0.15243473816E+03  0.15783213039E+03  0.00000000000E+00 0.  1.
          5    1    4    4  501    0 -0.43952612284E+02 -0.39860893644E+01 -0.79301233945E+01  0.45034212462E+02  0.41800000000E+01 0.  1.
         -5    1    4    4    0  501  0.18224644751E+00  0.81843096639E+02  0.11945205175E+03  0.14486059074E+03  0.41800000000E+01 0.  1.
</event>
<event>
11    1  0.9238666E-009  0.2746151E+03  0.7561462E-02  0.1011546E+00
         22   -1    0    0    0    0  0.00000000000E+00  0.00000000000E+00  0.15745500243E+04  0.15745500243E+04  0.00000000000E+00 0.  1.
         22   -1    0    0    0    0 -0.00000000000E+00 -0.00000000000E+00 -0.77392971694E+03  0.77392971694E+03  0.00000000000E+00 0.  1.
        -24    2    1    2    0    0  0.10725141693E+03 -0.21892248029E+03 -0.72087345526E+03  0.76543192770E+03  0.82447429467E+02 0.  0.
         25    2    1    2    0    0 -0.10796013680E+03  0.24552205715E+03  0.74090738305E+03  0.79782903487E+03  0.12510374466E+03 0.  0.
         24    2    1    2    0    0  0.70871987604E+00 -0.26599576862E+02  0.78058637956E+03  0.78521877866E+03  0.80903613225E+02 0.  0.
        -11    1    5    5    0    0  0.21447661076E+02 -0.48110715429E+02  0.58451545722E+03  0.58688411363E+03  0.00000000000E+00 0.  1.
         12    1    5    5    0    0 -0.20738941199E+02  0.21511138567E+02  0.19607092234E+03  0.19833466503E+03  0.00000000000E+00 0. -1.
         13    1    3    3    0    0  0.29128599656E+01  0.74916977812E+01 -0.23725723995E+02  0.25050354647E+02  0.00000000000E+00 0. -1.
        -14    1    3    3    0    0  0.10433855696E+03 -0.22641417807E+03 -0.69714773127E+03  0.74038157305E+03  0.00000000000E+00 0.  1.
          5    1    4    4  501    0 -0.10002469931E+03  0.21246651977E+03  0.72082548420E+03  0.75812519650E+03  0.41800000000E+01 0. -1.
         -5    1    4    4    0  501 -0.79354374885E+01  0.33055537379E+02  0.20081898853E+02  0.39703838368E+02  0.41800000000E+01 0. -1.
</event>
<event>
11    1  0.9238666E-009  0.1460594E+03  0.7561462E-02  0.1100975E+00
         22   -1    0    0    0    0  0.00000000000E+00  0.00000000000E+00  0.87067258266E+03  0.87067258266E+03  0.00000000000E+00 0.  1.
         22   -1    0    0    0    0 -0.00000000000E+00 -0.00000000000E+00 -0.23971412598E+03  0.23971412598E+03  0.00000000000E+00 0.  1.
        -24    2    1    2    0    0 -0.43089903240E+02 -0.18668928718E+01 -0.10598753722E+03  0.13972599979E+03  0.80185858618E+02 0.  0.
         25    2    1    2    0    0  0.31566105142E+02  0.76542834103E+02 -0.62550156833E+02  0.16252890666E+03  0.12509156221E+03 0.  0.
         24    2    1    2    0    0  0.11523798097E+02 -0.74675941231E+02  0.79949615073E+03  0.80813180219E+03  0.90408077925E+02 0.  0.
        -11    1    5    5    0    0  0.20358028549E+02 -0.90572023894E+02  0.74309756164E+03  0.74887363885E+03  0.00000000000E+00 0.  1.
         12    1    5    5    0    0 -0.88342304514E+01  0.15896082662E+02  0.56398589087E+02  0.59258163342E+02  0.00000000000E+00 0. -1.
         11    1    3    3    0    0 -0.64869793815E+02  0.10243490912E+02 -0.82835910494E+02  0.10571096122E+03  0.00000000000E+00 0. -1.
        -12    1    3    3    0    0  0.21779890575E+02 -0.12110383783E+02 -0.23151626723E+02  0.34015038567E+02  0.00000000000E+00 0.  1.
          5    1    4    4  501    0 -0.38004058813E+02  0.27045330649E+01  0.76543569877E+01  0.39085605615E+02  0.41800000000E+01 0. -1.
         -5    1    4    4    0  501  0.69570163956E+02  0.73838301038E+02 -0.70204513821E+02  0.12344330105E+03  0.41800000000E+01 0. -1.
</event>
<event>
11    1  0.9238666E-009  0.1387330E+03  0.7561462E-02  0.1108981E+00
         22   -1    0    0    0    0  0.00000000000E+00  0.00000000000E+00  0.36059444056E+03  0.36059444056E+03  0.00000000000E+00 0. -1.
         22   -1    0    0    0    0 -0.00000000000E+00 -0.00000000000E+00 -0.90966381029E+03  0.90966381029E+03  0.00000000000E+00 0. -1.
        -24    2    1    2    0    0 -0.49278547829E+02 -0.26486361854E+02 -0.73240553250E+03  0.73878107629E+03  0.79055120119E+02 0.  0.
         25    2    1    2    0    0 -0.25139401830E+01  0.59145024103E+02 -0.13719444182E+03  0.19486852442E+03  0.12508786180E+03 0.  0.
         24    2    1    2    0    0  0.51792488012E+02 -0.32658662249E+02  0.32053060459E+03  0.33660865015E+03  0.82561884947E+02 0.  0.
        -13    1    5    5    0    0  0.27297683355E+02 -0.47259438559E+02  0.97276625730E+02  0.11154084437E+03  0.00000000000E+00 0.  1.
         14    1    5    5    0    0  0.24494804657E+02  0.14600776310E+02  0.22325397886E+03  0.22506780578E+03  0.00000000000E+00 0. -1.
         13    1    3    3    0    0  0.43639047423E+01 -0.11667364305E+02 -0.48639139214E+03  0.48655087854E+03  0.00000000000E+00 0. -1.
        -14    1    3    3    0    0 -0.53642452571E+02 -0.14818997549E+02 -0.24601414035E+03  0.25223019776E+03  0.00000000000E+00 0.  1.
          5    1    4    4  501    0  0.44174117152E+02  0.69125285517E+02 -0.11678301648E+03  0.14277745992E+03  0.41800000000E+01 0. -1.
         -5    1    4    4    0  501 -0.46688057335E+02 -0.99802614142E+01 -0.20411425343E+02  0.52091064495E+02  0.41800000000E+01 0. -1.
</event>
<event>
11    1  0.9238666E-009  0.1389860E+03  0.7561462E-02  0.1108696E+00
         22   -1    0    0    0    0  0.00000000000E+00  0.00000000000E+00  0.11722644026E+04  0.11722644026E+04  0.00000000000E+00 0.  1.
         22   -1    0    0    0    0 -0.00000000000E+00 -0.00000000000E+00 -0.19327714045E+03  0.19327714045E+03  0.00000000000E+00 0.  1.
         24    2    1    2    0    0  0.61891032703E+02 -0.20914857253E+02 -0.16399379318E+03  0.19445358538E+03  0.81549380653E+02 0.  0.
         25    2    1    2    0    0  0.15681907684E+02 -0.12138579519E+01  0.39893367162E+03  0.41838198806E+03  0.12509203771E+03 0.  0.
        -24    2    1    2    0    0 -0.77572940387E+02  0.22128715205E+02  0.74404738365E+03  0.75270596956E+03  0.80327618992E+02 0.  0.
        -11    1    3    3    0    0  0.72832243640E+02 -0.25848752984E+02 -0.86333629621E+02  0.11587143456E+03  0.00000000000E+00 0.  1.
         12    1    3    3    0    0 -0.10941210936E+02  0.49338957311E+01 -0.77660163556E+02  0.78582150819E+02  0.00000000000E+00 0. -1.
         11    1    5    5    0    0 -0.60867288910E+00  0.27576140863E+02  0.90233400773E+02  0.94355077461E+02  0.00000000000E+00 0. -1.
        -12    1    5    5    0    0 -0.76964267498E+02 -0.54474256584E+01  0.65381398288E+03  0.65835089210E+03  0.00000000000E+00 0.  1.
          5    1    4    4  501    0  0.48521216187E+02 -0.19611574582E+02  0.71181377627E+02  0.88448760301E+02  0.41800000000E+01 0.  1.
         -5    1    4    4    0  501 -0.32839308503E+02  0.18397716630E+02  0.32775229400E+03  0.32993322776E+03  0.41800000000E+01 0.  1.
</event>
<event>
11    1  0.9238666E-009  0.1584924E+03  0.7561462E-02  0.1088504E+00
         22   -1    0    0    0    0  0.00000000000E+00  0.00000000000E+00  0.14548262847E+04  0.14548262847E+04  0.00000000000E+00 0.  1.
         22   -1    0    0    0    0 -0.00000000000E+00 -0.00000000000E+00 -0.34956855377E+03  0.34956855377E+03  0.00000000000E+00 0.  1.
         24    2    1    2    0    0 -0.63120978694E+02 -0.73489614090E+02 -0.28664310449E+03  0.31320791378E+03  0.80931740206E+02 0.  0.
         25    2    1    2    0    0  0.19273976709E+01  0.13113591853E+03  0.12770857881E+03  0.22171283085E+03  0.12508698680E+03 0.  0.
        -24    2    1    2    0    0  0.61193581023E+02 -0.57646304444E+02  0.12641922566E+04  0.12694740939E+04  0.79464850831E+02 0.  0.
        -13    1    3    3    0    0 -0.75599867278E+02 -0.67138690668E+02 -0.28002704371E+03  0.29772149557E+03  0.00000000000E+00 0.  1.
         14    1    3    3    0    0  0.12478888584E+02 -0.63509234220E+01 -0.66160607768E+01  0.15486418205E+02  0.00000000000E+00 0. -1.
         11    1    5    5    0    0  0.11162177183E+02 -0.47855277534E+02  0.30545967551E+03  0.30938703132E+03  0.00000000000E+00 0. -1.
        -12    1    5    5    0    0  0.50031403840E+02 -0.97910269105E+01  0.95873258113E+03  0.96008706256E+03  0.00000000000E+00 0.  1.
          5    1    4    4  501    0 -0.49765370174E+02  0.11336050306E+03  0.70738682203E+02  0.14264862173E+03  0.41800000000E+01 0. -1.
         -5    1    4    4    0  501  0.51692767845E+02  0.17775415473E+02  0.56969896609E+02  0.79064209111E+02  0.41800000000E+01 0. -1.
</event>
<event>
11    1  0.9238666E-009  0.1271696E+03  0.7561462E-02  0.1122796E+00
         22   -1    0    0    0    0  0.00000000000E+00  0.00000000000E+00  0.33347461577E+03  0.33347461577E+03  0.00000000000E+00 0.  1.
         22   -1    0    0    0    0 -0.00000000000E+00 -0.00000000000E+00 -0.32499523506E+03  0.32499523506E+03  0.00000000000E+00 0.  1.
         24    2    1    2    0    0 -0.11237758151E+02  0.12698746705E+02 -0.28474443862E+03  0.29591926208E+03  0.78748136283E+02 0.  0.
         25    2    1    2    0    0 -0.43872433824E+01 -0.27928588683E+02  0.16095281985E+03  0.20579755760E+03  0.12509024953E+03 0.  0.
        -24    2    1    2    0    0  0.15625001533E+02  0.15229841978E+02  0.13227099947E+03  0.15675303115E+03  0.81239194445E+02 0.  0.
        -13    1    3    3    0    0 -0.27029228747E+02 -0.23805467359E+02 -0.18619023829E+03  0.18964198986E+03  0.00000000000E+00 0.  1.
         14    1    3    3    0    0  0.15791470596E+02  0.36504214064E+02 -0.98554200333E+02  0.10627727222E+03  0.00000000000E+00 0. -1.
         13    1    5    5    0    0 -0.90133806764E+01  0.25092172852E+02  0.54863423924E+01  0.27220545963E+02  0.00000000000E+00 0. -1.
        -14    1    5    5    0    0  0.24638382210E+02 -0.98623308746E+01  0.12678465708E+03  0.12953248519E+03  0.00000000000E+00 0.  1.
          5    1    4    4  501    0  0.13406371114E+02 -0.75752599290E+02  0.97498305487E+02  0.12426415034E+03  0.41800000000E+01 0.  1.
         -5    1    4    4    0  501 -0.17793614496E+02  0.47824010607E+02  0.63454514367E+02  0.81533407269E+02  0.41800000000E+01 0.  1.
</event>
<event>
11    1  0.9238666E-009  0.1516121E+03  0.7561462E-02  0.1095243E+00
         22   -1    0    0    0    0  0.00000000000E+00  0.00000000000E+00  0.27825858333E+04  0.27825858333E+04  0.00000000000E+00 0.  1.
         22   -1    0    0    0    0 -0.00000000000E+00 -0.00000000000E+00 -0.17507310074E+03  0.17507310074E+03  0.00000000000E+00 0.  1.
         24    2    1    2    0    0  0.93236535696E-01  0.38545289931E+01 -0.90876579357E+02  0.12112370952E+03  0.79984587556E+02 0.  0.
         25    2    1    2    0    0 -0.84437899483E+02  0.11180921831E+02  0.16905831766E+02  0.15227844388E+03  0.12509254750E+03 0.  0.
        -24    2    1    2    0    0  0.84344662948E+02 -0.15035450824E+02  0.26814834802E+04  0.26842567806E+04  0.86837336926E+02 0.  0.
        -11    1    3    3    0    0 -0.13866160617E+02 -0.35385301511E+01 -0.10123018580E+03  0.10223669656E+03  0.00000000000E+00 0.  1.
         12    1    3    3    0    0  0.13959397152E+02  0.73930591442E+01  0.10353606444E+02  0.18887012966E+02  0.00000000000E+00 0. -1.
         11    1    5    5    0    0 -0.13824049856E+02 -0.17573198326E+02  0.35662449828E+03  0.35732471846E+03  0.00000000000E+00 0. -1.
        -12    1    5    5    0    0  0.98168712804E+02  0.25377475021E+01  0.23248589819E+04  0.23269320622E+04  0.00000000000E+00 0.  1.
          5    1    4    4  501    0 -0.97186713803E+02  0.33087279964E+02 -0.22551910433E+02  0.10519546806E+03  0.41800000000E+01 0. -1.
         -5    1    4    4    0  501  0.12748814320E+02 -0.21906358133E+02  0.39457742199E+02  0.47082975826E+02  0.41800000000E+01 0. -1.
</event>
<event>
11    1  0.9238666E-009  0.1349937E+03  0.7561462E-02  0.1113281E+00
         22   -1    0    0    0    0  0.00000000000E+00  0.00000000000E+00  0.81615335666E+03  0.81615335666E+03  0.00000000000E+00 0. -1.
         22   -1    0    0    0    0 -0.00000000000E+00 -0.00000000000E+00 -0.28637555881E+03  0.28637555881E+03  0.00000000000E+00 0. -1.
        -24    2    1    2    0    0  0.22579243353E+02  0.39547172101E+02 -0.25004887985E+03  0.27020091118E+03  0.91707628018E+02 0.  0.
         25    2    1    2    0    0 -0.65025111244E+02 -0.47521266669E+02  0.25520670296E+03  0.29540514674E+03  0.12508878290E+03 0.  0.
         24    2    1    2    0    0  0.42445867890E+02  0.79740945682E+01  0.52461997474E+03  0.53692285754E+03  0.10580547796E+03 0.  0.
        -13    1    5    5    0    0 -0.14302041027E+02 -0.32902470050E+01  0.73240682567E+01  0.16401709628E+02  0.00000000000E+00 0.  1.
         14    1    5    5    0    0  0.56747908918E+02  0.11264341573E+02  0.51729590649E+03  0.52052114791E+03  0.00000000000E+00 0. -1.
         13    1    3    3    0    0 -0.27343136634E+02  0.28706320579E+01 -0.15020956563E+03  0.15270494837E+03  0.00000000000E+00 0. -1.
        -14    1    3    3    0    0  0.49922379987E+02  0.36676540043E+02 -0.99839314221E+02  0.11749596281E+03  0.00000000000E+00 0.  1.
          5    1    4    4  501    0 -0.28730735706E+02 -0.12193084480E+02  0.24042375487E+03  0.24247717582E+03  0.41800000000E+01 0. -1.
         -5    1    4    4    0  501 -0.36294375537E+02 -0.35328182189E+02  0.14782948088E+02  0.52927970928E+02  0.41800000000E+01 0. -1.
</event>
<event>
11    1  0.9238666E-009  0.1426648E+03  0.7561462E-02  0.1104619E+00
         22   -1    0    0    0    0  0.00000000000E+00  0.00000000000E+00  0.85739272433E+03  0.85739272433E+03  0.00000000000E+00 0.  1.
         22   -1    0    0    0    0 -0.00000000000E+00 -0.00000000000E+00 -0.32102953722E+03  0.32102953722E+03  0.00000000000E+00 0. -1.
        -24    2    1    2    0    0  0.44142897950E+01 -0.71060042385E+02 -0.27040079575E+03  0.29101574093E+03  0.80650824864E+02 0.  0.
         25    2    1    2    0    0 -0.50994167120E+02  0.30991341550E+02  0.93795870345E+02  0.16735917088E+03  0.12510219203E+03 0.  0.
         24    2    1    2    0    0  0.46579877325E+02  0.40068700834E+02  0.71296811252E+03  0.72004734974E+03  0.79808963454E+02 0.  0.
        -13    1    5    5    0    0  0.13600500600E+02 -0.86358987307E+01  0.46191081998E+03  0.46219168964E+03  0.00000000000E+00 0.  1.
         14    1    5    5    0    0  0.32979376725E+02  0.48704599565E+02  0.25105729254E+03  0.25785566010E+03  0.00000000000E+00 0. -1.
         13    1    3    3    0    0  0.27436226080E+02 -0.78001555467E+02 -0.19302074738E+03  0.20998570921E+03  0.00000000000E+00 0. -1.
        -14    1    3    3    0    0 -0.23021936285E+02  0.69415130820E+01 -0.77380048371E+02  0.81030031717E+02  0.00000000000E+00 0.  1.
          5    1    4    4  501    0 -0.60284266829E+02  0.67357783903E+02  0.92745795739E+02  0.12957823470E+03  0.41800000000E+01 0.  1.
         -5    1    4    4    0  501  0.92900997092E+01 -0.36366442352E+02  0.10500746058E+01  0.37780936180E+02  0.41800000000E+01 0.  1.
</event>
<event>
11    1  0.9238666E-009  0.3140937E+03  0.7561462E-02  0.9943968E-01
         22   -1    0    0    0    0  0.00000000000E+00  0.00000000000E+00  0.17831238528E+03  0.17831238528E+03  0.00000000000E+00 0. -1.
         22   -1    0    0    0    0 -0.00000000000E+00 -0.00000000000E+00 -0.35651782613E+03  0.35651782613E+03  0.00000000000E+00 0.  1.
         24    2    1    2    0    0 -0.15491361684E+03 -0.53399065874E+01 -0.12931495131E+03  0.21695426843E+03  0.79498771527E+02 0.  0.
         25    2    1    2    0    0 -0.95809813675E+00 -0.15030232021E+02  0.17810752682E+02  0.12723859915E+03  0.12508242233E+03 0.  0.
        -24    2    1    2    0    0  0.15587171498E+03  0.20370138608E+02 -0.66701242225E+02  0.19063734383E+03  0.84750262943E+02 0.  0.
        -11    1    3    3    0    0 -0.13380326137E+03 -0.31335423014E+02 -0.11935011460E+03  0.18201557995E+03  0.00000000000E+00 0.  1.
         12    1    3    3    0    0 -0.21110355478E+02  0.25995516427E+02 -0.99648367041E+01  0.34938688488E+02  0.00000000000E+00 0. -1.
         13    1    5    5    0    0  0.81309877656E+02  0.26216644466E+02  0.68935251710E+01  0.85709563882E+02  0.00000000000E+00 0. -1.
        -14    1    5    5    0    0  0.74561837324E+02 -0.58465058581E+01 -0.73594767396E+02  0.10492777994E+03  0.00000000000E+00 0.  1.
          5    1    4    4  501    0 -0.31605560520E+02 -0.11823428672E+02  0.63464905790E+02  0.71999802696E+02  0.41800000000E+01 0. -1.
         -5    1    4    4    0  501  0.30647462383E+02 -0.32068033485E+01 -0.45654153108E+02  0.55238796459E+02  0.41800000000E+01 0. -1.
</event>
<event>
11    1  0.9238666E-009  0.1758449E+03  0.7561462E-02  0.1073054E+00
         22   -1    0    0    0    0  0.00000000000E+00  0.00000000000E+00  0.17689276967E+04  0.17689276967E+04  0.00000000000E+00 0. -1.
         22   -1    0    0    0    0 -0.00000000000E+00 -0.00000000000E+00 -0.10827919352E+03  0.10827919352E+03  0.00000000000E+00 0.  1.
         24    2    1    2    0    0  0.41780913262E+02 -0.11298707939E+03 -0.16532645674E+02  0.15080148327E+03  0.89196603983E+02 0.  0.
         25    2    1    2    0    0 -0.11126171465E+03  0.11051086367E+03  0.42750587820E+03  0.47222878501E+03  0.12508768669E+03 0.  0.
        -24    2    1    2    0    0  0.69480801389E+02  0.24762157191E+01  0.12496752706E+04  0.12541766219E+04  0.80230938864E+02 0.  0.
        -11    1    3    3    0    0  0.42114031431E+01 -0.10381386309E+03 -0.32643566950E+02  0.10890664144E+03  0.00000000000E+00 0.  1.
         12    1    3    3    0    0  0.37569510119E+02 -0.91732162972E+01  0.16110921276E+02  0.41894841833E+02  0.00000000000E+00 0. -1.
         13    1    5    5    0    0 -0.20653433070E+01  0.26579662485E+02  0.49977050429E+03  0.50048106964E+03  0.00000000000E+00 0. -1.
        -14    1    5    5    0    0  0.71546144696E+02 -0.24103446766E+02  0.74990476631E+03  0.75369555226E+03  0.00000000000E+00 0.  1.
          5    1    4    4  501    0 -0.58991943926E+02  0.10368514805E+03  0.38876418478E+03  0.40667643544E+03  0.41800000000E+01 0.  1.
         -5    1    4    4    0  501 -0.52269770726E+02  0.68257156188E+01  0.38741693419E+02  0.65552349572E+02  0.41800000000E+01 0.  1.
</event>
<event>
11    1  0.9238666E-009  0.2116070E+03  0.7561462E-02  0.1046606E+00
         22   -1    0    0    0    0  0.00000000000E+00  0.00000000000E+00  0.34306001663E+02  0.34306001663E+02  0.00000000000E+00 0. -1.
         22   -1    0    0    0    0 -0.00000000000E+00 -0.00000000000E+00 -0.18951804276E+04  0.18951804276E+04  0.00000000000E+00 0.  1.
         24    2    1    2    0    0 -0.13245586902E+03  0.12697766447E+03 -0.76525669208E+03  0.79089454693E+03  0.78920815219E+02 0.  0.
         25    2    1    2    0    0  0.15179720960E+03 -0.61317998810E+02 -0.78359369108E+03  0.81022791767E+03  0.12509163061E+03 0.  0.
        -24    2    1    2    0    0 -0.19341340587E+02 -0.65659665663E+02 -0.31202404281E+03  0.32836396470E+03  0.76017174836E+02 0.  0.
        -13    1    3    3    0    0 -0.86637229785E+02  0.12142838699E+03 -0.64647691626E+03  0.66346308564E+03  0.00000000000E+00 0.  1.
         14    1    3    3    0    0 -0.45818639232E+02  0.55492774801E+01 -0.11877977582E+03  0.12743146129E+03  0.00000000000E+00 0. -1.
         13    1    5    5    0    0 -0.75347753045E+01 -0.79331330858E+02 -0.20721560747E+03  0.22201022696E+03  0.00000000000E+00 0. -1.
        -14    1    5    5    0    0 -0.11806565283E+02  0.13671665195E+02 -0.10480843534E+03  0.10635373774E+03  0.00000000000E+00 0.  1.
          5    1    4    4  501    0  0.12322264747E+03 -0.57860230255E+02 -0.34856571057E+03  0.37422874566E+03  0.41800000000E+01 0.  1.
         -5    1    4    4    0  501  0.28574562136E+02 -0.34577685550E+01 -0.43502798051E+03  0.43599917201E+03  0.41800000000E+01 0.  1.
</event>
<event>
11    1  0.9238666E-009  0.1787918E+03  0.7561462E-02  0.1070624E+00
         22   -1    0    0    0    0  0.00000000000E+00  0.00000000000E+00  0.31562051053E+04  0.31562051053E+04  0.00000000000E+00 0. -1.
         22   -1    0    0    0    0 -0.00000000000E+00 -0.00000000000E+00 -0.18490820354E+03  0.18490820354E+03  0.00000000000E+00 0. -1.
        -24    2    1    2    0    0 -0.19640214625E+02 -0.12603274770E+03 -0.14589588494E+03  0.20967966011E+03  0.80062220181E+02 0.  0.
         25    2    1    2    0    0  0.75951107287E+02  0.12815563463E+03  0.17879708883E+04  0.17985215780E+04  0.12509009332E+03 0.  0.
         24    2    1    2    0    0 -0.56310892661E+02 -0.21228869255E+01  0.13292218983E+04  0.13329120707E+04  0.81537169788E+02 0.  0.
        -13    1    5    5    0    0 -0.45356495448E+02  0.33472284095E+02  0.57090956459E+03  0.57368574710E+03  0.00000000000E+00 0.  1.
         14    1    5    5    0    0 -0.10954397213E+02 -0.35595171020E+02  0.75831233373E+03  0.75922632364E+03  0.00000000000E+00 0. -1.
         13    1    3    3    0    0  0.12836130015E+02 -0.11583558947E+03 -0.11169537478E+03  0.16142647481E+03  0.00000000000E+00 0. -1.
        -14    1    3    3    0    0 -0.32476344641E+02 -0.10197158232E+02 -0.34200510156E+02  0.48253185306E+02  0.00000000000E+00 0.  1.
          5    1    4    4  501    0  0.64922476775E+02  0.15168069355E+03  0.16344234171E+04  0.16427353225E+04  0.41800000000E+01 0. -1.
         -5    1    4    4    0  501  0.11028630511E+02 -0.23525058922E+02  0.15354747122E+03  0.15578625551E+03  0.41800000000E+01 0. -1.
</event>
<event>
11    1  0.9469306E-009  0.1588305E+03  0.7561462E-02  0.1088182E+00
         22   -1    0    0    0    0  0.00000000000E+00  0.00000000000E+00  0.89877488568E+03  0.89877488568E+03  0.00000000000E+00 0. -1.
         22   -1    0    0    0    0 -0.00000000000E+00 -0.00000000000E+00 -0.11470019008E+04  0.11470019008E+04  0.00000000000E+00 0.  1.
        -24    2    1    2    0    0 -0.43295174143E+02  0.53445717224E+02 -0.10143143232E+04  0.10197473997E+04  0.79500290778E+02 0.  0.
         25    2    1    2    0    0 -0.43691095598E+02 -0.36810034725E+01 -0.90147863654E+02  0.16030024979E+03  0.12508825341E+03 0.  0.
         24    2    1    2    0    0  0.86986269741E+02 -0.49764713752E+02  0.85623517167E+03  0.86572913701E+03  0.79404858863E+02 0.  0.
        -13    1    5    5    0    0  0.39858809762E+01 -0.36824761388E+02  0.14954395934E+03  0.15406279912E+03  0.00000000000E+00 0.  1.
         14    1    5    5    0    0  0.83000388765E+02 -0.12939952363E+02  0.70669121233E+03  0.71166633789E+03  0.00000000000E+00 0. -1.
         13    1    3    3    0    0 -0.14562850142E+02  0.11669450299E+02 -0.40264836298E+02  0.44379158584E+02  0.00000000000E+00 0. -1.
        -14    1    3    3    0    0 -0.28732324001E+02  0.41776266925E+02 -0.97404948688E+03  0.97536824114E+03  0.00000000000E+00 0.  1.
          5    1    4    4  501    0 -0.76876681768E+02  0.26840210436E+02 -0.34436680382E+02  0.88508634899E+02  0.41800000000E+01 0. -1.
         -5    1    4    4    0  501  0.33185586170E+02 -0.30521213908E+02 -0.55711183272E+02  0.71791614896E+02  0.41800000000E+01 0. -1.
</event>
<event>
11    1  0.9238666E-009  0.2248125E+03  0.7561462E-02  0.1038244E+00
         22   -1    0    0    0    0  0.00000000000E+00  0.00000000000E+00  0.26858886234E+03  0.26858886234E+03  0.00000000000E+00 0. -1.
         22   -1    0    0    0    0 -0.00000000000E+00 -0.00000000000E+00 -0.12088486398E+04  0.12088486398E+04  0.00000000000E+00 0. -1.
         24    2    1    2    0    0 -0.17089773560E+03  0.59925737479E+02 -0.85002538642E+03  0.87206565408E+03  0.71820731150E+02 0.  0.
         25    2    1    2    0    0  0.19517456762E+03 -0.76760852609E+02 -0.29364885457E+03  0.38191971493E+03  0.12509068120E+03 0.  0.
        -24    2    1    2    0    0 -0.24276832020E+02  0.16835115131E+02  0.20341446358E+03  0.22345213308E+03  0.87639181344E+02 0.  0.
        -11    1    3    3    0    0 -0.47426659673E+02  0.45805746439E+01 -0.11160114372E+03  0.12134696120E+03  0.00000000000E+00 0.  1.
         12    1    3    3    0    0 -0.12347107593E+03  0.55345162835E+02 -0.73842424270E+03  0.75071869289E+03  0.00000000000E+00 0. -1.
         13    1    5    5    0    0  0.19373728156E+02  0.38977028461E+02  0.93879231941E+02  0.10347879145E+03  0.00000000000E+00 0. -1.
        -14    1    5    5    0    0 -0.43650560176E+02 -0.22141913331E+02  0.10953523164E+03  0.11997334163E+03  0.00000000000E+00 0.  1.
          5    1    4    4  501    0 -0.14611854237E+02  0.80617914571E+01 -0.28738966139E+02  0.33494765867E+02  0.41800000000E+01 0.  1.
         -5    1    4    4    0  501  0.20978642186E+03 -0.84822644066E+02 -0.26490988843E+03  0.34842494907E+03  0.41800000000E+01 0.  1.
</event>
<event>
11    1  0.9238666E-009  0.1607861E+03  0.7561462E-02  0.1086340E+00
         22   -1    0    0    0    0  0.00000000000E+00  0.00000000000E+00  0.25854617238E+03  0.25854617238E+03  0.00000000000E+00 0. -1.
         22   -1    0    0    0    0 -0.00000000000E+00 -0.00000000000E+00 -0.48493568883E+03  0.48493568883E+03  0.00000000000E+00 0. -1.
        -24    2    1    2    0    0  0.74057674004E+02  0.12145392654E+01 -0.38787193565E+03  0.40287217577E+03  0.79845709700E+02 0.  0.
         25    2    1    2    0    0 -0.10052782145E+03  0.82727070680E+02  0.10212597396E+03  0.20741337097E+03  0.12506390683E+03 0.  0.
         24    2    1    2    0    0  0.26470147445E+02 -0.83941609945E+02  0.59356445239E+02  0.13319631448E+03  0.80443818983E+02 0.  0.
        -11    1    5    5    0    0 -0.14984773068E+02 -0.29212153876E+02 -0.11256785692E+02  0.34707471560E+02  0.00000000000E+00 0.  1.
         12    1    5    5    0    0  0.41454920513E+02 -0.54729456069E+02  0.70613230931E+02  0.98488842915E+02  0.00000000000E+00 0. -1.
         11    1    3    3    0    0  0.29440106475E+02 -0.34827752951E+02 -0.23943480384E+03  0.24373903572E+03  0.00000000000E+00 0. -1.
        -12    1    3    3    0    0  0.44617567528E+02  0.36042292217E+02 -0.14843713181E+03  0.15913314004E+03  0.00000000000E+00 0.  1.
          5    1    4    4  501    0 -0.17697261485E+02  0.41891934123E+02 -0.23563122912E+02  0.51388912909E+02  0.41800000000E+01 0. -1.
         -5    1    4    4    0  501 -0.82830559963E+02  0.40835136557E+02  0.12568909687E+03  0.15602445806E+03  0.41800000000E+01 0. -1.
</event>
<event>
11    1  0.9238666E-009  0.1318270E+03  0.7561462E-02  0.1117044E+00
         22   -1    0    0    0    0  0.00000000000E+00  0.00000000000E+00  0.59719325380E+03  0.59719325380E+03  0.00000000000E+00 0. -1.
         22   -1    0    0    0    0 -0.00000000000E+00 -0.00000000000E+00 -0.18379426294E+04  0.18379426294E+04  0.00000000000E+00 0. -1.
        -24    2    1    2    0    0  0.24031557089E+02  0.33429917159E+02 -0.17224004576E+04  0.17248124644E+04  0.81361082374E+02 0.  0.
         25    2    1    2    0    0 -0.27984557138E+01 -0.68368797852E+02 -0.64811995433E+02  0.15662447969E+03  0.12509400071E+03 0.  0.
         24    2    1    2    0    0 -0.21233101375E+02  0.34938880693E+02  0.54646307747E+03  0.55369893913E+03  0.79303531902E+02 0.  0.
        -11    1    5    5    0    0  0.96044549985E+01 -0.54169825291E+01  0.10152249430E+02  0.14988576451E+02  0.00000000000E+00 0.  1.
         12    1    5    5    0    0 -0.30837556374E+02  0.40355863223E+02  0.53631082804E+03  0.53871036267E+03  0.00000000000E+00 0. -1.
         11    1    3    3    0    0  0.30444538693E+02  0.44318836534E+02 -0.16715754363E+04  0.16724399745E+04  0.00000000000E+00 0. -1.
        -12    1    3    3    0    0 -0.64129816042E+01 -0.10888919375E+02 -0.50825021368E+02  0.52372489871E+02  0.00000000000E+00 0.  1.
          5    1    4    4  501    0  0.10538430207E+01  0.64684984245E+01  0.32678677462E+02  0.33590481057E+02  0.41800000000E+01 0.  1.
         -5    1    4    4    0  501 -0.38522987344E+01 -0.74837296277E+02 -0.97490672894E+02  0.12303399864E+03  0.41800000000E+01 0.  1.
</event>
<event>
11    1  0.9238666E-009  0.1601672E+03  0.7561462E-02  0.1086920E+00
         22   -1    0    0    0    0  0.00000000000E+00  0.00000000000E+00  0.14218438311E+03  0.14218438311E+03  0.00000000000E+00 0. -1.
         22   -1    0    0    0    0 -0.00000000000E+00 -0.00000000000E+00 -0.10102998965E+04  0.10102998965E+04  0.00000000000E+00 0.  1.
         24    2    1    2    0    0 -0.12955622519E+02 -0.36147580268E+02 -0.83188481990E+03  0.83723324666E+03  0.86328790224E+02 0.  0.
         25    2    1    2    0    0 -0.96491689455E+01 -0.71609127388E+02 -0.88759833275E+02  0.16954960935E+03  0.12509112055E+03 0.  0.
        -24    2    1    2    0    0  0.22604791465E+02  0.10775670766E+03  0.52529139815E+02  0.14570142357E+03  0.79668749579E+02 0.  0.
        -11    1    3    3    0    0 -0.43941970896E+02 -0.19124361276E+02 -0.66069637879E+03  0.66243214215E+03  0.00000000000E+00 0.  1.
         12    1    3    3    0    0  0.30986348377E+02 -0.17023218992E+02 -0.17118844111E+03  0.17480110452E+03  0.00000000000E+00 0. -1.
         13    1    5    5    0    0 -0.18814923524E+02  0.60752488918E+02  0.53401386977E+02  0.83045616308E+02  0.00000000000E+00 0. -1.
        -14    1    5    5    0    0  0.41419714989E+02  0.47004218738E+02 -0.87224716196E+00  0.62655807265E+02  0.00000000000E+00 0.  1.
          5    1    4    4  501    0 -0.11899498077E+02  0.26028402510E+02  0.99896319080E+01  0.30599688517E+02  0.41800000000E+01 0.  1.
         -5    1    4    4    0  501  0.22503291312E+01 -0.97637529897E+02 -0.98749465183E+02  0.13894992083E+03  0.41800000000E+01 0.  1.
</event>
<event>
11    1  0.9238666E-009  0.1617050E+03  0.7561462E-02  0.1085485E+00
         22   -1    0    0    0    0  0.00000000000E+00  0.00000000000E+00  0.80210315450E+03  0.80210315450E+03  0.00000000000E+00 0. -1.
         22   -1    0    0    0    0 -0.00000000000E+00 -0.00000000000E+00 -0.17505151881E+03  0.17505151881E+03  0.00000000000E+00 0.  1.
        -24    2    1    2    0    0 -0.91125708062E+02  0.57871962947E+02 -0.83927048520E+02  0.15843573095E+03  0.80031697498E+02 0.  0.
         25    2    1    2    0    0  0.83864894327E+02 -0.26401926025E+02  0.65482809949E+02  0.16631302465E+03  0.12506654857E+03 0.  0.
         24    2    1    2    0    0  0.72608137348E+01 -0.31470036922E+02  0.64549587427E+03  0.65240591771E+03  0.89025137574E+02 0.  0.
        -13    1    5    5    0    0  0.39990293419E+02  0.29321769463E+01  0.17574758362E+03  0.18026379108E+03  0.00000000000E+00 0.  1.
         14    1    5    5    0    0 -0.32729479684E+02 -0.34402213869E+02  0.46974829065E+03  0.47214212662E+03  0.00000000000E+00 0. -1.
         13    1    3    3    0    0 -0.14364034826E+01 -0.16960738587E+02 -0.15730925572E+02  0.23177401229E+02  0.00000000000E+00 0. -1.
        -14    1    3    3    0    0 -0.89689304579E+02  0.74832701534E+02 -0.68196122948E+02  0.13525832972E+03  0.00000000000E+00 0.  1.
          5    1    4    4  501    0  0.28460353245E+02  0.32470415791E+02 -0.20707064902E+02  0.48068436061E+02  0.41800000000E+01 0.  1.
         -5    1    4    4    0  501  0.55404541082E+02 -0.58872341816E+02  0.86189874851E+02  0.11824458859E+03  0.41800000000E+01 0.  1.
</event>
<event>
11    1  0.9238666E-009  0.1449101E+03  0.7561462E-02  0.1102196E+00
         22   -1    0    0    0    0  0.00000000000E+00  0.00000000000E+00  0.20969634316E+04  0.20969634316E+04  0.00000000000E+00 0. -1.
         22   -1    0    0    0    0 -0.00000000000E+00 -0.00000000000E+00 -0.10663861719E+03  0.10663861719E+03  0.00000000000E+00 0.  1.
        -24    2    1    2    0    0  0.31661604670E+02  0.34406349531E+02 -0.61397121789E+02  0.10972256348E+03  0.77994745172E+02 0.  0.
         25    2    1    2    0    0  0.30820190818E+02  0.99224656894E+01  0.19475789715E+03  0.23372383014E+03  0.12509136975E+03 0.  0.
         24    2    1    2    0    0 -0.62481795488E+02 -0.44328815221E+02  0.18569640390E+04  0.18601556552E+04  0.77424805509E+02 0.  0.
        -13    1    5    5    0    0 -0.16083387813E+02 -0.16498704414E+02  0.11162327922E+03  0.11397648474E+03  0.00000000000E+00 0.  1.
         14    1    5    5    0    0 -0.46398407674E+02 -0.27830110807E+02  0.17453407598E+04  0.17461791704E+04  0.00000000000E+00 0. -1.
         11    1    3    3    0    0  0.23668149695E+02 -0.22744687741E+02 -0.17369082302E+02  0.37137409043E+02  0.00000000000E+00 0. -1.
        -12    1    3    3    0    0  0.79934549749E+01  0.57151037272E+02 -0.44028039487E+02  0.72585154438E+02  0.00000000000E+00 0.  1.
          5    1    4    4  501    0  0.75837373757E+02  0.20240231415E+02  0.14961563130E+03  0.16900675653E+03  0.41800000000E+01 0.  1.
         -5    1    4    4    0  501 -0.45017182940E+02 -0.10317765726E+02  0.45142265850E+02  0.64717073601E+02  0.41800000000E+01 0.  1.
</event>
<event>
11    1  0.9238666E-009  0.1309903E+03  0.7561462E-02  0.1118058E+00
         22   -1    0    0    0    0  0.00000000000E+00  0.00000000000E+00  0.11729780369E+03  0.11729780369E+03  0.00000000000E+00 0.  1.
         22   -1    0    0    0    0 -0.00000000000E+00 -0.00000000000E+00 -0.55056789022E+03  0.55056789022E+03  0.00000000000E+00 0. -1.
        -24    2    1    2    0    0 -0.14908034687E+02 -0.12239166404E+02 -0.40595201592E+03  0.41419569057E+03  0.79931121368E+02 0.  0.
         25    2    1    2    0    0  0.36972976383E+02  0.39749223246E+02 -0.72818029008E+02  0.15458605192E+03  0.12508948944E+03 0.  0.
         24    2    1    2    0    0 -0.22064941695E+02 -0.27510056843E+02  0.45499958396E+02  0.99083951420E+02  0.80645634324E+02 0.  0.
        -13    1    5    5    0    0 -0.58826094853E+01  0.22282817941E+02  0.40359182890E+02  0.46475721762E+02  0.00000000000E+00 0.  1.
         14    1    5    5    0    0 -0.16182332210E+02 -0.49792874784E+02  0.51407755061E+01  0.52608229658E+02  0.00000000000E+00 0. -1.
         11    1    3    3    0    0 -0.30830774506E+02 -0.15392990641E+02 -0.38971852276E+03  0.39123906732E+03  0.00000000000E+00 0. -1.
        -12    1    3    3    0    0  0.15922739818E+02  0.31538242373E+01 -0.16233493160E+02  0.22956623245E+02  0.00000000000E+00 0.  1.
          5    1    4    4  501    0  0.16707908078E+02 -0.45111686600E+02 -0.18401339808E+02  0.51674947189E+02  0.41800000000E+01 0. -1.
         -5    1    4    4    0  501  0.20265068305E+02  0.84860909847E+02 -0.54416689200E+02  0.10291110473E+03  0.41800000000E+01 0. -1.
</event>
<event>
11    1  0.9238666E-009  0.1892413E+03  0.7561462E-02  0.1062404E+00
         22   -1    0    0    0    0  0.00000000000E+00  0.00000000000E+00  0.84966073406E+03  0.84966073406E+03  0.00000000000E+00 0. -1.
         22   -1    0    0    0    0 -0.00000000000E+00 -0.00000000000E+00 -0.22343770247E+03  0.22343770247E+03  0.00000000000E+00 0.  1.
         24    2    1    2    0    0 -0.98219059944E+01 -0.72326196331E+02 -0.16500349876E+03  0.19785889827E+03  0.81206160516E+02 0.  0.
         25    2    1    2    0    0 -0.13347973988E+03 -0.75998687562E+01  0.49031724306E+03  0.52338614362E+03  0.12508979788E+03 0.  0.
        -24    2    1    2    0    0  0.14330164588E+03  0.79926065087E+02  0.30090928730E+03  0.35185339465E+03  0.79566793036E+02 0.  0.
        -13    1    3    3    0    0 -0.43480330833E+02 -0.41172022767E+02 -0.11720480679E+03  0.13161550579E+03  0.00000000000E+00 0.  1.
         14    1    3    3    0    0  0.33658424839E+02 -0.31154173564E+02 -0.47798691971E+02  0.66243392480E+02  0.00000000000E+00 0. -1.
         11    1    5    5    0    0  0.10489890500E+03  0.17731374914E+02  0.14689293221E+03  0.18137176037E+03  0.00000000000E+00 0. -1.
        -12    1    5    5    0    0  0.38402740876E+02  0.62194690173E+02  0.15401635509E+03  0.17048163428E+03  0.00000000000E+00 0.  1.
          5    1    4    4  501    0 -0.23103725122E+02 -0.35614270348E+01  0.32898738484E+01  0.23974185012E+02  0.41800000000E+01 0. -1.
         -5    1    4    4    0  501 -0.11037601476E+03 -0.40384417214E+01  0.48702736921E+03  0.49941195861E+03  0.41800000000E+01 0. -1.
</event>
<event>
11    1  0.9238666E-009  0.1300796E+03  0.7561462E-02  0.1119171E+00
         22   -1    0    0    0    0  0.00000000000E+00  0.00000000000E+00  0.37943582203E+04  0.37943582203E+04  0.00000000000E+00 0. -1.
         22   -1    0    0    0    0 -0.00000000000E+00 -0.00000000000E+00 -0.25532187418E+02  0.25532187418E+02  0.00000000000E+00 0. -1.
         24    2    1    2    0    0  0.31830048736E+02 -0.14226955029E+02  0.65563452558E+02  0.10856180238E+03  0.79193057611E+02 0.  0.
         25    2    1    2    0    0 -0.48366341840E+02  0.10422142646E+02  0.13725649002E+04  0.13791411247E+04  0.12509161647E+03 0.  0.
        -24    2    1    2    0    0  0.16536293105E+02  0.38048123828E+01  0.23306976801E+04  0.23321874806E+04  0.81601734484E+02 0.  0.
        -13    1    3    3    0    0  0.12111409984E+02  0.17253624508E+01  0.78943343162E+02  0.79885634234E+02  0.00000000000E+00 0.  1.
         14    1    3    3    0    0  0.19718638752E+02 -0.15952317480E+02 -0.13379890605E+02  0.28676168151E+02  0.00000000000E+00 0. -1.
         11    1    5    5    0    0  0.24247687994E+02  0.41558058941E+01  0.23094496298E+04  0.23095806575E+04  0.00000000000E+00 0. -1.
        -12    1    5    5    0    0 -0.77113948890E+01 -0.35099351125E+00  0.21248050334E+02  0.22606823098E+02  0.00000000000E+00 0.  1.
          5    1    4    4  501    0 -0.31615471276E+02 -0.56002046320E+02  0.76587447588E+03  0.76858112937E+03  0.41800000000E+01 0.  1.
         -5    1    4    4    0  501 -0.16750870564E+02  0.66424188967E+02  0.60669042436E+03  0.61055999537E+03  0.41800000000E+01 0.  1.
</event>
<event>
11    1  0.9238666E-009  0.1749497E+03  0.7561462E-02  0.1073803E+00
         22   -1    0    0    0    0  0.00000000000E+00  0.00000000000E+00  0.12521430643E+04  0.12521430643E+04  0.00000000000E+00 0. -1.
         22   -1    0    0    0    0 -0.00000000000E+00 -0.00000000000E+00 -0.14177874829E+03  0.14177874829E+03  0.00000000000E+00 0. -1.
        -24    2    1    2    0    0  0.11878729831E+01  0.48534223384E+02 -0.89966384332E+02  0.13446800767E+03  0.87353951801E+02 0.  0.
         25    2    1    2    0    0 -0.11967248870E+03 -0.93245857903E+01  0.29507137224E+03  0.34223319323E+03  0.12509193172E+03 0.  0.
         24    2    1    2    0    0  0.11848461572E+03 -0.39209637594E+02  0.90525932813E+03  0.91722061171E+03  0.78887258410E+02 0.  0.
        -13    1    5    5    0    0  0.32604756911E+02  0.16241533788E+02  0.12210113671E+03  0.12741877876E+03  0.00000000000E+00 0.  1.
         14    1    5    5    0    0  0.85879858810E+02 -0.55451171382E+02  0.78315819142E+03  0.78980183296E+03  0.00000000000E+00 0. -1.
         13    1    3    3    0    0  0.22479664807E+02  0.22006169230E+02 -0.95007969887E+02  0.10008057332E+03  0.00000000000E+00 0. -1.
        -14    1    3    3    0    0 -0.21291791824E+02  0.26528054154E+02  0.50415855546E+01  0.34387434350E+02  0.00000000000E+00 0.  1.
          5    1    4    4  501    0 -0.10118981015E+03  0.15386201811E+02  0.29371226306E+03  0.31106346419E+03  0.41800000000E+01 0. -1.
         -5    1    4    4    0  501 -0.18482678555E+02 -0.24710787602E+02  0.13591091779E+01  0.31169729036E+02  0.41800000000E+01 0. -1.
</event>
<event>
11    1  0.9238666E-009  0.1262834E+03  0.7561462E-02  0.1123922E+00
         22   -1    0    0    0    0  0.00000000000E+00  0.00000000000E+00  0.25033772517E+03  0.25033772517E+03  0.00000000000E+00 0. -1.
         22   -1    0    0    0    0 -0.00000000000E+00 -0.00000000000E+00 -0.62130768724E+03  0.62130768724E+03  0.00000000000E+00 0. -1.
         24    2    1    2    0    0  0.80919947117E+01 -0.16374647570E+02 -0.51316112043E+03  0.51986262342E+03  0.81173901283E+02 0.  0.
         25    2    1    2    0    0  0.23045723215E+01  0.72071919659E+01 -0.56122173667E+02  0.13731510989E+03  0.12509391015E+03 0.  0.
        -24    2    1    2    0    0 -0.10396567033E+02  0.91674556040E+01  0.19831333203E+03  0.21446767910E+03  0.80474075752E+02 0.  0.
        -13    1    3    3    0    0 -0.12101499156E+02  0.20743380350E+02 -0.58434576582E+02  0.63177004127E+02  0.00000000000E+00 0.  1.
         14    1    3    3    0    0  0.20193493868E+02 -0.37118027920E+02 -0.45472654385E+03  0.45668561929E+03  0.00000000000E+00 0. -1.
         11    1    5    5    0    0 -0.42529107025E+02  0.17534178192E+02  0.13999503560E+03  0.14735936462E+03  0.00000000000E+00 0. -1.
        -12    1    5    5    0    0  0.32132539991E+02 -0.83667225883E+01  0.58318296432E+02  0.67108314476E+02  0.00000000000E+00 0.  1.
          5    1    4    4  501    0  0.32726256656E+02  0.28248742250E+01 -0.87279638564E+02  0.93349855366E+02  0.41800000000E+01 0.  1.
         -5    1    4    4    0  501 -0.30421684334E+02  0.43823177408E+01  0.31157464897E+02  0.43965254523E+02  0.41800000000E+01 0.  1.
</event>
<event>
11    1  0.9238666E-009  0.1990618E+03  0.7561462E-02  0.1055189E+00
         22   -1    0    0    0    0  0.00000000000E+00  0.00000000000E+00  0.26190164095E+03  0.26190164095E+03  0.00000000000E+00 0. -1.
         22   -1    0    0    0    0 -0.00000000000E+00 -0.00000000000E+00 -0.55865598208E+03  0.55865598208E+03  0.00000000000E+00 0.  1.
        -24    2    1    2    0    0 -0.17528698238E+03  0.64439460732E+02 -0.17548574452E+03  0.26853548556E+03  0.80237710475E+02 0.  0.
         25    2    1    2    0    0  0.13985400729E+03 -0.45838689038E+00 -0.29536131367E+03  0.34992555364E+03  0.12510089528E+03 0.  0.
         24    2    1    2    0    0  0.35432975092E+02 -0.63981073842E+02  0.17409271706E+03  0.20209658383E+03  0.72011676332E+02 0.  0.
        -13    1    5    5    0    0  0.96128926125E+00  0.12875899440E+02  0.53251911829E+02  0.54794880937E+02  0.00000000000E+00 0.  1.
         14    1    5    5    0    0  0.34471685831E+02 -0.76856973282E+02  0.12084080523E+03  0.14730170289E+03  0.00000000000E+00 0. -1.
         11    1    3    3    0    0 -0.63795068878E+02  0.26768623522E+02 -0.11979996411E+03  0.13834161130E+03  0.00000000000E+00 0. -1.
        -12    1    3    3    0    0 -0.11149191350E+03  0.37670837210E+02 -0.55685780412E+02  0.13019387425E+03  0.00000000000E+00 0.  1.
          5    1    4    4  501    0  0.70004600584E+02 -0.44451902943E+02 -0.23006866349E+03  0.24459288236E+03  0.41800000000E+01 0.  1.
         -5    1    4    4    0  501  0.69849406704E+02  0.43993516052E+02 -0.65292650180E+02  0.10533267128E+03  0.41800000000E+01 0.  1.
</event>
<event>
11    1  0.9238666E-009  0.1299554E+03  0.7561462E-02  0.1119324E+00
         22   -1    0    0    0    0  0.00000000000E+00  0.00000000000E+00  0.44809256860E+03  0.44809256860E+03  0.00000000000E+00 0. -1.
         22   -1    0    0    0    0 -0.00000000000E+00 -0.00000000000E+00 -0.40949592797E+03  0.40949592797E+03  0.00000000000E+00 0.  1.
        -24    2    1    2    0    0  0.36990812369E+02  0.22756993384E+02 -0.37557254525E+03  0.38675477853E+03  0.81475892264E+02 0.  0.
         25    2    1    2    0    0 -0.75559689813E+01  0.17097593808E+02  0.20598483485E+03  0.24172227789E+03  0.12510190670E+03 0.  0.
         24    2    1    2    0    0 -0.29434843388E+02 -0.39854587192E+02  0.20818435102E+03  0.22911144015E+03  0.81832327792E+02 0.  0.
        -13    1    5    5    0    0 -0.23123720579E+02  0.59138006808E+00  0.17470260212E+03  0.17622728328E+03  0.00000000000E+00 0.  1.
         14    1    5    5    0    0 -0.63111228089E+01 -0.40445967260E+02  0.33481748902E+02  0.52884156874E+02  0.00000000000E+00 0. -1.
         13    1    3    3    0    0 -0.22759259160E+02  0.17130203598E+02 -0.74524197227E+02  0.79782728238E+02  0.00000000000E+00 0. -1.
        -14    1    3    3    0    0  0.59750071529E+02  0.56267897863E+01 -0.30104834802E+03  0.30697205029E+03  0.00000000000E+00 0.  1.
          5    1    4    4  501    0 -0.65974787145E+01 -0.53299556943E+02  0.67941268028E+02  0.86705581117E+02  0.41800000000E+01 0. -1.
         -5    1    4    4    0  501 -0.95849026682E+00  0.70397150750E+02  0.13804356683E+03  0.15501669678E+03  0.41800000000E+01 0. -1.
</event>
<event>
11    1  0.9238666E-009  0.1302157E+03  0.7561462E-02  0.1119004E+00
         22   -1    0    0    0    0  0.00000000000E+00  0.00000000000E+00  0.10950692922E+04  0.10950692922E+04  0.00000000000E+00 0.  1.
         22   -1    0    0    0    0 -0.00000000000E+00 -0.00000000000E+00 -0.21369824105E+03  0.21369824105E+03  0.00000000000E+00 0. -1.
        -24    2    1    2    0    0 -0.13529530696E+02 -0.34099590653E+02 -0.18516168206E+03  0.20532210079E+03  0.80786671449E+02 0.  0.
         25    2    1    2    0    0  0.22660694394E+02  0.16419237496E+02  0.23018505335E+03  0.26346831594E+03  0.12508915334E+03 0.  0.
         24    2    1    2    0    0 -0.91311636971E+01  0.17680353157E+02  0.83634767981E+03  0.83997711648E+03  0.75419769576E+02 0.  0.
        -11    1    5    5    0    0 -0.12976916142E+02 -0.28502475157E+02  0.37643800609E+03  0.37773848609E+03  0.00000000000E+00 0.  1.
         12    1    5    5    0    0  0.38457524450E+01  0.46182828314E+02  0.45990967372E+03  0.46223863039E+03  0.00000000000E+00 0. -1.
         13    1    3    3    0    0 -0.39527545458E+02 -0.43301145586E+02 -0.14681081396E+03  0.15808488591E+03  0.00000000000E+00 0. -1.
        -14    1    3    3    0    0  0.25998014762E+02  0.92015549323E+01 -0.38350868104E+02  0.47237214874E+02  0.00000000000E+00 0.  1.
          5    1    4    4  501    0  0.33759690845E+02 -0.28973284896E+02  0.20579649773E+03  0.21059164001E+03  0.41800000000E+01 0.  1.
         -5    1    4    4    0  501 -0.11098996452E+02  0.45392522392E+02  0.24388555621E+02  0.52876675923E+02  0.41800000000E+01 0.  1.
</event>
<event>
11    1  0.9238666E-009  0.1731517E+03  0.7561462E-02  0.1075321E+00
         22   -1    0    0    0    0  0.00000000000E+00  0.00000000000E+00  0.52486364044E+03  0.52486364044E+03  0.00000000000E+00 0.  1.
         22   -1    0    0    0    0 -0.00000000000E+00 -0.00000000000E+00 -0.13044140367E+03  0.13044140367E+03  0.00000000000E+00 0. -1.
        -24    2    1    2    0    0  0.16081093557E+02  0.74523900593E+02 -0.20066102024E+02  0.11294497265E+03  0.80879571376E+02 0.  0.
         25    2    1    2    0    0  0.10070518298E+03 -0.95307926959E+02  0.14231362787E+03  0.23478851038E+03  0.12508933250E+03 0.  0.
         24    2    1    2    0    0 -0.11678627654E+03  0.20784026366E+02  0.27217471092E+03  0.30757156110E+03  0.80313023774E+02 0.  0.
        -11    1    5    5    0    0 -0.92250599766E+02  0.37089801837E+02  0.25446114582E+03  0.27319645183E+03  0.00000000000E+00 0.  1.
         12    1    5    5    0    0 -0.24535676776E+02 -0.16305775472E+02  0.17713565099E+02  0.34375109267E+02  0.00000000000E+00 0. -1.
         11    1    3    3    0    0  0.34622095488E+02  0.70091846309E+02 -0.37865282399E+02  0.86863893685E+02  0.00000000000E+00 0. -1.
        -12    1    3    3    0    0 -0.18541001931E+02  0.44320542848E+01  0.17799180375E+02  0.26081078962E+02  0.00000000000E+00 0.  1.
          5    1    4    4  501    0  0.96048244742E+02 -0.11668140875E+03  0.85323074768E+02  0.17360102521E+03  0.41800000000E+01 0.  1.
         -5    1    4    4    0  501  0.46569382428E+01  0.21373481793E+02  0.56990553104E+02  0.61187485165E+02  0.41800000000E+01 0.  1.
</event>
<event>
11    1  0.9238666E-009  0.1274239E+03  0.7561462E-02  0.1122475E+00
         22   -1    0    0    0    0  0.00000000000E+00  0.00000000000E+00  0.78610884671E+03  0.78610884671E+03  0.00000000000E+00 0. -1.
         22   -1    0    0    0    0 -0.00000000000E+00 -0.00000000000E+00 -0.19899025361E+03  0.19899025361E+03  0.00000000000E+00 0. -1.
         24    2    1    2    0    0 -0.12887523012E+02 -0.46634312336E+01 -0.17423557608E+03  0.19338551940E+03  0.82777335679E+02 0.  0.
         25    2    1    2    0    0  0.18989688451E+02 -0.18803177181E+02  0.40259676147E+03  0.42242872173E+03  0.12509078646E+03 0.  0.
        -24    2    1    2    0    0 -0.61021654390E+01  0.23466608415E+02  0.35875740772E+03  0.36928485919E+03  0.84122003662E+02 0.  0.
        -13    1    3    3    0    0  0.26938241046E+01  0.36126337104E+02 -0.50334395554E+02  0.62015484330E+02  0.00000000000E+00 0.  1.
         14    1    3    3    0    0 -0.15581347117E+02 -0.40789768338E+02 -0.12390118053E+03  0.13137003507E+03  0.00000000000E+00 0. -1.
         11    1    5    5    0    0 -0.10164178028E+02  0.29119104355E+02  0.36073316356E+03  0.36204923429E+03  0.00000000000E+00 0. -1.
        -12    1    5    5    0    0  0.40620125890E+01 -0.56524959401E+01 -0.19757558418E+01  0.72356249054E+01  0.00000000000E+00 0.  1.
          5    1    4    4  501    0  0.66963766571E+02 -0.24763287388E+02  0.16349437652E+03  0.17845237457E+03  0.41800000000E+01 0.  1.
         -5    1    4    4    0  501 -0.47974078120E+02  0.59601102066E+01  0.23910238495E+03  0.24397634716E+03  0.41800000000E+01 0.  1.
</event>
<event>
11    1  0.9238666E-009  0.1368929E+03  0.7561462E-02  0.1111078E+00
         22   -1    0    0    0    0  0.00000000000E+00  0.00000000000E+00  0.35411967763E+03  0.35411967763E+03  0.00000000000E+00 0.  1.
         22   -1    0    0    0    0 -0.00000000000E+00 -0.00000000000E+00 -0.15610334530E+04  0.15610334530E+04  0.00000000000E+00 0. -1.
         24    2    1    2    0    0  0.22155527971E+02 -0.39839749838E+02 -0.14222068760E+04  0.14252714721E+04  0.81537095387E+02 0.  0.
         25    2    1    2    0    0  0.29073678744E+02  0.13058325274E+02 -0.97069472580E+02  0.16151144138E+03  0.12509062529E+03 0.  0.
        -24    2    1    2    0    0 -0.51229206716E+02  0.26781424564E+02  0.31236257328E+03  0.32837021709E+03  0.83156154077E+02 0.  0.
        -11    1    3    3    0    0  0.34140126598E+02 -0.41907606313E+02 -0.48784638248E+03  0.49083183333E+03  0.00000000000E+00 0.  1.
         12    1    3    3    0    0 -0.11984598627E+02  0.20678564753E+01 -0.93436049356E+03  0.93443963880E+03  0.00000000000E+00 0. -1.
         11    1    5    5    0    0 -0.38126569540E+02 -0.65507044047E+01  0.48264529201E+02  0.61854763859E+02  0.00000000000E+00 0. -1.
        -12    1    5    5    0    0 -0.13102637176E+02  0.33332128969E+02  0.26409804408E+03  0.26651545323E+03  0.00000000000E+00 0.  1.
          5    1    4    4  501    0  0.57691559636E+02  0.52839184431E+02 -0.47172707451E+02  0.91449615597E+02  0.41800000000E+01 0. -1.
         -5    1    4    4    0  501 -0.28617880891E+02 -0.39780859157E+02 -0.49896765129E+02  0.70061825785E+02  0.41800000000E+01 0. -1.
</event>
<event>
11    1  0.9238666E-009  0.1789690E+03  0.7561462E-02  0.1070480E+00
         22   -1    0    0    0    0  0.00000000000E+00  0.00000000000E+00  0.17203628254E+04  0.17203628254E+04  0.00000000000E+00 0.  1.
         22   -1    0    0    0    0 -0.00000000000E+00 -0.00000000000E+00 -0.31015798929E+03  0.31015798929E+03  0.00000000000E+00 0.  1.
         24    2    1    2    0    0  0.30020411425E+02  0.57791211493E+01 -0.25808530033E+03  0.27205526910E+03  0.80445160533E+02 0.  0.
         25    2    1    2    0    0 -0.13640647884E+03  0.61999462109E+02  0.18892660798E+03  0.27164726579E+03  0.12509321739E+03 0.  0.
        -24    2    1    2    0    0  0.10638606742E+03 -0.67778583258E+02  0.14793635284E+04  0.14868182798E+04  0.78741451025E+02 0.  0.
        -13    1    3    3    0    0  0.42334663268E+02 -0.23444015223E+02 -0.20109916303E+03  0.20683983885E+03  0.00000000000E+00 0.  1.
         14    1    3    3    0    0 -0.12314251842E+02  0.29223136373E+02 -0.56986137297E+02  0.65215430244E+02  0.00000000000E+00 0. -1.
         11    1    5    5    0    0  0.83708585910E+02 -0.76731553223E+01  0.78393808467E+03  0.78843194080E+03  0.00000000000E+00 0. -1.
        -12    1    5    5    0    0  0.22677481508E+02 -0.60105427936E+02  0.69542544376E+03  0.69838633897E+03  0.00000000000E+00 0.  1.
          5    1    4    4  501    0 -0.12916121816E+02  0.37597405369E+02 -0.51306047480E+01  0.40301198472E+02  0.41800000000E+01 0. -1.
         -5    1    4    4    0  501 -0.12349035703E+03  0.24402056740E+02  0.19405721272E+03  0.23134606732E+03  0.41800000000E+01 0. -1.
</event>
<event>
11    1  0.9238666E-009  0.1437723E+03  0.7561462E-02  0.1103418E+00
         22   -1    0    0    0    0  0.00000000000E+00  0.00000000000E+00  0.10703273802E+04  0.10703273802E+04  0.00000000000E+00 0. -1.
         22   -1    0    0    0    0 -0.00000000000E+00 -0.00000000000E+00 -0.27768147730E+04  0.27768147730E+04  0.00000000000E+00 0. -1.
        -24    2    1    2    0    0  0.12710341890E+02 -0.69783639134E+02 -0.27580729991E+04  0.27601454961E+04  0.80032383023E+02 0.  0.
         25    2    1    2    0    0  0.49739095637E+02  0.58942084797E+02  0.37138819960E+03  0.39940556416E+03  0.12508981929E+03 0.  0.
         24    2    1    2    0    0 -0.62449437527E+02  0.10841554337E+02  0.68019740669E+03  0.68759109286E+03  0.78073858440E+02 0.  0.
        -13    1    5    5    0    0 -0.73858887625E-01 -0.73469528695E+01  0.41692948562E+01  0.84478512771E+01  0.00000000000E+00 0.  1.
         14    1    5    5    0    0 -0.62375578639E+02  0.18188507207E+02  0.67602811183E+03  0.67914324159E+03  0.00000000000E+00 0. -1.
         13    1    3    3    0    0 -0.57284183833E+00 -0.16491822970E+02 -0.20067089176E+04  0.20067767660E+04  0.00000000000E+00 0. -1.
        -14    1    3    3    0    0  0.13283183729E+02 -0.53291816165E+02 -0.75136408144E+03  0.75336873012E+03  0.00000000000E+00 0.  1.
          5    1    4    4  501    0  0.63253233989E+02 -0.16248110274E+02  0.12065658716E+03  0.13726054467E+03  0.41800000000E+01 0.  1.
         -5    1    4    4    0  501 -0.13514138352E+02  0.75190195071E+02  0.25073161244E+03  0.26214501950E+03  0.41800000000E+01 0.  1.
</event>
<event>
11    1  0.9238666E-009  0.2618347E+03  0.7561462E-02  0.1017777E+00
         22   -1    0    0    0    0  0.00000000000E+00  0.00000000000E+00  0.15621332207E+04  0.15621332207E+04  0.00000000000E+00 0. -1.
         22   -1    0    0    0    0 -0.00000000000E+00 -0.00000000000E+00 -0.16467219290E+04  0.16467219290E+04  0.00000000000E+00 0. -1.
         24    2    1    2    0    0  0.58491845758E+02  0.22617764762E+03 -0.15315356734E+04  0.15514724284E+04  0.82991281284E+02 0.  0.
         25    2    1    2    0    0 -0.86006218908E+02 -0.16866257817E+03  0.21011853303E+02  0.22788985285E+03  0.12509257407E+03 0.  0.
        -24    2    1    2    0    0  0.27514373150E+02 -0.57515069450E+02  0.14259351118E+04  0.14294928685E+04  0.78063398866E+02 0.  0.
        -11    1    3    3    0    0  0.10590792560E+02  0.90327581265E+02 -0.36881453735E+03  0.37986234321E+03  0.00000000000E+00 0.  1.
         12    1    3    3    0    0  0.47901053197E+02  0.13585006635E+03 -0.11627211360E+04  0.11716100852E+04  0.00000000000E+00 0. -1.
         11    1    5    5    0    0  0.12612823689E+02 -0.59248190649E+02  0.13764840005E+04  0.13778162560E+04  0.00000000000E+00 0. -1.
        -12    1    5    5    0    0  0.14901549461E+02  0.17331211994E+01  0.49451111236E+02  0.51676612581E+02  0.00000000000E+00 0.  1.
          5    1    4    4  501    0 -0.11596207105E+03 -0.11452535303E+03  0.28215279938E+02  0.16545945978E+03  0.41800000000E+01 0. -1.
         -5    1    4    4    0  501  0.29955852143E+02 -0.54137225138E+02 -0.72034266344E+01  0.62430393067E+02  0.41800000000E+01 0. -1.
</event>
<event>
11    1  0.9238666E-009  0.1715795E+03  0.7561462E-02  0.1076665E+00
         22   -1    0    0    0    0  0.00000000000E+00  0.00000000000E+00  0.59725913690E+02  0.59725913690E+02  0.00000000000E+00 0. -1.
         22   -1    0    0    0    0 -0.00000000000E+00 -0.00000000000E+00 -0.26962976132E+04  0.26962976132E+04  0.00000000000E+00 0. -1.
        -24    2    1    2    0    0  0.13627713378E+03 -0.96449732700E+01 -0.21979428332E+04  0.22036474981E+04  0.80281474501E+02 0.  0.
         25    2    1    2    0    0 -0.32898432411E+02  0.44495234652E+02 -0.38103325759E+03  0.40484000059E+03  0.12508776890E+03 0.  0.
         24    2    1    2    0    0 -0.10337870137E+03 -0.34850261382E+02 -0.57595608708E+02  0.14753602819E+03  0.80919273706E+02 0.  0.
        -13    1    5    5    0    0 -0.46625703646E+02 -0.51179917555E+02 -0.55003572385E+02  0.88423600789E+02  0.00000000000E+00 0.  1.
         14    1    5    5    0    0 -0.56752997719E+02  0.16329656174E+02 -0.25920363234E+01  0.59112427400E+02  0.00000000000E+00 0. -1.
         11    1    3    3    0    0  0.13205664696E+03  0.13807022230E+02 -0.17236541405E+04  0.17287605930E+04  0.00000000000E+00 0. -1.
        -12    1    3    3    0    0  0.42204868121E+01 -0.23451995500E+02 -0.47428869264E+03  0.47488690503E+03  0.00000000000E+00 0.  1.
          5    1    4    4  501    0  0.40785829358E+02  0.44657218706E+02 -0.20969892889E+03  0.21828619800E+03  0.41800000000E+01 0. -1.
         -5    1    4    4    0  501 -0.73684261769E+02 -0.16198405491E+00 -0.17133432869E+03  0.18655380259E+03  0.41800000000E+01 0. -1.
</event>
<event>
11    1  0.9238666E-009  0.1369945E+03  0.7561462E-02  0.1110962E+00
         22   -1    0    0    0    0  0.00000000000E+00  0.00000000000E+00  0.21672644326E+03  0.21672644326E+03  0.00000000000E+00 0.  1.
         22   -1    0    0    0    0 -0.00000000000E+00 -0.00000000000E+00 -0.49964729583E+03  0.49964729583E+03  0.00000000000E+00 0. -1.
         24    2    1    2    0    0  0.48599343916E+02  0.24554644417E+02 -0.31910983017E+03  0.33328824906E+03  0.79278915610E+02 0.  0.
         25    2    1    2    0    0 -0.47333577225E+02 -0.42360154550E+02 -0.13404029930E+03  0.19403363388E+03  0.12508956397E+03 0.  0.
        -24    2    1    2    0    0 -0.12657666912E+01  0.17805510133E+02  0.17022927690E+03  0.18905185616E+03  0.80274275131E+02 0.  0.
        -11    1    3    3    0    0  0.24589132897E+02 -0.77175526100E+01 -0.23259118042E+02  0.34715596596E+02  0.00000000000E+00 0.  1.
         12    1    3    3    0    0  0.24010211019E+02  0.32272197027E+02 -0.29585071212E+03  0.29857265246E+03  0.00000000000E+00 0. -1.
         13    1    5    5    0    0  0.26847272222E+02  0.26531565991E+02  0.37904550017E+02  0.53492568938E+02  0.00000000000E+00 0. -1.
        -14    1    5    5    0    0 -0.28113038913E+02 -0.87260558579E+01  0.13232472688E+03  0.13555928722E+03  0.00000000000E+00 0.  1.
          5    1    4    4  501    0 -0.31195131894E+02  0.32632381691E+02 -0.74343734827E+01  0.45942909114E+02  0.41800000000E+01 0.  1.
         -5    1    4    4    0  501 -0.16138445330E+02 -0.74992536241E+02 -0.12660592581E+03  0.14809072476E+03  0.41800000000E+01 0.  1.
</event>
<event>
11    1  0.9238666E-009  0.1532775E+03  0.7561462E-02  0.1093576E+00
         22   -1    0    0    0    0  0.00000000000E+00  0.00000000000E+00  0.74203793351E+03  0.74203793351E+03  0.00000000000E+00 0. -1.
         22   -1    0    0    0    0 -0.00000000000E+00 -0.00000000000E+00 -0.89791887455E+03  0.89791887455E+03  0.00000000000E+00 0. -1.
        -24    2    1    2    0    0  0.59613675419E+02 -0.58661266653E+02 -0.59738843973E+03  0.60978566366E+03  0.89278626662E+02 0.  0.
         25    2    1    2    0    0 -0.69172315095E+02  0.82311463917E+02 -0.26848433150E+03  0.31510625293E+03  0.12509247821E+03 0.  0.
         24    2    1    2    0    0  0.95586396757E+01 -0.23650197265E+02  0.70999183019E+03  0.71506489147E+03  0.81109189655E+02 0.  0.
        -11    1    5    5    0    0  0.10285334956E+02 -0.34461341338E+02  0.12757222867E+03  0.13254450457E+03  0.00000000000E+00 0.  1.
         12    1    5    5    0    0 -0.72669527977E+00  0.10811144074E+02  0.58241960152E+03  0.58252038690E+03  0.00000000000E+00 0. -1.
         13    1    3    3    0    0  0.48425111698E+02 -0.80720279045E+02 -0.52269595137E+03  0.53110433294E+03  0.00000000000E+00 0. -1.
        -14    1    3    3    0    0  0.11188563721E+02  0.22059012392E+02 -0.74692488359E+02  0.78681330715E+02  0.00000000000E+00 0.  1.
          5    1    4    4  501    0 -0.82639488479E+02  0.26167359611E+02 -0.80356530408E+02  0.11827366632E+03  0.41800000000E+01 0. -1.
         -5    1    4    4    0  501  0.13467173385E+02  0.56144104306E+02 -0.18812780109E+03  0.19683258661E+03  0.41800000000E+01 0. -1.
</event>
<event>
11    1  0.9238666E-009  0.2324927E+03  0.7561462E-02  0.1033662E+00
         22   -1    0    0    0    0  0.00000000000E+00  0.00000000000E+00  0.51426716073E+03  0.51426716073E+03  0.00000000000E+00 0. -1.
         22   -1    0    0    0    0 -0.00000000000E+00 -0.00000000000E+00 -0.12736698374E+04  0.12736698374E+04  0.00000000000E+00 0.  1.
        -24    2    1    2    0    0 -0.16874356324E+03 -0.80363610412E+02 -0.99398122445E+03  0.10145953364E+04  0.80450743545E+02 0.  0.
         25    2    1    2    0    0  0.24707525340E+03  0.11132486618E+03 -0.17621445378E+03  0.34660984481E+03  0.12508974428E+03 0.  0.
         24    2    1    2    0    0 -0.78331690156E+02 -0.30961255773E+02  0.41079300151E+03  0.42673181693E+03  0.79086664135E+02 0.  0.
        -11    1    5    5    0    0 -0.34530687114E+02  0.23374073200E+02  0.10289336866E+03  0.11102144371E+03  0.00000000000E+00 0.  1.
         12    1    5    5    0    0 -0.43801003042E+02 -0.54335328972E+02  0.30789963286E+03  0.31571037322E+03  0.00000000000E+00 0. -1.
         11    1    3    3    0    0 -0.40455958960E+01  0.95929057243E+01 -0.18514328983E+02  0.21240787746E+02  0.00000000000E+00 0. -1.
        -12    1    3    3    0    0 -0.16469796734E+03 -0.89956516136E+02 -0.97546689546E+03  0.99335454868E+03  0.00000000000E+00 0.  1.
          5    1    4    4  501    0  0.81250072552E+02  0.10125565715E+03 -0.55711125018E+02  0.14133465338E+03  0.41800000000E+01 0. -1.
         -5    1    4    4    0  501  0.16582518084E+03  0.10069209030E+02 -0.12050332876E+03  0.20527519142E+03  0.41800000000E+01 0. -1.
</event>
<event>
11    1  0.9238666E-009  0.1631882E+03  0.7561462E-02  0.1084116E+00
         22   -1    0    0    0    0  0.00000000000E+00  0.00000000000E+00  0.10036090316E+03  0.10036090316E+03  0.00000000000E+00 0.  1.
         22   -1    0    0    0    0 -0.00000000000E+00 -0.00000000000E+00 -0.61521670882E+03  0.61521670882E+03  0.00000000000E+00 0. -1.
         24    2    1    2    0    0  0.11705984837E+03 -0.70082806661E+01 -0.28141042834E+03  0.31467884046E+03  0.77966783686E+02 0.  0.
         25    2    1    2    0    0 -0.88560581296E+02  0.14135582015E+02 -0.26796849102E+03  0.30902599508E+03  0.12508861746E+03 0.  0.
        -24    2    1    2    0    0 -0.28499267073E+02 -0.71273013492E+01  0.34523113699E+02  0.91872776433E+02  0.79910919290E+02 0.  0.
        -13    1    3    3    0    0  0.10246678806E+02 -0.14284362270E+01  0.30404767272E+01  0.10783290562E+02  0.00000000000E+00 0.  1.
         14    1    3    3    0    0  0.10681316956E+03 -0.55798444391E+01 -0.28445090507E+03  0.30389554990E+03  0.00000000000E+00 0. -1.
         11    1    5    5    0    0  0.20007065653E+02 -0.26837532707E+01 -0.12847049267E+02  0.23927638465E+02  0.00000000000E+00 0. -1.
        -12    1    5    5    0    0 -0.48506332726E+02 -0.44435480785E+01  0.47370162966E+02  0.67945137968E+02  0.00000000000E+00 0.  1.
          5    1    4    4  501    0  0.15494790574E+02 -0.33869396016E+02 -0.87744809596E+02  0.95414089801E+02  0.41800000000E+01 0.  1.
         -5    1    4    4    0  501 -0.10405537187E+03  0.48004978032E+02 -0.18022368142E+03  0.21361190528E+03  0.41800000000E+01 0.  1.
</event>
<event>
11    1  0.9238666E-009  0.3157940E+03  0.7561462E-02  0.9937199E-01
         22   -1    0    0    0    0  0.00000000000E+00  0.00000000000E+00  0.78582807908E+03  0.78582807908E+03  0.00000000000E+00 0.  1.
         22   -1    0    0    0    0 -0.00000000000E+00 -0.00000000000E+00 -0.87554330049E+03  0.87554330049E+03  0.00000000000E+00 0. -1.
        -24    2    1    2    0    0  0.18568611317E+03 -0.22526154861E+03 -0.76249321186E+03  0.82029833295E+03  0.79191912513E+02 0.  0.
         25    2    1    2    0    0 -0.81511730622E+02  0.27623723321E+03  0.26955679488E+03  0.41383586142E+03  0.12509229908E+03 0.  0.
         24    2    1    2    0    0 -0.10417438255E+03 -0.50975684607E+02  0.40322119556E+03  0.42723718520E+03  0.80581992215E+02 0.  0.
        -11    1    5    5    0    0 -0.41488339495E+02 -0.37427228563E+02  0.30400754514E+03  0.30909976910E+03  0.00000000000E+00 0.  1.
         12    1    5    5    0    0 -0.62686043052E+02 -0.13548456044E+02  0.99213650419E+02  0.11813741611E+03  0.00000000000E+00 0. -1.
         13    1    3    3    0    0  0.16590671253E+03 -0.22775567927E+03 -0.69582209506E+03  0.75071038003E+03  0.00000000000E+00 0. -1.
        -14    1    3    3    0    0  0.19779400639E+02  0.24941306636E+01 -0.66671116795E+02  0.69587952924E+02  0.00000000000E+00 0.  1.
          5    1    4    4  501    0 -0.11170891030E+03  0.17516317749E+03  0.19104561310E+03  0.28227100112E+03  0.41800000000E+01 0. -1.
         -5    1    4    4    0  501  0.30197179680E+02  0.10107405572E+03  0.78511181784E+02  0.13156486030E+03  0.41800000000E+01 0. -1.
</event>
<event>
11    1  0.9238666E-009  0.1598844E+03  0.7561462E-02  0.1087186E+00
         22   -1    0    0    0    0  0.00000000000E+00  0.00000000000E+00  0.17015774448E+04  0.17015774448E+04  0.00000000000E+00 0.  1.
         22   -1    0    0    0    0 -0.00000000000E+00 -0.00000000000E+00 -0.16411027061E+03  0.16411027061E+03  0.00000000000E+00 0. -1.
         24    2    1    2    0    0 -0.90314312532E+02 -0.28791382624E+02 -0.71170621864E+02  0.13851520791E+03  0.71663007494E+02 0.  0.
         25    2    1    2    0    0  0.11017397715E+03  0.41597269780E+02  0.68794983558E+02  0.18506086579E+03  0.12508451619E+03 0.  0.
        -24    2    1    2    0    0 -0.19859664616E+02 -0.12805887156E+02  0.15398428125E+04  0.15421116417E+04  0.80212413583E+02 0.  0.
        -11    1    3    3    0    0 -0.63799197193E+02 -0.54253656439E+01 -0.59127075738E+01  0.64301883843E+02  0.00000000000E+00 0.  1.
         12    1    3    3    0    0 -0.26515115339E+02 -0.23366016981E+02 -0.65257914290E+02  0.74213324063E+02  0.00000000000E+00 0. -1.
         13    1    5    5    0    0  0.34259473539E+01 -0.18727279660E+02  0.86502700569E+02  0.88572937878E+02  0.00000000000E+00 0. -1.
        -14    1    5    5    0    0 -0.23285611970E+02  0.59213925042E+01  0.14533401120E+04  0.14535387039E+04  0.00000000000E+00 0.  1.
          5    1    4    4  501    0  0.57866976741E+02  0.57837395121E+02 -0.16540319619E+02  0.83575150880E+02  0.41800000000E+01 0.  1.
         -5    1    4    4    0  501  0.52307000408E+02 -0.16240125341E+02  0.85335303176E+02  0.10148571491E+03  0.41800000000E+01 0.  1.
</event>
<event>
11    1  0.9238666E-009  0.1931366E+03  0.7561462E-02  0.1059486E+00
         22   -1    0    0    0    0  0.00000000000E+00  0.00000000000E+00  0.16296319369E+04  0.16296319369E+04  0.00000000000E+00 0.  1.
         22   -1    0    0    0    0 -0.00000000000E+00 -0.00000000000E+00 -0.25260613916E+03  0.25260613916E+03  0.00000000000E+00 0.  1.
         24    2    1    2    0    0  0.19428540270E+02  0.10488066508E+03 -0.19677716223E+03  0.23770424728E+03  0.80028966731E+02 0.  0.
         25    2    1    2    0    0  0.92493651083E+02  0.10496722124E+02  0.17386781458E+03  0.23354401901E+03  0.12509010833E+03 0.  0.
        -24    2    1    2    0    0 -0.11192219135E+03 -0.11537738720E+03  0.13999351454E+04  0.14109898098E+04  0.72355466600E+02 0.  0.
        -13    1    3    3    0    0  0.23737408787E+02  0.11582042090E+03 -0.19093472792E+03  0.22457494250E+03  0.00000000000E+00 0.  1.
         14    1    3    3    0    0 -0.43088685169E+01 -0.10939755824E+02 -0.58424343163E+01  0.13129304785E+02  0.00000000000E+00 0. -1.
         13    1    5    5    0    0 -0.17484791417E+02 -0.46707211426E+02  0.23597862393E+03  0.24119119487E+03  0.00000000000E+00 0. -1.
        -14    1    5    5    0    0 -0.94437399936E+02 -0.68670175776E+02  0.11639565215E+04  0.11697986149E+04  0.00000000000E+00 0.  1.
          5    1    4    4  501    0  0.11057813724E+03 -0.15576687358E+02  0.89054269327E+02  0.14289259222E+03  0.41800000000E+01 0. -1.
         -5    1    4    4    0  501 -0.18084486157E+02  0.26073409482E+02  0.84813545256E+02  0.90651426798E+02  0.41800000000E+01 0. -1.
</event>
<event>
11    1  0.9238666E-009  0.1377659E+03  0.7561462E-02  0.1110079E+00
         22   -1    0    0    0    0  0.00000000000E+00  0.00000000000E+00  0.47256981639E+03  0.47256981639E+03  0.00000000000E+00 0. -1.
         22   -1    0    0    0    0 -0.00000000000E+00 -0.00000000000E+00 -0.19128704299E+03  0.19128704299E+03  0.00000000000E+00 0. -1.
        -24    2    1    2    0    0 -0.95311729007E+01 -0.78024292867E+01 -0.14417890566E+03  0.16473347650E+03  0.78726363339E+02 0.  0.
         25    2    1    2    0    0  0.22362240278E+01 -0.51415824345E+02  0.13151210378E+03  0.18866400131E+03  0.12510029680E+03 0.  0.
         24    2    1    2    0    0  0.72949488729E+01  0.59218253632E+02  0.29394957528E+03  0.31045938157E+03  0.80116521125E+02 0.  0.
        -13    1    5    5    0    0 -0.96267224375E+01  0.17923909950E+01  0.19186892232E+03  0.19211863471E+03  0.00000000000E+00 0.  1.
         14    1    5    5    0    0  0.16921671310E+02  0.57425862637E+02  0.10208065296E+03  0.11834074686E+03  0.00000000000E+00 0. -1.
         13    1    3    3    0    0 -0.14439022889E+02 -0.35090968261E+02 -0.12597354824E+03  0.13156441879E+03  0.00000000000E+00 0. -1.
        -14    1    3    3    0    0  0.49078499885E+01  0.27288538974E+02 -0.18205357418E+02  0.33169057713E+02  0.00000000000E+00 0.  1.
          5    1    4    4  501    0 -0.19881697866E+02 -0.23874978211E+02  0.14668222921E+03  0.14999481745E+03  0.41800000000E+01 0. -1.
         -5    1    4    4    0  501  0.22117921894E+02 -0.27540846134E+02 -0.15170125436E+02  0.38669183861E+02  0.41800000000E+01 0. -1.
</event>
<event>
11    1  0.9238666E-009  0.1262687E+03  0.7561462E-02  0.1123940E+00
         22   -1    0    0    0    0  0.00000000000E+00  0.00000000000E+00  0.15827923820E+03  0.15827923820E+03  0.00000000000E+00 0.  1.
         22   -1    0    0    0    0 -0.00000000000E+00 -0.00000000000E+00 -0.13448521667E+04  0.13448521667E+04  0.00000000000E+00 0. -1.
         24    2    1    2    0    0 -0.65570449793E+01 -0.15924540297E+02 -0.12378868138E+04  0.12411150996E+04  0.87785765921E+02 0.  0.
         25    2    1    2    0    0  0.38233610342E+02  0.13063554853E+01 -0.41064163225E+02  0.13710334990E+03  0.12509015760E+03 0.  0.
        -24    2    1    2    0    0 -0.31676565363E+02  0.14618184812E+02  0.92378048495E+02  0.12491295549E+03  0.76501284200E+02 0.  0.
        -11    1    3    3    0    0 -0.35030692677E+02  0.22236362725E+02 -0.52175670288E+03  0.52340391884E+03  0.00000000000E+00 0.  1.
         12    1    3    3    0    0  0.28473647698E+02 -0.38160903022E+02 -0.71613011094E+03  0.71771118071E+03  0.00000000000E+00 0. -1.
         11    1    5    5    0    0 -0.19920398442E+02 -0.28678706859E+02  0.60578430391E+02  0.69921647077E+02  0.00000000000E+00 0. -1.
        -12    1    5    5    0    0 -0.11756166921E+02  0.43296891671E+02  0.31799618104E+02  0.54991308410E+02  0.00000000000E+00 0.  1.
          5    1    4    4  501    0 -0.26985615778E+02  0.41413939025E+02  0.10557325805E+01  0.49617786889E+02  0.41800000000E+01 0.  1.
         -5    1    4    4    0  501  0.65219226120E+02 -0.40107583540E+02 -0.42119895806E+02  0.87485563014E+02  0.41800000000E+01 0.  1.
</event>
<event>
11    1  0.9238666E-009  0.1350814E+03  0.7561462E-02  0.1113179E+00
         22   -1    0    0    0    0  0.00000000000E+00  0.00000000000E+00  0.48972228781E+03  0.48972228781E+03  0.00000000000E+00 0.  1.
         22   -1    0    0    0    0 -0.00000000000E+00 -0.00000000000E+00 -0.19147798904E+03  0.19147798904E+03  0.00000000000E+00 0. -1.
         24    2    1    2    0    0  0.45861202773E+02 -0.19754782854E+01 -0.12897616497E+03  0.15917354720E+03  0.81204769340E+02 0.  0.
         25    2    1    2    0    0 -0.72670876904E+02 -0.37020168198E+02  0.95722379201E+02  0.17737390879E+03  0.12508869028E+03 0.  0.
        -24    2    1    2    0    0  0.26809674131E+02  0.38995646483E+02  0.33149808454E+03  0.34465282086E+03  0.81579211804E+02 0.  0.
        -11    1    3    3    0    0 -0.23139095364E+02 -0.46229108621E+01 -0.25190345410E+02  0.34515830295E+02  0.00000000000E+00 0.  1.
         12    1    3    3    0    0  0.69000298137E+02  0.26474325768E+01 -0.10378581956E+03  0.12465771690E+03  0.00000000000E+00 0. -1.
         11    1    5    5    0    0  0.43179185479E+01 -0.67480815213E+00 -0.40868893676E+01  0.59835149646E+01  0.00000000000E+00 0. -1.
        -12    1    5    5    0    0  0.22491755583E+02  0.39670454636E+02  0.33558497391E+03  0.33866930590E+03  0.00000000000E+00 0.  1.
          5    1    4    4  501    0 -0.79325104097E+02  0.24707735431E+02  0.74372476239E+02  0.11158710477E+03  0.41800000000E+01 0. -1.
         -5    1    4    4    0  501  0.66542271929E+01 -0.61727903629E+02  0.21349902962E+02  0.65786804014E+02  0.41800000000E+01 0. -1.
</event>
<event>
11    1  0.9238666E-009  0.1295316E+03  0.7561462E-02  0.1119846E+00
         22   -1    0    0    0    0  0.00000000000E+00  0.00000000000E+00  0.10650085182E+03  0.10650085182E+03  0.00000000000E+00 0.  1.
         22   -1    0    0    0    0 -0.00000000000E+00 -0.00000000000E+00 -0.15489488300E+04  0.15489488300E+04  0.00000000000E+00 0.  1.
        -24    2    1    2    0    0 -0.20549904331E+02 -0.29723072025E+02 -0.72999442286E+03  0.73548133591E+03  0.82068133208E+02 0.  0.
         25    2    1    2    0    0  0.42032403694E+02 -0.22122427294E+01 -0.79058711758E+03  0.80152741756E+03  0.12508634472E+03 0.  0.
         24    2    1    2    0    0 -0.21482499363E+02  0.31935314754E+02  0.78133562282E+02  0.11844092833E+03  0.80262306474E+02 0.  0.
        -13    1    5    5    0    0  0.26180140751E+02 -0.51700954212E+01  0.35924024732E+02  0.44751147575E+02  0.00000000000E+00 0.  1.
         14    1    5    5    0    0 -0.47662640114E+02  0.37105410175E+02  0.42209537550E+02  0.73689780751E+02  0.00000000000E+00 0. -1.
         11    1    3    3    0    0 -0.32367747313E+02 -0.50768869550E+02 -0.38881288676E+03  0.39344708677E+03  0.00000000000E+00 0. -1.
        -12    1    3    3    0    0  0.11817842981E+02  0.21045797525E+02 -0.34118153610E+03  0.34203424913E+03  0.00000000000E+00 0.  1.
          5    1    4    4  501    0  0.58384744289E+02 -0.52663813155E+02 -0.46210768069E+03  0.46876778530E+03  0.41800000000E+01 0. -1.
         -5    1    4    4    0  501 -0.16352340595E+02  0.50451570426E+02 -0.32847943689E+03  0.33275963226E+03  0.41800000000E+01 0. -1.
</event>
<event>
11    1  0.9238666E-009  0.1400424E+03  0.7561462E-02  0.1107511E+00
         22   -1    0    0    0    0  0.00000000000E+00  0.00000000000E+00  0.35652017071E+03  0.35652017071E+03  0.00000000000E+00 0.  1.
         22   -1    0    0    0    0 -0.00000000000E+00 -0.00000000000E+00 -0.52494732019E+03  0.52494732019E+03  0.00000000000E+00 0.  1.
         24    2    1    2    0    0 -0.29470491465E+02 -0.57448075544E+02 -0.45994208576E+03  0.46881963975E+03  0.63846230140E+02 0.  0.
         25    2    1    2    0    0  0.20312773751E+02  0.28446614462E+02  0.24741432051E+02  0.13221817807E+03  0.12509072508E+03 0.  0.
        -24    2    1    2    0    0  0.91577177147E+01  0.29001461082E+02  0.26677350423E+03  0.28042967309E+03  0.80918171326E+02 0.  0.
        -13    1    3    3    0    0 -0.17887500727E+02 -0.35597282445E+02 -0.41969383889E+03  0.42158041653E+03  0.00000000000E+00 0.  1.
         14    1    3    3    0    0 -0.11582990738E+02 -0.21850793099E+02 -0.40248246873E+02  0.47239223213E+02  0.00000000000E+00 0. -1.
         11    1    5    5    0    0  0.30500249493E+02  0.15674099413E+02  0.41859089292E+02  0.54112160998E+02  0.00000000000E+00 0. -1.
        -12    1    5    5    0    0 -0.21342531779E+02  0.13327361669E+02  0.22491441494E+03  0.22631751209E+03  0.00000000000E+00 0.  1.
          5    1    4    4  501    0 -0.52793165796E+02  0.63392874016E+01  0.12084063398E+02  0.54688224580E+02  0.41800000000E+01 0.  1.
         -5    1    4    4    0  501  0.73105939547E+02  0.22107327060E+02  0.12657368653E+02  0.77529953489E+02  0.41800000000E+01 0.  1.
</event>
<event>
11    1  0.9238666E-009  0.1470091E+03  0.7561462E-02  0.1099975E+00
         22   -1    0    0    0    0  0.00000000000E+00  0.00000000000E+00  0.40412616543E+03  0.40412616543E+03  0.00000000000E+00 0.  1.
         22   -1    0    0    0    0 -0.00000000000E+00 -0.00000000000E+00 -0.11416272539E+04  0.11416272539E+04  0.00000000000E+00 0. -1.
        -24    2    1    2    0    0  0.68151506667E+02 -0.31364527120E+02 -0.99039025928E+03  0.99654210357E+03  0.81209218102E+02 0.  0.
         25    2    1    2    0    0 -0.12555465708E+03  0.56862006490E+01 -0.85027810618E+02  0.19665714215E+03  0.12509195893E+03 0.  0.
         24    2    1    2    0    0  0.57403150412E+02  0.25678326471E+02  0.33791698143E+03  0.35255417360E+03  0.78435074171E+02 0.  0.
        -11    1    5    5    0    0  0.15536498040E+02 -0.58288625285E+01  0.24747075754E+03  0.24802647892E+03  0.00000000000E+00 0.  1.
         12    1    5    5    0    0  0.41866652372E+02  0.31507189000E+02  0.90446223886E+02  0.10452769468E+03  0.00000000000E+00 0. -1.
         13    1    3    3    0    0  0.55941394118E+02 -0.22344672691E+02 -0.96557255962E+03  0.96744978777E+03  0.00000000000E+00 0. -1.
        -14    1    3    3    0    0  0.12210112549E+02 -0.90198544291E+01 -0.24817699657E+02  0.29092315801E+02  0.00000000000E+00 0.  1.
          5    1    4    4  501    0 -0.53910088968E+02  0.21852289850E+02 -0.10528117809E+03  0.12035538677E+03  0.41800000000E+01 0. -1.
         -5    1    4    4    0  501 -0.71644568111E+02 -0.16166089201E+02  0.20253367476E+02  0.76301755380E+02  0.41800000000E+01 0. -1.
</event>
<event>
11    1  0.9238666E-009  0.1363783E+03  0.7561462E-02  0.1111671E+00
         22   -1    0    0    0    0  0.00000000000E+00  0.00000000000E+00  0.17429173463E+04  0.17429173463E+04  0.00000000000E+00 0.  1.
         22   -1    0    0    0    0 -0.00000000000E+00 -0.00000000000E+00 -0.13423448101E+03  0.13423448101E+03  0.00000000000E+00 0. -1.
        -24    2    1    2    0    0 -0.32353718679E+02 -0.36719591742E+02 -0.96704128721E+02  0.13451890168E+03  0.79677819160E+02 0.  0.
         25    2    1    2    0    0  0.77115633772E+02  0.73142371662E+01  0.30173068681E+03  0.33569157449E+03  0.12508839590E+03 0.  0.
         24    2    1    2    0    0 -0.44761915092E+02  0.29405354575E+02  0.14036563072E+04  0.14069413512E+04  0.79778649368E+02 0.  0.
        -13    1    5    5    0    0 -0.63934841628E+02  0.13739710806E+02  0.12008557722E+04  0.12026350358E+04  0.00000000000E+00 0.  1.
         14    1    5    5    0    0  0.19172926536E+02  0.15665643769E+02  0.20280053500E+03  0.20430631538E+03  0.00000000000E+00 0. -1.
         11    1    3    3    0    0 -0.26396668659E+02 -0.47393217907E+02 -0.10605818122E+03  0.11912698696E+03  0.00000000000E+00 0. -1.
        -12    1    3    3    0    0 -0.59570500207E+01  0.10673626166E+02  0.93540524944E+01  0.15391914713E+02  0.00000000000E+00 0.  1.
          5    1    4    4  501    0  0.75825109987E+02  0.58414443062E+02  0.19298866182E+03  0.21546180741E+03  0.41800000000E+01 0. -1.
         -5    1    4    4    0  501  0.12905237843E+01 -0.51100205896E+02  0.10874202499E+03  0.12022976709E+03  0.41800000000E+01 0. -1.
</event>
<event>
11    1  0.9375549E-009  0.1912101E+03  0.7561462E-02  0.1060920E+00
         22   -1    0    0    0    0  0.00000000000E+00  0.00000000000E+00  0.38786431083E+03  0.38786431083E+03  0.00000000000E+00 0.  1.
         22   -1    0    0    0    0 -0.00000000000E+00 -0.00000000000E+00 -0.17224587335E+04  0.17224587335E+04  0.00000000000E+00 0.  1.
        -24    2    1    2    0    0 -0.51075565667E+01 -0.66357286108E+02 -0.14767946260E+04  0.14804195008E+04  0.79310494760E+02 0.  0.
         25    2    1    2    0    0 -0.77895855678E+02 -0.57650904154E+02 -0.19649781619E+03  0.25228794911E+03  0.12508567630E+03 0.  0.
         24    2    1    2    0    0  0.83003412245E+02  0.12400819026E+03  0.33869801953E+03  0.37761559437E+03  0.74897202744E+02 0.  0.
        -11    1    5    5    0    0  0.55363133992E+02  0.70305882260E+02  0.27775052909E+03  0.29181046947E+03  0.00000000000E+00 0.  1.
         12    1    5    5    0    0  0.27640278253E+02  0.53702308002E+02  0.60947490440E+02  0.85805124891E+02  0.00000000000E+00 0. -1.
         13    1    3    3    0    0  0.34724739349E+02 -0.44760101780E+02 -0.94585238069E+03  0.94754736045E+03  0.00000000000E+00 0. -1.
        -14    1    3    3    0    0 -0.39832295915E+02 -0.21597184327E+02 -0.53094224528E+03  0.53287214038E+03  0.00000000000E+00 0.  1.
          5    1    4    4  501    0 -0.10709383615E+03 -0.38642471460E+02 -0.10757231718E+03  0.15668952155E+03  0.41800000000E+01 0. -1.
         -5    1    4    4    0  501  0.29197980468E+02 -0.19008432694E+02 -0.88925499011E+02  0.95598427556E+02  0.41800000000E+01 0. -1.
</event>
<event>
11    1  0.9238666E-009  0.1533752E+03  0.7561462E-02  0.1093479E+00
         22   -1    0    0    0    0  0.00000000000E+00  0.00000000000E+00  0.29003142884E+03  0.29003142884E+03  0.00000000000E+00 0.  1.
         22   -1    0    0    0    0 -0.00000000000E+00 -0.00000000000E+00 -0.62878432199E+03  0.62878432199E+03  0.00000000000E+00 0.  1.
        -24    2    1    2    0    0  0.52931988936E+02 -0.71677745440E+02 -0.56386471891E+03  0.57631909380E+03  0.79125103447E+02 0.  0.
         25    2    1    2    0    0 -0.33523027192E+02  0.76870227608E+02  0.71280303142E+02  0.16662038738E+03  0.12509455076E+03 0.  0.
         24    2    1    2    0    0 -0.19408961744E+02 -0.51924821688E+01  0.15383152263E+03  0.17587626966E+03  0.82853214829E+02 0.  0.
        -13    1    5    5    0    0 -0.47810053758E+02 -0.13879537365E+02  0.12471672671E+03  0.13428590662E+03  0.00000000000E+00 0.  1.
         14    1    5    5    0    0  0.28401092014E+02  0.86870551965E+01  0.29114795922E+02  0.41590363032E+02  0.00000000000E+00 0. -1.
         13    1    3    3    0    0 -0.11321798367E+02 -0.14456234698E+02 -0.25599464491E+03  0.25665234084E+03  0.00000000000E+00 0. -1.
        -14    1    3    3    0    0  0.64253787303E+02 -0.57221510742E+02 -0.30787007401E+03  0.31966675295E+03  0.00000000000E+00 0.  1.
          5    1    4    4  501    0  0.58537122574E+01  0.90832239546E+02  0.82760810340E+02  0.12309177802E+03  0.41800000000E+01 0. -1.
         -5    1    4    4    0  501 -0.39376739449E+02 -0.13962011937E+02 -0.11480507198E+02  0.43528609357E+02  0.41800000000E+01 0. -1.
</event>
<event>
11    1  0.9238666E-009  0.1363964E+03  0.7561462E-02  0.1111650E+00
         22   -1    0    0    0    0  0.00000000000E+00  0.00000000000E+00  0.54029724081E+03  0.54029724081E+03  0.00000000000E+00 0.  1.
         22   -1    0    0    0    0 -0.00000000000E+00 -0.00000000000E+00 -0.15939157610E+04  0.15939157610E+04  0.00000000000E+00 0.  1.
        -24    2    1    2    0    0 -0.12045095597E+02  0.17448497111E+02 -0.12531023189E+04  0.12560836470E+04  0.83852085939E+02 0.  0.
         25    2    1    2    0    0  0.66100032885E+02 -0.21368216431E+02 -0.31943059586E+03  0.35001256956E+03  0.12508828185E+03 0.  0.
         24    2    1    2    0    0 -0.54054937288E+02  0.39197193197E+01  0.51891439454E+03  0.52811678525E+03  0.81840635112E+02 0.  0.
        -11    1    5    5    0    0 -0.47685320810E+02  0.29729546927E+02  0.46076239146E+03  0.46417638583E+03  0.00000000000E+00 0.  1.
         12    1    5    5    0    0 -0.63696164776E+01 -0.25809827607E+02  0.58152003085E+02  0.63940399420E+02  0.00000000000E+00 0. -1.
         13    1    3    3    0    0  0.34639083060E+01  0.58026810455E+01 -0.66523657309E+01  0.94828127624E+01  0.00000000000E+00 0. -1.
        -14    1    3    3    0    0 -0.15509003903E+02  0.11645816066E+02 -0.12464499531E+04  0.12466008342E+04  0.00000000000E+00 0.  1.
          5    1    4    4  501    0  0.23452992304E+02 -0.41310874623E+01  0.29343389658E+01  0.24355522511E+02  0.41800000000E+01 0.  1.
         -5    1    4    4    0  501  0.42647040581E+02 -0.17237128969E+02 -0.32236493483E+03  0.32565704705E+03  0.41800000000E+01 0.  1.
</event>
<event>
11    1  0.9238666E-009  0.1687172E+03  0.7561462E-02  0.1079153E+00
         22   -1    0    0    0    0  0.00000000000E+00  0.00000000000E+00  0.20049170410E+03  0.20049170410E+03  0.00000000000E+00 0.  1.
         22   -1    0    0    0    0 -0.00000000000E+00 -0.00000000000E+00 -0.75156274318E+03  0.75156274318E+03  0.00000000000E+00 0.  1.
        -24    2    1    2    0    0 -0.23218669541E+02 -0.47784756964E+01 -0.62337482181E+03  0.62926306424E+03  0.82546320920E+02 0.  0.
         25    2    1    2    0    0  0.11776878021E+03  0.50855260653E+02  0.16934901839E+02  0.17997263897E+03  0.12509043428E+03 0.  0.
         24    2    1    2    0    0 -0.94550110665E+02 -0.46076784956E+02  0.55368880894E+02  0.14281874407E+03  0.79175041196E+02 0.  0.
        -13    1    5    5    0    0 -0.74818813817E+02 -0.58166752410E+02  0.67824135635E+02  0.11653900361E+03  0.00000000000E+00 0.  1.
         14    1    5    5    0    0 -0.19731296849E+02  0.12089967453E+02 -0.12455254741E+02  0.26279740467E+02  0.00000000000E+00 0. -1.
         13    1    3    3    0    0  0.80153761414E+01  0.14033072871E+02 -0.24938657923E+02  0.29717167562E+02  0.00000000000E+00 0. -1.
        -14    1    3    3    0    0 -0.31234045682E+02 -0.18811548567E+02 -0.59843616389E+03  0.59954589668E+03  0.00000000000E+00 0.  1.
          5    1    4    4  501    0  0.78876416887E+02  0.20348024725E+02  0.69889183042E+02  0.10741276254E+03  0.41800000000E+01 0.  1.
         -5    1    4    4    0  501  0.38892363319E+02  0.30507235928E+02 -0.52954281203E+02  0.72559876421E+02  0.41800000000E+01 0.  1.
</event>
<event>
11    1  0.9238666E-009  0.1358215E+03  0.7561462E-02  0.1112316E+00
         22   -1    0    0    0    0  0.00000000000E+00  0.00000000000E+00  0.19471400858E+03  0.19471400858E+03  0.00000000000E+00 0. -1.
         22   -1    0    0    0    0 -0.00000000000E+00 -0.00000000000E+00 -0.83132110006E+03  0.83132110006E+03  0.00000000000E+00 0.  1.
         24    2    1    2    0    0 -0.40261342455E+01  0.25369464876E+02 -0.69979916131E+03  0.70482865162E+03  0.80029634929E+02 0.  0.
         25    2    1    2    0    0 -0.43110911425E+02  0.27017317862E+01 -0.74877059072E+02  0.15204538334E+03  0.12508147178E+03 0.  0.
        -24    2    1    2    0    0  0.47137045670E+02 -0.28071196663E+02  0.13806912891E+03  0.16916107368E+03  0.80885668281E+02 0.  0.
        -13    1    3    3    0    0 -0.65102077933E+01 -0.17614137880E+02 -0.50408032550E+03  0.50442999040E+03  0.00000000000E+00 0.  1.
         14    1    3    3    0    0  0.24840735478E+01  0.42983602756E+02 -0.19571883581E+03  0.20039866122E+03  0.00000000000E+00 0. -1.
         11    1    5    5    0    0  0.27662377152E+02 -0.49279615900E+02  0.12570763161E+03  0.13782632657E+03  0.00000000000E+00 0. -1.
        -12    1    5    5    0    0  0.19474668518E+02  0.21208419237E+02  0.12361497303E+02  0.31334747103E+02  0.00000000000E+00 0.  1.
          5    1    4    4  501    0  0.43110105227E+01 -0.23890161850E+02  0.26965650367E+02  0.36523189136E+02  0.41800000000E+01 0.  1.
         -5    1    4    4    0  501 -0.47421921947E+02  0.26591893636E+02 -0.10184270944E+03  0.11552219421E+03  0.41800000000E+01 0.  1.
</event>
<event>
11    1  0.9238666E-009  0.1320043E+03  0.7561462E-02  0.1116831E+00
         22   -1    0    0    0    0  0.00000000000E+00  0.00000000000E+00  0.12391381533E+04  0.12391381533E+04  0.00000000000E+00 0. -1.
         22   -1    0    0    0    0 -0.00000000000E+00 -0.00000000000E+00 -0.30233636875E+03  0.30233636875E+03  0.00000000000E+00 0.  1.
        -24    2    1    2    0    0  0.36908467081E+02  0.11058310019E+02 -0.21742021242E+03  0.23529772177E+03  0.81295436164E+02 0.  0.
         25    2    1    2    0    0 -0.66543252326E+02 -0.23327214803E+02 -0.49083785225E+01  0.14367616779E+03  0.12508631272E+03 0.  0.
         24    2    1    2    0    0  0.29634785245E+02  0.12268904785E+02  0.11591303754E+04  0.11625006324E+04  0.82436318643E+02 0.  0.
        -11    1    5    5    0    0  0.45039694452E+01  0.35480468952E+02  0.23211723132E+03  0.23485646360E+03  0.00000000000E+00 0.  1.
         12    1    5    5    0    0  0.25130815800E+02 -0.23211564167E+02  0.92701314412E+03  0.92764416884E+03  0.00000000000E+00 0. -1.
         13    1    3    3    0    0  0.92327598143E+00 -0.23747829801E+02 -0.18341113225E+02  0.30020131465E+02  0.00000000000E+00 0. -1.
        -14    1    3    3    0    0  0.35985191099E+02  0.34806139820E+02 -0.19907909919E+03  0.20527759031E+03  0.00000000000E+00 0.  1.
          5    1    4    4  501    0  0.31535115961E+02 -0.23545385556E+02 -0.20019953895E+02  0.44352222871E+02  0.41800000000E+01 0. -1.
         -5    1    4    4    0  501 -0.98078368287E+02  0.21817075253E+00  0.15111575373E+02  0.99323944921E+02  0.41800000000E+01 0. -1.
</event>
<event>
11    1  0.9238666E-009  0.4027399E+03  0.7561462E-02  0.9641708E-01
         22   -1    0    0    0    0  0.00000000000E+00  0.00000000000E+00  0.32341817977E+03  0.32341817977E+03  0.00000000000E+00 0. -1.
         22   -1    0    0    0    0 -0.00000000000E+00 -0.00000000000E+00 -0.55793802743E+03  0.55793802743E+03  0.00000000000E+00 0.  1.
        -24    2    1    2    0    0  0.17588417599E+03 -0.83013106766E+02 -0.31389340333E+03  0.37792783303E+03  0.80460916432E+02 0.  0.
         25    2    1    2    0    0  0.96760112573E+02  0.45886867002E+02 -0.71576984702E+02  0.17955475300E+03  0.12509404717E+03 0.  0.
         24    2    1    2    0    0 -0.27264428856E+03  0.37126239763E+02  0.15095054036E+03  0.32387362117E+03  0.79967437695E+02 0.  0.
        -11    1    5    5    0    0 -0.11295999479E+03  0.48634465639E+02  0.40933618249E+02  0.12961802642E+03  0.00000000000E+00 0.  1.
         12    1    5    5    0    0 -0.15968429377E+03 -0.11508225875E+02  0.11001692211E+03  0.19425559475E+03  0.00000000000E+00 0. -1.
         13    1    3    3    0    0  0.91456959951E+02 -0.86100477668E+02 -0.17637173090E+03  0.21652864762E+03  0.00000000000E+00 0. -1.
        -14    1    3    3    0    0  0.84427216035E+02  0.30873709018E+01 -0.13752167243E+03  0.16139918542E+03  0.00000000000E+00 0.  1.
          5    1    4    4  501    0  0.24682105527E+02  0.37472065143E+02 -0.93364851336E+02  0.10367174092E+03  0.41800000000E+01 0. -1.
         -5    1    4    4    0  501  0.72078007046E+02  0.84148018592E+01  0.21787866635E+02  0.75883012082E+02  0.41800000000E+01 0. -1.
</event>
<event>
11    1  0.9238666E-009  0.1739282E+03  0.7561462E-02  0.1074663E+00
         22   -1    0    0    0    0  0.00000000000E+00  0.00000000000E+00  0.21734978328E+04  0.21734978328E+04  0.00000000000E+00 0.  1.
         22   -1    0    0    0    0 -0.00000000000E+00 -0.00000000000E+00 -0.36397166312E+03  0.36397166312E+03  0.00000000000E+00 0.  1.
         24    2    1    2    0    0  0.98062582305E+02 -0.16759269192E+02 -0.24867935467E+03  0.28013946808E+03  0.82094804833E+02 0.  0.
         25    2    1    2    0    0 -0.19645636934E+03  0.82754088567E+02  0.60536575750E+02  0.25446982406E+03  0.12508744992E+03 0.  0.
        -24    2    1    2    0    0  0.98393787034E+02 -0.65994819374E+02  0.19976689487E+04  0.20028602038E+04  0.82043367609E+02 0.  0.
        -11    1    3    3    0    0  0.15103313266E+02 -0.60553667278E+01 -0.14955700454E+03  0.15043960631E+03  0.00000000000E+00 0.  1.
         12    1    3    3    0    0  0.82959269039E+02 -0.10703902465E+02 -0.99122350131E+02  0.12969986177E+03  0.00000000000E+00 0. -1.
         13    1    5    5    0    0  0.49148156623E+02  0.10967788548E+02  0.54538749590E+03  0.54770736198E+03  0.00000000000E+00 0. -1.
        -14    1    5    5    0    0  0.49245630411E+02 -0.76962607923E+02  0.14522814528E+04  0.14551528418E+04  0.00000000000E+00 0.  1.
          5    1    4    4  501    0 -0.59773590614E+01  0.52763461049E+02  0.36755895060E+01  0.53391890784E+02  0.41800000000E+01 0. -1.
         -5    1    4    4    0  501 -0.19047901028E+03  0.29990627518E+02  0.56860986244E+02  0.20107793328E+03  0.41800000000E+01 0. -1.
</event>
<event>
11    1  0.9238666E-009  0.1262533E+03  0.7561462E-02  0.1123960E+00
         22   -1    0    0    0    0  0.00000000000E+00  0.00000000000E+00  0.47382392832E+03  0.47382392832E+03  0.00000000000E+00 0.  1.
         22   -1    0    0    0    0 -0.00000000000E+00 -0.00000000000E+00 -0.12766085193E+03  0.12766085193E+03  0.00000000000E+00 0.  1.
        -24    2    1    2    0    0  0.41765992244E+01 -0.19051057703E+02 -0.72649725397E+02  0.10988450877E+03  0.80101410017E+02 0.  0.
         25    2    1    2    0    0  0.80640715061E+01  0.29260318666E+02  0.10194614784E+03  0.16416579286E+03  0.12504477194E+03 0.  0.
         24    2    1    2    0    0 -0.12240670730E+02 -0.10209260962E+02  0.31686665395E+03  0.32743447862E+03  0.80961709302E+02 0.  0.
        -13    1    5    5    0    0 -0.20228851503E+01 -0.41813005851E+02  0.24110101071E+03  0.24470822808E+03  0.00000000000E+00 0.  1.
         14    1    5    5    0    0 -0.10217785580E+02  0.31603744889E+02  0.75765643237E+02  0.82726250539E+02  0.00000000000E+00 0. -1.
         11    1    3    3    0    0 -0.18576109987E+02  0.25887420888E+02 -0.24382815866E+02  0.40121716465E+02  0.00000000000E+00 0. -1.
        -12    1    3    3    0    0  0.22752709211E+02 -0.44938478592E+02 -0.48266909530E+02  0.69762792305E+02  0.00000000000E+00 0.  1.
          5    1    4    4  501    0 -0.81488962129E+01  0.75145545401E+02  0.81444147613E+02  0.11119298127E+03  0.41800000000E+01 0. -1.
         -5    1    4    4    0  501  0.16212967719E+02 -0.45885226735E+02  0.20502000224E+02  0.52972811592E+02  0.41800000000E+01 0. -1.
</event>
<event>
11    1  0.9238666E-009  0.1542633E+03  0.7561462E-02  0.1092600E+00
         22   -1    0    0    0    0  0.00000000000E+00  0.00000000000E+00  0.39349592056E+03  0.39349592056E+03  0.00000000000E+00 0.  1.
         22   -1    0    0    0    0 -0.00000000000E+00 -0.00000000000E+00 -0.16551617813E+04  0.16551617813E+04  0.00000000000E+00 0.  1.
         24    2    1    2    0    0  0.82114812607E+02 -0.23825591947E+02 -0.10927185163E+04  0.10990362606E+04  0.80848283856E+02 0.  0.
         25    2    1    2    0    0 -0.86561154434E+02  0.87951574802E+02 -0.53840206465E+03  0.56635085828E+03  0.12509275955E+03 0.  0.
        -24    2    1    2    0    0  0.44463418277E+01 -0.64125982855E+02  0.36945472027E+03  0.38327058290E+03  0.79168413860E+02 0.  0.
        -13    1    3    3    0    0  0.75869557481E+02  0.60361846411E+01 -0.95256889285E+03  0.95560458397E+03  0.00000000000E+00 0.  1.
         14    1    3    3    0    0  0.62452551257E+01 -0.29861776588E+02 -0.14014962347E+03  0.14343167666E+03  0.00000000000E+00 0. -1.
         13    1    5    5    0    0 -0.18131106969E+02 -0.42500300159E+02  0.82012858724E+02  0.94133530422E+02  0.00000000000E+00 0. -1.
        -14    1    5    5    0    0  0.22577448797E+02 -0.21625682696E+02  0.28744186155E+03  0.28913705248E+03  0.00000000000E+00 0.  1.
          5    1    4    4  501    0 -0.63208719133E+02  0.40322206995E+02 -0.48565787045E+03  0.49142879655E+03  0.41800000000E+01 0.  1.
         -5    1    4    4    0  501 -0.23352435301E+02  0.47629367807E+02 -0.52744194200E+02  0.74922061731E+02  0.41800000000E+01 0.  1.
</event>
<event>
11    1  0.9238666E-009  0.1660568E+03  0.7561462E-02  0.1081515E+00
         22   -1    0    0    0    0  0.00000000000E+00  0.00000000000E+00  0.17934794372E+03  0.17934794372E+03  0.00000000000E+00 0. -1.
         22   -1    0    0    0    0 -0.00000000000E+00 -0.00000000000E+00 -0.12499555036E+04  0.12499555036E+04  0.00000000000E+00 0.  1.
         24    2    1    2    0    0 -0.28734866185E+02  0.31422655000E+02 -0.10973141491E+04  0.11009870793E+04  0.79127310083E+02 0.  0.
         25    2    1    2    0    0 -0.66669252233E+02  0.43370696525E+02 -0.56548361303E+02  0.15865363016E+03  0.12508977051E+03 0.  0.
        -24    2    1    2    0    0  0.95404118419E+02 -0.74793351525E+02  0.83254950515E+02  0.16966273787E+03  0.84605357943E+02 0.  0.
        -13    1    3    3    0    0  0.32912982063E+01  0.29114567805E+02 -0.93861558255E+03  0.93907278871E+03  0.00000000000E+00 0.  1.
         14    1    3    3    0    0 -0.32026164392E+02  0.23080871948E+01 -0.15869856659E+03  0.16191429063E+03  0.00000000000E+00 0. -1.
         13    1    5    5    0    0  0.10854430278E+03 -0.75509400928E+02  0.83709135862E+02  0.15649522268E+03  0.00000000000E+00 0. -1.
        -14    1    5    5    0    0 -0.13140184365E+02  0.71604940368E+00 -0.45418534629E+00  0.13167515188E+02  0.00000000000E+00 0.  1.
          5    1    4    4  501    0 -0.82615471432E-01  0.26109016575E+02  0.35125674079E+02  0.43965588264E+02  0.41800000000E+01 0. -1.
         -5    1    4    4    0  501 -0.66586636762E+02  0.17261679949E+02 -0.91674035383E+02  0.11468804189E+03  0.41800000000E+01 0. -1.
</event>
<event>
11    1  0.9238666E-009  0.6372014E+03  0.7561462E-02  0.9130335E-01
         22   -1    0    0    0    0  0.00000000000E+00  0.00000000000E+00  0.90605429361E+03  0.90605429361E+03  0.00000000000E+00 0.  1.
         22   -1    0    0    0    0 -0.00000000000E+00 -0.00000000000E+00 -0.23202294855E+04  0.23202294855E+04  0.00000000000E+00 0.  1.
         24    2    1    2    0    0  0.30428223611E+03  0.45859241787E+03 -0.11312306566E+04  0.12602355777E+04  0.74941496689E+02 0.  0.
         25    2    1    2    0    0 -0.39617172764E+03 -0.69069450998E+03 -0.95228814506E+03  0.12476023303E+04  0.12509164393E+03 0.  0.
        -24    2    1    2    0    0  0.91889491531E+02  0.23210209211E+03  0.66934360984E+03  0.71844587108E+03  0.76344887308E+02 0.  0.
        -13    1    3    3    0    0  0.26365523226E+03  0.42628194826E+03 -0.10549498101E+04  0.11679681001E+04  0.00000000000E+00 0.  1.
         14    1    3    3    0    0  0.40627003849E+02  0.32310469606E+02 -0.76280846488E+02  0.92267477634E+02  0.00000000000E+00 0. -1.
         13    1    5    5    0    0 -0.91113270692E+01  0.46308598908E+02  0.16354988203E+03  0.17022357806E+03  0.00000000000E+00 0. -1.
        -14    1    5    5    0    0  0.10100081860E+03  0.18579349320E+03  0.50579372781E+03  0.54822229302E+03  0.00000000000E+00 0.  1.
          5    1    4    4  501    0 -0.35523962443E+03 -0.67240851179E+03 -0.88843721034E+03  0.11694727644E+04  0.41800000000E+01 0. -1.
         -5    1    4    4    0  501 -0.40932103217E+02 -0.18285998194E+02 -0.63850934720E+02  0.78129565904E+02  0.41800000000E+01 0. -1.
</event>
<event>
11    1  0.9238666E-009  0.1502315E+03  0.7561462E-02  0.1096642E+00
         22   -1    0    0    0    0  0.00000000000E+00  0.00000000000E+00  0.90205901097E+02  0.90205901097E+02  0.00000000000E+00 0.  1.
         22   -1    0    0    0    0 -0.00000000000E+00 -0.00000000000E+00 -0.96593667900E+03  0.96593667900E+03  0.00000000000E+00 0.  1.
         24    2    1    2    0    0  0.53745865125E+02 -0.58466503598E+02 -0.50923477070E+03  0.52166633795E+03  0.80676926063E+02 0.  0.
         25    2    1    2    0    0 -0.82545668750E+02  0.47092168414E+02 -0.40973217400E+03  0.43881633628E+03  0.12509141786E+03 0.  0.
        -24    2    1    2    0    0  0.28799803625E+02  0.11374335184E+02  0.43236166804E+02  0.95659905858E+02  0.79515075798E+02 0.  0.
        -11    1    3    3    0    0  0.46061695532E+02 -0.73167821926E+02 -0.48263435369E+03  0.49031737612E+03  0.00000000000E+00 0.  1.
         12    1    3    3    0    0  0.76841695922E+01  0.14701318328E+02 -0.26600417015E+02  0.31348961837E+02  0.00000000000E+00 0. -1.
         11    1    5    5    0    0 -0.16549654598E+02  0.25054969641E+02 -0.20890504325E+01  0.30099945228E+02  0.00000000000E+00 0. -1.
        -12    1    5    5    0    0  0.45349458223E+02 -0.13680634457E+02  0.45325217236E+02  0.65559960630E+02  0.00000000000E+00 0.  1.
          5    1    4    4  501    0  0.10101342182E+02 -0.32027553614E+02 -0.11477519715E+03  0.11966043450E+03  0.41800000000E+01 0.  1.
         -5    1    4    4    0  501 -0.92647010931E+02  0.79119722028E+02 -0.29495697685E+03  0.31915590178E+03  0.41800000000E+01 0.  1.
</event>
<event>
11    1  0.9238666E-009  0.1275884E+03  0.7561462E-02  0.1122268E+00
         22   -1    0    0    0    0  0.00000000000E+00  0.00000000000E+00  0.67467720207E+03  0.67467720207E+03  0.00000000000E+00 0. -1.
         22   -1    0    0    0    0 -0.00000000000E+00 -0.00000000000E+00 -0.16148872021E+03  0.16148872021E+03  0.00000000000E+00 0.  1.
        -24    2    1    2    0    0 -0.21578550425E+02 -0.16305268726E+02 -0.10382535396E+03  0.13854976870E+03  0.87663211535E+02 0.  0.
         25    2    1    2    0    0  0.18125556684E+02 -0.28852476648E+01  0.70936938620E+02  0.14496986132E+03  0.12508937194E+03 0.  0.
         24    2    1    2    0    0  0.34529937411E+01  0.19190516391E+02  0.54607689720E+03  0.55264629225E+03  0.82690674220E+02 0.  0.
        -11    1    5    5    0    0 -0.13966576396E+02 -0.12141189017E+02  0.29481217026E+02  0.34808273216E+02  0.00000000000E+00 0.  1.
         12    1    5    5    0    0  0.17419570137E+02  0.31331705408E+02  0.51659568017E+03  0.51783801904E+03  0.00000000000E+00 0. -1.
         13    1    3    3    0    0 -0.50271422642E+01  0.69340170142E+01  0.14496057949E+02  0.16837115173E+02  0.00000000000E+00 0. -1.
        -14    1    3    3    0    0 -0.16551408161E+02 -0.23239285740E+02 -0.11832141190E+03  0.12171265353E+03  0.00000000000E+00 0.  1.
          5    1    4    4  501    0  0.33125204923E+02  0.17321039176E+02  0.99679215042E+02  0.10653973865E+03  0.41800000000E+01 0.  1.
         -5    1    4    4    0  501 -0.14999648239E+02 -0.20206286841E+02 -0.28742276422E+02  0.38430122679E+02  0.41800000000E+01 0.  1.
</event>
<event>
11    1  0.9238666E-009  0.1864560E+03  0.7561462E-02  0.1064537E+00
         22   -1    0    0    0    0  0.00000000000E+00  0.00000000000E+00  0.99315440575E+02  0.99315440575E+02  0.00000000000E+00 0. -1.
         22   -1    0    0    0    0 -0.00000000000E+00 -0.00000000000E+00 -0.65540385969E+03  0.65540385969E+03  0.00000000000E+00 0.  1.
        -24    2    1    2    0    0 -0.66811374014E+01  0.10353861550E+02 -0.26991263032E+03  0.27854568045E+03  0.67698065300E+02 0.  0.
         25    2    1    2    0    0  0.11571834350E+03  0.75108732468E+02 -0.24533678522E+03  0.30800876722E+03  0.12508879161E+03 0.  0.
         24    2    1    2    0    0 -0.10903720610E+03 -0.85462594018E+02 -0.40839003569E+02  0.16816485259E+03  0.86131446887E+02 0.  0.
        -11    1    5    5    0    0 -0.80661360800E+01 -0.57697833684E+02 -0.18097387701E+02  0.61005065402E+02  0.00000000000E+00 0.  1.
         12    1    5    5    0    0 -0.10097107002E+03 -0.27764760335E+02 -0.22741615867E+02  0.10715978719E+03  0.00000000000E+00 0. -1.
         11    1    3    3    0    0 -0.53995154338E+01 -0.47260389561E+01  0.96970804437E+00  0.72408939245E+01  0.00000000000E+00 0. -1.
        -12    1    3    3    0    0 -0.12816219676E+01  0.15079900506E+02 -0.27088233836E+03  0.27130478653E+03  0.00000000000E+00 0.  1.
          5    1    4    4  501    0  0.87894157533E+02  0.11024849188E+03 -0.18061151516E+03  0.22916828903E+03  0.41800000000E+01 0. -1.
         -5    1    4    4    0  501  0.27824185968E+02 -0.35139759413E+02 -0.64725270062E+02  0.78840478189E+02  0.41800000000E+01 0. -1.
</event>
<event>
11    1  0.9238666E-009  0.1909746E+03  0.7561462E-02  0.1061096E+00
         22   -1    0    0    0    0  0.00000000000E+00  0.00000000000E+00  0.12007558615E+04  0.12007558615E+04  0.00000000000E+00 0.  1.
         22   -1    0    0    0    0 -0.00000000000E+00 -0.00000000000E+00 -0.41639433333E+03  0.41639433333E+03  0.00000000000E+00 0. -1.
         24    2    1    2    0    0  0.12228012802E+03 -0.78813689946E+02 -0.38187869993E+03  0.41539109262E+03  0.74527786322E+02 0.  0.
         25    2    1    2    0    0 -0.11689085965E+03  0.13937729873E+02  0.53043967659E+03  0.55755936127E+03  0.12509379464E+03 0.  0.
        -24    2    1    2    0    0 -0.53892683687E+01  0.64875960072E+02  0.63580055153E+03  0.64419974096E+03  0.80703348841E+02 0.  0.
        -13    1    3    3    0    0  0.25999529122E+01 -0.28033921401E+02 -0.34801337143E+02  0.44763752872E+02  0.00000000000E+00 0.  1.
         14    1    3    3    0    0  0.11968017511E+03 -0.50779768545E+02 -0.34707736279E+03  0.37062733975E+03  0.00000000000E+00 0. -1.
         13    1    5    5    0    0 -0.31358523092E+02  0.32402964886E+02  0.15021014993E+03  0.15683238902E+03  0.00000000000E+00 0. -1.
        -14    1    5    5    0    0  0.25969254723E+02  0.32472995187E+02  0.48559040160E+03  0.48736735194E+03  0.00000000000E+00 0.  1.
          5    1    4    4  501    0 -0.31748673951E+01  0.30176941909E+02  0.28381832517E+03  0.28546635828E+03  0.41800000000E+01 0.  1.
         -5    1    4    4    0  501 -0.11371599226E+03 -0.16239212035E+02  0.24662135142E+03  0.27209300299E+03  0.41800000000E+01 0.  1.
</event>
<event>
11    1  0.9238666E-009  0.1339826E+03  0.7561462E-02  0.1114470E+00
         22   -1    0    0    0    0  0.00000000000E+00  0.00000000000E+00  0.49781072236E+02  0.49781072236E+02  0.00000000000E+00 0. -1.
         22   -1    0    0    0    0 -0.00000000000E+00 -0.00000000000E+00 -0.14610490501E+04  0.14610490501E+04  0.00000000000E+00 0. -1.
        -24    2    1    2    0    0 -0.24901159914E+02  0.46824405869E+02 -0.11479430113E+04  0.11519800546E+04  0.80450582152E+02 0.  0.
         25    2    1    2    0    0 -0.27267394131E+01 -0.10147391675E+02 -0.22796793733E+03  0.26024463052E+03  0.12508989807E+03 0.  0.
         24    2    1    2    0    0  0.27627899327E+02 -0.36677014193E+02 -0.35357029253E+02  0.98605437270E+02  0.79777243311E+02 0.  0.
        -13    1    5    5    0    0  0.27589027448E+02 -0.37919938658E+02 -0.58754891444E+02  0.75174553221E+02  0.00000000000E+00 0.  1.
         14    1    5    5    0    0  0.38871879021E-01  0.12429244650E+01  0.23397862191E+02  0.23430884050E+02  0.00000000000E+00 0. -1.
         13    1    3    3    0    0  0.26863562230E+02  0.34139744687E+01 -0.43550436610E+03  0.43634545843E+03  0.00000000000E+00 0. -1.
        -14    1    3    3    0    0 -0.51764722145E+02  0.43410431400E+02 -0.71243864522E+03  0.71563459615E+03  0.00000000000E+00 0.  1.
          5    1    4    4  501    0  0.10685985226E+02  0.51545090365E+02 -0.15455974316E+03  0.16333178879E+03  0.41800000000E+01 0.  1.
         -5    1    4    4    0  501 -0.13412724639E+02 -0.61692482041E+02 -0.73408194166E+02  0.96912841736E+02  0.41800000000E+01 0.  1.
</event>
<event>
11    1  0.9238666E-009  0.2524908E+03  0.7561462E-02  0.1022581E+00
         22   -1    0    0    0    0  0.00000000000E+00  0.00000000000E+00  0.74979521605E+03  0.74979521605E+03  0.00000000000E+00 0.  1.
         22   -1    0    0    0    0 -0.00000000000E+00 -0.00000000000E+00 -0.82172076968E+03  0.82172076968E+03  0.00000000000E+00 0.  1.
        -24    2    1    2    0    0  0.11167944635E+03 -0.18360034017E+03 -0.36065010927E+03  0.42807276400E+03  0.83644523514E+02 0.  0.
         25    2    1    2    0    0 -0.14648750563E+03  0.17207958537E+03 -0.38524445507E+03  0.46382113319E+03  0.12508709136E+03 0.  0.
         24    2    1    2    0    0  0.34808059282E+02  0.11520754799E+02  0.67396901070E+03  0.67962208854E+03  0.79420570788E+02 0.  0.
        -11    1    5    5    0    0  0.18355569029E+02 -0.32481298029E+02  0.39145871007E+03  0.39323260715E+03  0.00000000000E+00 0.  1.
         12    1    5    5    0    0  0.16452490253E+02  0.44002052828E+02  0.28251030063E+03  0.28638948139E+03  0.00000000000E+00 0. -1.
         11    1    3    3    0    0  0.91797955051E+01  0.83476496602E+01 -0.27291091678E+02  0.29979252581E+02  0.00000000000E+00 0. -1.
        -12    1    3    3    0    0  0.10249965084E+03 -0.19194798983E+03 -0.33335901759E+03  0.39809351142E+03  0.00000000000E+00 0.  1.
          5    1    4    4  501    0 -0.12558582374E+02  0.82400743376E+02 -0.20849749231E+03  0.22458022441E+03  0.41800000000E+01 0. -1.
         -5    1    4    4    0  501 -0.13392892325E+03  0.89678841993E+02 -0.17674696277E+03  0.23924090878E+03  0.41800000000E+01 0. -1.
</event>
<event>
11    1  0.9238666E-009  0.2247395E+03  0.7561462E-02  0.1038288E+00
         22   -1    0    0    0    0  0.00000000000E+00  0.00000000000E+00  0.17390236620E+04  0.17390236620E+04  0.00000000000E+00 0. -1.
         22   -1    0    0    0    0 -0.00000000000E+00 -0.00000000000E+00 -0.57004743880E+02  0.57004743880E+02  0.00000000000E+00 0.  1.
         24    2    1    2    0    0  0.50511538378E+02 -0.11981505543E+03  0.24891410232E+03  0.29343462412E+03  0.85079875913E+02 0.  0.
         25    2    1    2    0    0 -0.47798336141E+02 -0.13071700678E+03  0.54007560444E+03  0.57157913703E+03  0.12509770017E+03 0.  0.
        -24    2    1    2    0    0 -0.27132022377E+01  0.25053206220E+03  0.89302921135E+03  0.93101464470E+03  0.80705766051E+02 0.  0.
        -11    1    3    3    0    0 -0.15245899392E+01 -0.99400337830E+02  0.15479350841E+03  0.18396679532E+03  0.00000000000E+00 0.  1.
         12    1    3    3    0    0  0.52036128318E+02 -0.20414717596E+02  0.94120593904E+02  0.10946782880E+03  0.00000000000E+00 0. -1.
         13    1    5    5    0    0  0.38811962224E+02  0.13122611798E+03  0.47369496228E+03  0.49306549234E+03  0.00000000000E+00 0. -1.
        -14    1    5    5    0    0 -0.41525164461E+02  0.11930594423E+03  0.41933424907E+03  0.43794915236E+03  0.00000000000E+00 0.  1.
          5    1    4    4  501    0 -0.92423791292E+01  0.24389421746E+02  0.97310011887E+02  0.10083142505E+03  0.41800000000E+01 0.  1.
         -5    1    4    4    0  501 -0.38555957011E+02 -0.15510642852E+03  0.44276559255E+03  0.47074771198E+03  0.41800000000E+01 0.  1.
</event>
<event>
11    1  0.9238666E-009  0.1754680E+03  0.7561462E-02  0.1073369E+00
         22   -1    0    0    0    0  0.00000000000E+00  0.00000000000E+00  0.22186924069E+04  0.22186924069E+04  0.00000000000E+00 0. -1.
         22   -1    0    0    0    0 -0.00000000000E+00 -0.00000000000E+00 -0.23673437014E+03  0.23673437014E+03  0.00000000000E+00 0. -1.
        -24    2    1    2    0    0 -0.12471319811E+03  0.81703379186E+01 -0.20074141987E+03  0.25029691895E+03  0.82044462223E+02 0.  0.
         25    2    1    2    0    0  0.78548398245E+02 -0.14862338323E+02  0.55014299985E+03  0.56982129280E+03  0.12509294734E+03 0.  0.
         24    2    1    2    0    0  0.46164799863E+02  0.66920004044E+01  0.16325564568E+04  0.16353085653E+04  0.82568441249E+02 0.  0.
        -13    1    5    5    0    0 -0.18474623693E+02  0.20486255957E+02  0.60501285291E+03  0.60564143732E+03  0.00000000000E+00 0.  1.
         14    1    5    5    0    0  0.64639423556E+02 -0.13794255553E+02  0.10275436038E+04  0.10296671279E+04  0.00000000000E+00 0. -1.
         13    1    3    3    0    0 -0.52073425039E+02  0.42125911859E+02 -0.69673515807E+02  0.96646949513E+02  0.00000000000E+00 0. -1.
        -14    1    3    3    0    0 -0.72639773070E+02 -0.33955573940E+02 -0.13106790406E+03  0.15364996944E+03  0.00000000000E+00 0.  1.
          5    1    4    4  501    0 -0.96760571116E+01  0.39921590755E+02  0.21512610304E+03  0.21905266969E+03  0.41800000000E+01 0. -1.
         -5    1    4    4    0  501  0.88224455357E+02 -0.54783929078E+02  0.33501689681E+03  0.35076862311E+03  0.41800000000E+01 0. -1.
</event>
<event>
11    1  0.9238666E-009  0.1335457E+03  0.7561462E-02  0.1114988E+00
         22   -1    0    0    0    0  0.00000000000E+00  0.00000000000E+00  0.62284833860E+02  0.62284833860E+02  0.00000000000E+00 0.  1.
         22   -1    0    0    0    0 -0.00000000000E+00 -0.00000000000E+00 -0.84881534749E+03  0.84881534749E+03  0.00000000000E+00 0.  1.
         24    2    1    2    0    0 -0.31805413534E+02  0.23186893692E+02 -0.59422513437E+03  0.60088366844E+03  0.80052834514E+02 0.  0.
         25    2    1    2    0    0  0.31214198771E+02  0.28667299798E+02 -0.16734736987E+03  0.21318562189E+03  0.12508727712E+03 0.  0.
        -24    2    1    2    0    0  0.59121476212E+00 -0.51854193489E+02 -0.24958009385E+02  0.97030891011E+02  0.78120961724E+02 0.  0.
        -13    1    3    3    0    0 -0.19724239399E+02  0.17809855620E+02 -0.58280682701E+03  0.58341240490E+03  0.00000000000E+00 0.  1.
         14    1    3    3    0    0 -0.12081174134E+02  0.53770380721E+01 -0.11418307358E+02  0.17471263544E+02  0.00000000000E+00 0. -1.
         13    1    5    5    0    0  0.30396617764E+02 -0.36201311825E+02 -0.38278848951E+02  0.60825649412E+02  0.00000000000E+00 0. -1.
        -14    1    5    5    0    0 -0.29805403002E+02 -0.15652881665E+02  0.13320839566E+02  0.36205241599E+02  0.00000000000E+00 0.  1.
          5    1    4    4  501    0  0.36513604010E+02  0.29039961178E+02 -0.11539048996E+01  0.46854738496E+02  0.41800000000E+01 0.  1.
         -5    1    4    4    0  501 -0.52994052387E+01 -0.37266138069E+00 -0.16619346497E+03  0.16633088340E+03  0.41800000000E+01 0.  1.
</event>
<event>
11    1  0.9238666E-009  0.1727880E+03  0.7561462E-02  0.1075631E+00
         22   -1    0    0    0    0  0.00000000000E+00  0.00000000000E+00  0.73862476894E+03  0.73862476894E+03  0.00000000000E+00 0.  1.
         22   -1    0    0    0    0 -0.00000000000E+00 -0.00000000000E+00 -0.11741702695E+03  0.11741702695E+03  0.00000000000E+00 0.  1.
         24    2    1    2    0    0  0.49589324975E+02  0.70525697431E+02  0.36656882908E+02  0.12254329683E+03  0.78994666807E+02 0.  0.
         25    2    1    2    0    0 -0.11811784962E+03 -0.15355287459E+03  0.14169977790E+03  0.27066229362E+03  0.12509571710E+03 0.  0.
        -24    2    1    2    0    0  0.68528524649E+02  0.83027177161E+02  0.44285108118E+03  0.46283620545E+03  0.80688302313E+02 0.  0.
        -13    1    3    3    0    0  0.67237879708E+02  0.72761414541E+02  0.29525327697E+02  0.10337746800E+03  0.00000000000E+00 0.  1.
         14    1    3    3    0    0 -0.17648554733E+02 -0.22357171103E+01  0.71315552106E+01  0.19165828834E+02  0.00000000000E+00 0. -1.
         13    1    5    5    0    0  0.29107852548E+02  0.88227266806E+02  0.27234844133E+03  0.28775856405E+03  0.00000000000E+00 0. -1.
        -14    1    5    5    0    0  0.39420672101E+02 -0.52000896448E+01  0.17050263985E+03  0.17507764140E+03  0.00000000000E+00 0.  1.
          5    1    4    4  501    0 -0.12610734354E+03 -0.80028997859E+02  0.61755463294E+02  0.16167532972E+03  0.41800000000E+01 0. -1.
         -5    1    4    4    0  501  0.79894939148E+01 -0.73523876733E+02  0.79944314606E+02  0.10898696390E+03  0.41800000000E+01 0. -1.
</event>
<event>
11    1  0.9238666E-009  0.1380139E+03  0.7561462E-02  0.1109797E+00
         22   -1    0    0    0    0  0.00000000000E+00  0.00000000000E+00  0.39811548186E+03  0.39811548186E+03  0.00000000000E+00 0.  1.
         22   -1    0    0    0    0 -0.00000000000E+00 -0.00000000000E+00 -0.14523666645E+04  0.14523666645E+04  0.00000000000E+00 0.  1.
         24    2    1    2    0    0 -0.95730582582E+01 -0.34937551795E+02 -0.13879630248E+04  0.13907195173E+04  0.79668949503E+02 0.  0.
         25    2    1    2    0    0 -0.32858918065E+01  0.87717586753E+02  0.50946228182E+02  0.16106334960E+03  0.12506283344E+03 0.  0.
        -24    2    1    2    0    0  0.12858950065E+02 -0.52780034958E+02  0.28276561398E+03  0.29869927950E+03  0.79459313086E+02 0.  0.
        -11    1    3    3    0    0 -0.27040763942E+02  0.63097937023E+01 -0.96339713580E+03  0.96379720776E+03  0.00000000000E+00 0.  1.
         12    1    3    3    0    0  0.17467705684E+02 -0.41247345498E+02 -0.42456588904E+03  0.42692230954E+03  0.00000000000E+00 0. -1.
         11    1    5    5    0    0  0.10090507351E+02 -0.12103740326E+02  0.30782766081E+01  0.16055985032E+02  0.00000000000E+00 0. -1.
        -12    1    5    5    0    0  0.27684427134E+01 -0.40676294632E+02  0.27968733737E+03  0.28264329447E+03  0.00000000000E+00 0.  1.
          5    1    4    4  501    0 -0.42381005081E+02 -0.12791521213E+02  0.20228894391E+02  0.48851337493E+02  0.41800000000E+01 0. -1.
         -5    1    4    4    0  501  0.39095113274E+02  0.10050910797E+03  0.30717333792E+02  0.11221201211E+03  0.41800000000E+01 0. -1.
</event>
<event>
11    1  0.9238666E-009  0.1302872E+03  0.7561462E-02  0.1118917E+00
         22   -1    0    0    0    0  0.00000000000E+00  0.00000000000E+00  0.20963120252E+03  0.20963120252E+03  0.00000000000E+00 0.  1.
         22   -1    0    0    0    0 -0.00000000000E+00 -0.00000000000E+00 -0.22897605363E+03  0.22897605363E+03  0.00000000000E+00 0.  1.
         24    2    1    2    0    0  0.33314038364E+02  0.28371521651E+02 -0.91823338547E+02  0.12987595431E+03  0.80755616609E+02 0.  0.
         25    2    1    2    0    0 -0.34155526977E+02 -0.60523773433E+02 -0.51564145050E+02  0.15209532050E+03  0.12507756910E+03 0.  0.
        -24    2    1    2    0    0  0.84148861328E+00  0.32152251782E+02  0.12404263248E+03  0.15663598134E+03  0.90076526236E+02 0.  0.
        -11    1    3    3    0    0  0.34510722496E+02  0.22089458866E+02 -0.10636814365E+03  0.11398735081E+03  0.00000000000E+00 0.  1.
         12    1    3    3    0    0 -0.11966841316E+01  0.62820627853E+01  0.14544805106E+02  0.15888603504E+02  0.00000000000E+00 0. -1.
         11    1    5    5    0    0  0.96792686341E+01  0.12138136487E+02 -0.11511803199E+02  0.19327291884E+02  0.00000000000E+00 0. -1.
        -12    1    5    5    0    0 -0.88377800208E+01  0.20014115295E+02  0.13555443568E+03  0.13730868946E+03  0.00000000000E+00 0.  1.
          5    1    4    4  501    0 -0.94988715262E+01 -0.28607339635E+02  0.40988536481E+02  0.51050376728E+02  0.41800000000E+01 0.  1.
         -5    1    4    4    0  501 -0.24656655451E+02 -0.31916433798E+02 -0.92552681530E+02  0.10104494378E+03  0.41800000000E+01 0.  1.
</event>
<event>
11    1  0.9238666E-009  0.1354870E+03  0.7561462E-02  0.1112705E+00
         22   -1    0    0    0    0  0.00000000000E+00  0.00000000000E+00  0.50863836323E+03  0.50863836323E+03  0.00000000000E+00 0. -1.
         22   -1    0    0    0    0 -0.00000000000E+00 -0.00000000000E+00 -0.22344054222E+03  0.22344054222E+03  0.00000000000E+00 0. -1.
        -24    2    1    2    0    0 -0.37913164633E+02 -0.10798843887E+02 -0.12209227236E+03  0.15232669511E+03  0.82115016849E+02 0.  0.
         25    2    1    2    0    0  0.47837268531E+02 -0.40459262587E+02 -0.20251901117E+02  0.14135950421E+03  0.12508802397E+03 0.  0.
         24    2    1    2    0    0 -0.99241038986E+01  0.51258106473E+02  0.42754199449E+03  0.43839270613E+03  0.81670841920E+02 0.  0.
        -13    1    5    5    0    0  0.21511329985E+02  0.53169500166E+02  0.18159638043E+03  0.19043891003E+03  0.00000000000E+00 0.  1.
         14    1    5    5    0    0 -0.31435433884E+02 -0.19113936930E+01  0.24594561406E+03  0.24795379611E+03  0.00000000000E+00 0. -1.
         11    1    3    3    0    0 -0.21889444648E+02 -0.43971088884E+02 -0.93779733601E+02  0.10586426630E+03  0.00000000000E+00 0. -1.
        -12    1    3    3    0    0 -0.16023719984E+02  0.33172244997E+02 -0.28312538759E+02  0.46462428814E+02  0.00000000000E+00 0.  1.
          5    1    4    4  501    0  0.15929508297E+02  0.28558369899E+02  0.34385030752E+02  0.47635411888E+02  0.41800000000E+01 0.  1.
         -5    1    4    4    0  501  0.31907760234E+02 -0.69017632486E+02 -0.54636931869E+02  0.93724092320E+02  0.41800000000E+01 0.  1.
</event>
<event>
11    1  0.9238666E-009  0.1377856E+03  0.7561462E-02  0.1110057E+00
         22   -1    0    0    0    0  0.00000000000E+00  0.00000000000E+00  0.23224011150E+03  0.23224011150E+03  0.00000000000E+00 0.  1.
         22   -1    0    0    0    0 -0.00000000000E+00 -0.00000000000E+00 -0.82220066281E+03  0.82220066281E+03  0.00000000000E+00 0.  1.
        -24    2    1    2    0    0  0.42716107924E+02 -0.43127824367E+02 -0.65347753827E+03  0.66131932084E+03  0.81398255355E+02 0.  0.
         25    2    1    2    0    0 -0.46295725008E+02  0.39745044639E+01 -0.12630029043E+03  0.18373273346E+03  0.12508742200E+03 0.  0.
         24    2    1    2    0    0  0.35796170838E+01  0.39153319904E+02  0.18981727739E+03  0.20938872001E+03  0.79165909062E+02 0.  0.
        -13    1    5    5    0    0 -0.10862436457E+02  0.60688574788E+02  0.14584048581E+03  0.15833680222E+03  0.00000000000E+00 0.  1.
         14    1    5    5    0    0  0.14442053541E+02 -0.21535254884E+02  0.43976791575E+02  0.51051917796E+02  0.00000000000E+00 0. -1.
         13    1    3    3    0    0 -0.19537397146E+02 -0.27339706561E+02 -0.14733820425E+03  0.15112152684E+03  0.00000000000E+00 0. -1.
        -14    1    3    3    0    0  0.62253505071E+02 -0.15788117807E+02 -0.50613933402E+03  0.51019779399E+03  0.00000000000E+00 0.  1.
          5    1    4    4  501    0 -0.38115426174E+02  0.45477433921E+02 -0.10535733215E+02  0.60410734004E+02  0.41800000000E+01 0. -1.
         -5    1    4    4    0  501 -0.81802988337E+01 -0.41502929458E+02 -0.11576455721E+03  0.12332199945E+03  0.41800000000E+01 0. -1.
</event>
<event>
11    1  0.9238666E-009  0.2001822E+03  0.7561462E-02  0.1054395E+00
         22   -1    0    0    0    0  0.00000000000E+00  0.00000000000E+00  0.16063964507E+04  0.16063964507E+04  0.00000000000E+00 0. -1.
         22   -1    0    0    0    0 -0.00000000000E+00 -0.00000000000E+00 -0.50388399860E+03  0.50388399860E+03  0.00000000000E+00 0.  1.
        -24    2    1    2    0    0 -0.76462613257E+02  0.82185450980E+02 -0.43397101237E+03  0.45528336383E+03  0.79693928398E+02 0.  0.
         25    2    1    2    0    0  0.86928938394E+02  0.80942945446E+02  0.85211902269E+02  0.19239752758E+03  0.12508932642E+03 0.  0.
         24    2    1    2    0    0 -0.10466325137E+02 -0.16312839643E+03  0.14512715622E+04  0.14625995579E+04  0.79296291242E+02 0.  0.
        -11    1    5    5    0    0  0.33697141440E+02 -0.50852636935E+02  0.49970677174E+03  0.50341667210E+03  0.00000000000E+00 0.  1.
         12    1    5    5    0    0 -0.44163466578E+02 -0.11227575949E+03  0.95156479047E+03  0.95918288580E+03  0.00000000000E+00 0. -1.
         11    1    3    3    0    0  0.16761262111E+02  0.17259754229E+02 -0.76956007562E+02  0.80629189029E+02  0.00000000000E+00 0. -1.
        -12    1    3    3    0    0 -0.93223875368E+02  0.64925696751E+02 -0.35701500481E+03  0.37465417480E+03  0.00000000000E+00 0.  1.
          5    1    4    4  501    0 -0.15507140052E+02  0.55153565683E+02  0.61304809365E+02  0.84012732675E+02  0.41800000000E+01 0.  1.
         -5    1    4    4    0  501  0.10243607845E+03  0.25789379762E+02  0.23907092904E+02  0.10838479491E+03  0.41800000000E+01 0.  1.
</event>
<event>
11    1  0.9238666E-009  0.1333024E+03  0.7561462E-02  0.1115277E+00
         22   -1    0    0    0    0  0.00000000000E+00  0.00000000000E+00  0.82208984511E+03  0.82208984511E+03  0.00000000000E+00 0.  1.
         22   -1    0    0    0    0 -0.00000000000E+00 -0.00000000000E+00 -0.10145510278E+03  0.10145510278E+03  0.00000000000E+00 0.  1.
        -24    2    1    2    0    0  0.71215528306E+01  0.59390645047E+01 -0.29719022838E+02  0.87365252185E+02  0.81630129052E+02 0.  0.
         25    2    1    2    0    0 -0.74672207398E+01  0.40525969295E+02  0.69006252801E+02  0.14869123321E+03  0.12509638818E+03 0.  0.
         24    2    1    2    0    0  0.34566790919E+00 -0.46465033800E+02  0.68134751236E+03  0.68748846249E+03  0.79036919259E+02 0.  0.
        -13    1    5    5    0    0 -0.34872388276E+02 -0.27988090913E+02  0.49092217285E+03  0.49295435539E+03  0.00000000000E+00 0.  1.
         14    1    5    5    0    0  0.35218056185E+02 -0.18476942886E+02  0.19042533951E+03  0.19453410711E+03  0.00000000000E+00 0. -1.
         13    1    3    3    0    0 -0.96263594675E+01  0.31496842280E+01  0.26642018628E+02  0.28502358918E+02  0.00000000000E+00 0. -1.
        -14    1    3    3    0    0  0.16747912298E+02  0.27893802767E+01 -0.56361041466E+02  0.58862893267E+02  0.00000000000E+00 0.  1.
          5    1    4    4  501    0 -0.49164731172E+02 -0.14237398243E+02  0.31158889334E+00  0.51356049182E+02  0.41800000000E+01 0. -1.
         -5    1    4    4    0  501  0.41697510433E+02  0.54763367538E+02  0.68694663908E+02  0.97335184028E+02  0.41800000000E+01 0. -1.
</event>
<event>
11    1  0.9238666E-009  0.1414746E+03  0.7561462E-02  0.1105923E+00
         22   -1    0    0    0    0  0.00000000000E+00  0.00000000000E+00  0.26789565171E+04  0.26789565171E+04  0.00000000000E+00 0. -1.
         22   -1    0    0    0    0 -0.00000000000E+00 -0.00000000000E+00 -0.12150719934E+03  0.12150719934E+03  0.00000000000E+00 0.  1.
         24    2    1    2    0    0  0.66069812170E+02 -0.25400489364E+02 -0.81032452675E+02  0.13431384803E+03  0.80396184269E+02 0.  0.
         25    2    1    2    0    0 -0.47981520624E+02  0.87936897455E+02  0.50314514054E+03  0.52805189907E+03  0.12509456988E+03 0.  0.
        -24    2    1    2    0    0 -0.18088291546E+02 -0.62536408091E+02  0.21353366299E+04  0.21380979693E+04  0.86962146398E+02 0.  0.
        -11    1    3    3    0    0  0.21679285339E+02 -0.50541232971E+02 -0.51626839635E+02  0.75430353398E+02  0.00000000000E+00 0.  1.
         12    1    3    3    0    0  0.44390526830E+02  0.25140743607E+02 -0.29405613040E+02  0.58883494628E+02  0.00000000000E+00 0. -1.
         13    1    5    5    0    0 -0.55761965962E+01 -0.73591516265E+02  0.20382807219E+04  0.20396164117E+04  0.00000000000E+00 0. -1.
        -14    1    5    5    0    0 -0.12512094949E+02  0.11055108174E+02  0.97055907953E+02  0.98481557692E+02  0.00000000000E+00 0.  1.
          5    1    4    4  501    0  0.61578068555E+01  0.83816034594E+02  0.42213315717E+03  0.43043805712E+03  0.41800000000E+01 0. -1.
         -5    1    4    4    0  501 -0.54139327479E+02  0.41208628612E+01  0.81011983371E+02  0.97613841951E+02  0.41800000000E+01 0. -1.
</event>
<event>
11    1  0.9238666E-009  0.1512704E+03  0.7561462E-02  0.1095588E+00
         22   -1    0    0    0    0  0.00000000000E+00  0.00000000000E+00  0.22589741209E+04  0.22589741209E+04  0.00000000000E+00 0. -1.
         22   -1    0    0    0    0 -0.00000000000E+00 -0.00000000000E+00 -0.24883905856E+02  0.24883905856E+02  0.00000000000E+00 0.  1.
        -24    2    1    2    0    0  0.40457851472E+01  0.89362261933E+02  0.17976511842E+03  0.21366608230E+03  0.73045976530E+02 0.  0.
         25    2    1    2    0    0 -0.43169067659E+02 -0.61896418844E+02  0.86922197842E+03  0.88141254251E+03  0.12508591953E+03 0.  0.
         24    2    1    2    0    0  0.39123282511E+02 -0.27465843090E+02  0.11851031182E+04  0.11887794020E+04  0.80262456631E+02 0.  0.
        -11    1    5    5    0    0 -0.19489348056E+02  0.35921433385E+01  0.51980652004E+03  0.52018415629E+03  0.00000000000E+00 0.  1.
         12    1    5    5    0    0  0.58612630567E+02 -0.31057986428E+02  0.66529659818E+03  0.66859524567E+03  0.00000000000E+00 0. -1.
         11    1    3    3    0    0  0.71207870100E+01  0.94774212833E+01  0.10011994586E+03  0.10081929716E+03  0.00000000000E+00 0. -1.
        -12    1    3    3    0    0 -0.30750018628E+01  0.79884840650E+02  0.79645172564E+02  0.11284678513E+03  0.00000000000E+00 0.  1.
          5    1    4    4  501    0 -0.45091421704E+02 -0.98583243235E+02  0.68197443507E+03  0.69054941506E+03  0.41800000000E+01 0.  1.
         -5    1    4    4    0  501  0.19223540457E+01  0.36686824391E+02  0.18724754335E+03  0.19086312745E+03  0.41800000000E+01 0.  1.
</event>
<event>
11    1  0.9238666E-009  0.2850697E+03  0.7561462E-02  0.1006716E+00
         22   -1    0    0    0    0  0.00000000000E+00  0.00000000000E+00  0.14578403352E+04  0.14578403352E+04  0.00000000000E+00 0. -1.
         22   -1    0    0    0    0 -0.00000000000E+00 -0.00000000000E+00 -0.98217617899E+03  0.98217617899E+03  0.00000000000E+00 0.  1.
        -24    2    1    2    0    0  0.17053074213E+03 -0.20582757664E+03 -0.74426870361E+03  0.79492399550E+03  0.80762182521E+02 0.  0.
         25    2    1    2    0    0 -0.16948403768E+03  0.14676850730E+03 -0.13259555321E+03  0.28895318243E+03  0.12508607893E+03 0.  0.
         24    2    1    2    0    0 -0.10467044468E+01  0.59059069341E+02  0.13525284131E+04  0.13561393363E+04  0.79320375967E+02 0.  0.
        -13    1    5    5    0    0  0.12666079224E+02  0.66606231812E+02  0.66798477421E+03  0.67141676942E+03  0.00000000000E+00 0.  1.
         14    1    5    5    0    0 -0.13712783670E+02 -0.75471624712E+01  0.68454363885E+03  0.68472256688E+03  0.00000000000E+00 0. -1.
         13    1    3    3    0    0 -0.38364212656E+01  0.44715921582E+01 -0.19891943665E+02  0.20746148735E+02  0.00000000000E+00 0. -1.
        -14    1    3    3    0    0  0.17436716339E+03 -0.21029916879E+03 -0.72437675995E+03  0.77417784676E+03  0.00000000000E+00 0.  1.
          5    1    4    4  501    0 -0.10455748733E+03  0.41670127811E+02 -0.71771064662E+01  0.11286120222E+03  0.41800000000E+01 0. -1.
         -5    1    4    4    0  501 -0.64926550350E+02  0.10509837948E+03 -0.12541844674E+03  0.17609198021E+03  0.41800000000E+01 0. -1.
</event>
<event>
11    1  0.9238666E-009  0.2500289E+03  0.7561462E-02  0.1023884E+00
         22   -1    0    0    0    0  0.00000000000E+00  0.00000000000E+00  0.94008805794E+02  0.94008805794E+02  0.00000000000E+00 0.  1.
         22   -1    0    0    0    0 -0.00000000000E+00 -0.00000000000E+00 -0.12455882531E+04  0.12455882531E+04  0.00000000000E+00 0. -1.
         24    2    1    2    0    0  0.15313355026E+03 -0.18565841642E+03 -0.81536539775E+03  0.85389336583E+03  0.79963845330E+02 0.  0.
         25    2    1    2    0    0 -0.83299524921E+02  0.15440953107E+03 -0.30098387418E+03  0.37016248642E+03  0.12509140538E+03 0.  0.
        -24    2    1    2    0    0 -0.69834025335E+02  0.31248885351E+02 -0.35230175342E+02  0.11554120661E+03  0.79090588817E+02 0.  0.
        -11    1    3    3    0    0  0.41269077664E+02 -0.48326405144E+02 -0.11409496188E+03  0.13059953496E+03  0.00000000000E+00 0.  1.
         12    1    3    3    0    0  0.11186447259E+03 -0.13733201128E+03 -0.70127043587E+03  0.72329383087E+03  0.00000000000E+00 0. -1.
         11    1    5    5    0    0 -0.57098152687E+02 -0.17276503457E+02 -0.15529538569E+02  0.61642868040E+02  0.00000000000E+00 0. -1.
        -12    1    5    5    0    0 -0.12735872648E+02  0.48525388808E+02 -0.19700636773E+02  0.53898338567E+02  0.00000000000E+00 0.  1.
          5    1    4    4  501    0 -0.29745351911E+02  0.28815727585E+02 -0.18899633036E+03  0.19352575385E+03  0.41800000000E+01 0. -1.
         -5    1    4    4    0  501 -0.53554173009E+02  0.12559380348E+03 -0.11198754382E+03  0.17663673257E+03  0.41800000000E+01 0. -1.
</event>
<event>
11    1  0.9238666E-009  0.1316911E+03  0.7561462E-02  0.1117208E+00
         22   -1    0    0    0    0  0.00000000000E+00  0.00000000000E+00  0.31031916596E+03  0.31031916596E+03  0.00000000000E+00 0.  1.
         22   -1    0    0    0    0 -0.00000000000E+00 -0.00000000000E+00 -0.53647842468E+03  0.53647842468E+03  0.00000000000E+00 0. -1.
         24    2    1    2    0    0  0.43834651479E+02 -0.10700107542E+02 -0.35845285635E+03  0.37038881113E+03  0.81629971295E+02 0.  0.
         25    2    1    2    0    0 -0.15541272067E+02  0.31895655207E+02 -0.14087426684E+03  0.19170615669E+03  0.12508727952E+03 0.  0.
        -24    2    1    2    0    0 -0.28293379412E+02 -0.21195547664E+02  0.27316786447E+03  0.28470262281E+03  0.72007879433E+02 0.  0.
        -13    1    3    3    0    0  0.29363119368E+02  0.24937808084E+02 -0.74776761310E+02  0.84116889404E+02  0.00000000000E+00 0.  1.
         14    1    3    3    0    0  0.14471532111E+02 -0.35637915626E+02 -0.28367609504E+03  0.28627192173E+03  0.00000000000E+00 0. -1.
         11    1    5    5    0    0 -0.46239708770E+01  0.24471786023E+02  0.52336787727E+02  0.57960234363E+02  0.00000000000E+00 0. -1.
        -12    1    5    5    0    0 -0.23669408535E+02 -0.45667333687E+02  0.22083107674E+03  0.22674238845E+03  0.00000000000E+00 0.  1.
          5    1    4    4  501    0 -0.15127239870E+02  0.77819111582E+02 -0.63612356538E+02  0.10172832358E+03  0.41800000000E+01 0.  1.
         -5    1    4    4    0  501 -0.41403219675E+00 -0.45923456376E+02 -0.77261910301E+02  0.89977833112E+02  0.41800000000E+01 0.  1.
</event>
<event>
11    1  0.9238666E-009  0.1325564E+03  0.7561462E-02  0.1116167E+00
         22   -1    0    0    0    0  0.00000000000E+00  0.00000000000E+00  0.32996438509E+03  0.32996438509E+03  0.00000000000E+00 0. -1.
         22   -1    0    0    0    0 -0.00000000000E+00 -0.00000000000E+00 -0.13192938884E+04  0.13192938884E+04  0.00000000000E+00 0.  1.
         24    2    1    2    0    0 -0.11052913636E+02  0.33385442385E+02 -0.12147046541E+04  0.12178504057E+04  0.80096561381E+02 0.  0.
         25    2    1    2    0    0  0.37277044058E+02 -0.65588056826E+02 -0.39846108430E+02  0.15140456079E+03  0.12507700611E+03 0.  0.
        -24    2    1    2    0    0 -0.26224130421E+02  0.32202614441E+02  0.26522125927E+03  0.28000330701E+03  0.79591596119E+02 0.  0.
        -11    1    3    3    0    0  0.38834252651E+01  0.94136321529E+01 -0.10875057291E+04  0.10875534048E+04  0.00000000000E+00 0.  1.
         12    1    3    3    0    0 -0.14936338902E+02  0.23971810232E+02 -0.12719892502E+03  0.13029700085E+03  0.00000000000E+00 0. -1.
         13    1    5    5    0    0 -0.50502221580E+02  0.15634046976E+01  0.14127650760E+03  0.15003989542E+03  0.00000000000E+00 0. -1.
        -14    1    5    5    0    0  0.24278091159E+02  0.30639209743E+02  0.12394475167E+03  0.12996341159E+03  0.00000000000E+00 0.  1.
          5    1    4    4  501    0  0.44416446482E+02 -0.68141274847E+01  0.34114504458E+02  0.56573181508E+02  0.41800000000E+01 0. -1.
         -5    1    4    4    0  501 -0.71394024242E+01 -0.58773929341E+02 -0.73960612887E+02  0.94831379278E+02  0.41800000000E+01 0. -1.
</event>
<event>
11    1  0.9238666E-009  0.1553629E+03  0.7561462E-02  0.1091522E+00
         22   -1    0    0    0    0  0.00000000000E+00  0.00000000000E+00  0.56789009858E+03  0.56789009858E+03  0.00000000000E+00 0. -1.
         22   -1    0    0    0    0 -0.00000000000E+00 -0.00000000000E+00 -0.16659394759E+04  0.16659394759E+04  0.00000000000E+00 0. -1.
        -24    2    1    2    0    0 -0.49878650533E+02  0.77473887723E+02 -0.15759827267E+04  0.15807060043E+04  0.80123867594E+02 0.  0.
         25    2    1    2    0    0  0.45109627468E+02 -0.80625714531E+02 -0.12662058053E+02  0.15602183145E+03  0.12508836813E+03 0.  0.
         24    2    1    2    0    0  0.47690230657E+01  0.31518268078E+01  0.49059540739E+03  0.49710173875E+03  0.79960035792E+02 0.  0.
        -13    1    5    5    0    0  0.23851773030E+02 -0.16448003567E+02  0.71962871638E+02  0.77576406158E+02  0.00000000000E+00 0.  1.
         14    1    5    5    0    0 -0.19082749964E+02  0.19599830375E+02  0.41863253576E+03  0.41952533260E+03  0.00000000000E+00 0. -1.
         11    1    3    3    0    0  0.23700882617E+01  0.59832421710E+02 -0.10817796528E+04  0.10834356248E+04  0.00000000000E+00 0. -1.
        -12    1    3    3    0    0 -0.52248738795E+02  0.17641466013E+02 -0.49420307393E+03  0.49727037948E+03  0.00000000000E+00 0.  1.
          5    1    4    4  501    0 -0.28092275301E+02  0.14318924348E+02  0.11181138959E+02  0.33714949125E+02  0.41800000000E+01 0.  1.
         -5    1    4    4    0  501  0.73201902768E+02 -0.94944638879E+02 -0.23843197012E+02  0.12230688233E+03  0.41800000000E+01 0.  1.
</event>
<event>
11    1  0.9238666E-009  0.1491640E+03  0.7561462E-02  0.1097736E+00
         22   -1    0    0    0    0  0.00000000000E+00  0.00000000000E+00  0.82210074735E+03  0.82210074735E+03  0.00000000000E+00 0. -1.
         22   -1    0    0    0    0 -0.00000000000E+00 -0.00000000000E+00 -0.19940545316E+04  0.19940545316E+04  0.00000000000E+00 0.  1.
         24    2    1    2    0    0  0.64381717495E+02 -0.50034732092E+02 -0.18152471538E+04  0.18188662699E+04  0.80646131679E+02 0.  0.
         25    2    1    2    0    0 -0.38723608215E+02  0.73826224507E+02 -0.14210999647E+03  0.20686213091E+03  0.12508741283E+03 0.  0.
        -24    2    1    2    0    0 -0.25658109280E+02 -0.23791492415E+02  0.78540336601E+03  0.79042687812E+03  0.81803597917E+02 0.  0.
        -11    1    3    3    0    0  0.51404967950E+02 -0.37579162955E+02 -0.17507590735E+04  0.17519166640E+04  0.00000000000E+00 0.  1.
         12    1    3    3    0    0  0.12976749545E+02 -0.12455569137E+02 -0.64488080273E+02  0.66949605888E+02  0.00000000000E+00 0. -1.
         11    1    5    5    0    0 -0.26392440924E+02 -0.22576493569E+02  0.78729559067E+03  0.78806129589E+03  0.00000000000E+00 0. -1.
        -12    1    5    5    0    0  0.73433164454E+00 -0.12149988461E+01 -0.18922246529E+01  0.23655822322E+01  0.00000000000E+00 0.  1.
          5    1    4    4  501    0  0.61836175138E+00  0.26223331728E+02 -0.14250915098E+03  0.14496336092E+03  0.41800000000E+01 0. -1.
         -5    1    4    4    0  501 -0.39341969967E+02  0.47602892779E+02  0.39915450375E+00  0.61898769989E+02  0.41800000000E+01 0. -1.
</event>
<event>
11    1  0.9238666E-009  0.1756267E+03  0.7561462E-02  0.1073236E+00
         22   -1    0    0    0    0  0.00000000000E+00  0.00000000000E+00  0.22457259939E+03  0.22457259939E+03  0.00000000000E+00 0. -1.
         22   -1    0    0    0    0 -0.00000000000E+00 -0.00000000000E+00 -0.10075841511E+04  0.10075841511E+04  0.00000000000E+00 0.  1.
         24    2    1    2    0    0 -0.12012604807E+03 -0.12191936669E+02 -0.72520139450E+03  0.73963412871E+03  0.81010314362E+02 0.  0.
         25    2    1    2    0    0  0.13172046257E+03  0.32505636169E+02 -0.23347404807E+03  0.29759294145E+03  0.12507809974E+03 0.  0.
        -24    2    1    2    0    0 -0.11594414496E+02 -0.20313699500E+02  0.17566389083E+03  0.19492968036E+03  0.81195448806E+02 0.  0.
        -13    1    3    3    0    0 -0.10708459731E+03  0.47982323345E+01 -0.69110622738E+03  0.69936968160E+03  0.00000000000E+00 0.  1.
         14    1    3    3    0    0 -0.13041450767E+02 -0.16990169003E+02 -0.34095167114E+02  0.40264447114E+02  0.00000000000E+00 0. -1.
         11    1    5    5    0    0 -0.31110280415E+01  0.93241270323E-01  0.17258865958E+03  0.17261672169E+03  0.00000000000E+00 0. -1.
        -12    1    5    5    0    0 -0.84833864543E+01 -0.20406940770E+02  0.30752312486E+01  0.22312958669E+02  0.00000000000E+00 0.  1.
          5    1    4    4  501    0  0.15506597804E+03  0.18546599829E+02 -0.20762841970E+03  0.25983930992E+03  0.41800000000E+01 0.  1.
         -5    1    4    4    0  501 -0.23345515469E+02  0.13959036340E+02 -0.25845628364E+02  0.37753631528E+02  0.41800000000E+01 0.  1.
</event>
<event>
11    1  0.9238666E-009  0.2194985E+03  0.7561462E-02  0.1041532E+00
         22   -1    0    0    0    0  0.00000000000E+00  0.00000000000E+00  0.69134549523E+03  0.69134549523E+03  0.00000000000E+00 0. -1.
         22   -1    0    0    0    0 -0.00000000000E+00 -0.00000000000E+00 -0.57985280714E+03  0.57985280714E+03  0.00000000000E+00 0.  1.
        -24    2    1    2    0    0 -0.28489278290E+02  0.19026799311E+03 -0.31926626164E+03  0.37961350081E+03  0.71846475165E+02 0.  0.
         25    2    1    2    0    0 -0.29723351083E+02 -0.16432408865E+03 -0.17787255236E+03  0.27416958891E+03  0.12507771540E+03 0.  0.
         24    2    1    2    0    0  0.58212629373E+02 -0.25943904461E+02  0.60863150208E+03  0.61741521265E+03  0.81898980989E+02 0.  0.
        -13    1    5    5    0    0  0.61086801652E+02 -0.44867202871E+02  0.56076112732E+03  0.56586014627E+03  0.00000000000E+00 0.  1.
         14    1    5    5    0    0 -0.28741722798E+01  0.18923298410E+02  0.47870374768E+02  0.51555066380E+02  0.00000000000E+00 0. -1.
         11    1    3    3    0    0 -0.11074267554E+01  0.15909977237E+02 -0.13682210778E+01  0.16007054651E+02  0.00000000000E+00 0. -1.
        -12    1    3    3    0    0 -0.27381851534E+02  0.17435801588E+03 -0.31789804056E+03  0.36360644615E+03  0.00000000000E+00 0.  1.
          5    1    4    4  501    0 -0.78142023158E+02 -0.91711154360E+02 -0.11414437685E+03  0.16602265744E+03  0.41800000000E+01 0. -1.
         -5    1    4    4    0  501  0.48418672075E+02 -0.72612934294E+02 -0.63728175505E+02  0.10814693147E+03  0.41800000000E+01 0. -1.
</event>
<event>
11    1  0.1050938E-008  0.1720647E+03  0.7561462E-02  0.1076249E+00
         22   -1    0    0    0    0  0.00000000000E+00  0.00000000000E+00  0.86323022614E+03  0.86323022614E+03  0.00000000000E+00 0.  1.
         22   -1    0    0    0    0 -0.00000000000E+00 -0.00000000000E+00 -0.51959081050E+03  0.51959081050E+03  0.00000000000E+00 0. -1.
         24    2    1    2    0    0  0.18269996343E+02  0.10398468235E+03 -0.34718693290E+03  0.37167053121E+03  0.80334366635E+02 0.  0.
         25    2    1    2    0    0 -0.10680407825E+03 -0.17724858860E+03 -0.58737155101E+02  0.24884125697E+03  0.12509094487E+03 0.  0.
        -24    2    1    2    0    0  0.88534081912E+02  0.73263906255E+02  0.74956350364E+03  0.76230924847E+03  0.77872079056E+02 0.  0.
        -13    1    3    3    0    0 -0.70134981293E+01  0.69440062157E+01 -0.15116726955E+03  0.15148911434E+03  0.00000000000E+00 0.  1.
         14    1    3    3    0    0  0.25283494472E+02  0.97040676132E+02 -0.19601966335E+03  0.22018141687E+03  0.00000000000E+00 0. -1.
         13    1    5    5    0    0  0.43919422003E+01  0.22661477051E+02  0.41647937017E+02  0.47617038507E+02  0.00000000000E+00 0. -1.
        -14    1    5    5    0    0  0.84142139711E+02  0.50602429204E+02  0.70791556662E+03  0.71469220996E+03  0.00000000000E+00 0.  1.
          5    1    4    4  501    0 -0.29271077573E+02 -0.15575708059E+03 -0.21162990670E+02  0.15994501777E+03  0.41800000000E+01 0.  1.
         -5    1    4    4    0  501 -0.77533000682E+02 -0.21491508018E+02 -0.37574164431E+02  0.88896239202E+02  0.41800000000E+01 0.  1.
</event>
<event>
11    1  0.9238666E-009  0.1745776E+03  0.7561462E-02  0.1074115E+00
         22   -1    0    0    0    0  0.00000000000E+00  0.00000000000E+00  0.24316978133E+03  0.24316978133E+03  0.00000000000E+00 0. -1.
         22   -1    0    0    0    0 -0.00000000000E+00 -0.00000000000E+00 -0.13046721864E+04  0.13046721864E+04  0.00000000000E+00 0. -1.
         24    2    1    2    0    0  0.16023303119E+02 -0.40467121757E+02 -0.11583907630E+04  0.11621224053E+04  0.82249564533E+02 0.  0.
         25    2    1    2    0    0 -0.42886152559E+01 -0.89691361693E+02 -0.61257757215E+02  0.16572082857E+03  0.12509175680E+03 0.  0.
        -24    2    1    2    0    0 -0.11734687863E+02  0.13015848345E+03  0.15814611521E+03  0.21999873381E+03  0.79437493719E+02 0.  0.
        -11    1    3    3    0    0 -0.12817943206E+02  0.18956352246E+02 -0.47385663353E+03  0.47440884488E+03  0.00000000000E+00 0.  1.
         12    1    3    3    0    0  0.28841246325E+02 -0.59423474002E+02 -0.68453412949E+03  0.68771356042E+03  0.00000000000E+00 0. -1.
         13    1    5    5    0    0  0.24886675996E+02  0.10489847341E+03  0.10254624383E+03  0.14879102288E+03  0.00000000000E+00 0. -1.
        -14    1    5    5    0    0 -0.36621363859E+02  0.25260010035E+02  0.55599871380E+02  0.71207710927E+02  0.00000000000E+00 0.  1.
          5    1    4    4  501    0  0.31836280113E+02 -0.47161335009E+01 -0.65600130573E+02  0.73189071437E+02  0.41800000000E+01 0. -1.
         -5    1    4    4    0  501 -0.36124895369E+02 -0.84975228192E+02  0.43423733586E+01  0.92531757133E+02  0.41800000000E+01 0. -1.
</event>
<event>
11    1  0.9238666E-009  0.1399497E+03  0.7561462E-02  0.1107615E+00
         22   -1    0    0    0    0  0.00000000000E+00  0.00000000000E+00  0.99359108075E+03  0.99359108075E+03  0.00000000000E+00 0.  1.
         22   -1    0    0    0    0 -0.00000000000E+00 -0.00000000000E+00 -0.72987645677E+03  0.72987645677E+03  0.00000000000E+00 0.  1.
         24    2    1    2    0    0 -0.54853179340E+02  0.31034094346E+02 -0.67141243481E+03  0.67929439449E+03  0.81695963634E+02 0.  0.
         25    2    1    2    0    0  0.39755639579E+02 -0.44373132519E+02  0.39398622523E+02  0.14404545449E+03  0.12508939098E+03 0.  0.
        -24    2    1    2    0    0  0.15097539761E+02  0.13339038173E+02  0.89572843627E+03  0.90012768853E+03  0.86571117976E+02 0.  0.
        -13    1    3    3    0    0 -0.71865452498E+02  0.87901813640E+01 -0.54690746123E+03  0.55167896616E+03  0.00000000000E+00 0.  1.
         14    1    3    3    0    0  0.17012273158E+02  0.22243912982E+02 -0.12450497358E+03  0.12761542834E+03  0.00000000000E+00 0. -1.
         11    1    5    5    0    0  0.30561959939E+02  0.30510457696E+02  0.23125959700E+03  0.23525714150E+03  0.00000000000E+00 0. -1.
        -12    1    5    5    0    0 -0.15464420179E+02 -0.17171419524E+02  0.66446883927E+03  0.66487054703E+03  0.00000000000E+00 0.  1.
          5    1    4    4  501    0  0.33163571060E+01  0.19329245550E+02  0.63576829765E+02  0.66664110592E+02  0.41800000000E+01 0. -1.
         -5    1    4    4    0  501  0.36439282473E+02 -0.63702378069E+02 -0.24178207242E+02  0.77381343903E+02  0.41800000000E+01 0. -1.
</event>
<event>
11    1  0.9238666E-009  0.2427257E+03  0.7561462E-02  0.1027847E+00
         22   -1    0    0    0    0  0.00000000000E+00  0.00000000000E+00  0.62059351671E+03  0.62059351671E+03  0.00000000000E+00 0. -1.
         22   -1    0    0    0    0 -0.00000000000E+00 -0.00000000000E+00 -0.18867905256E+04  0.18867905256E+04  0.00000000000E+00 0.  1.
        -24    2    1    2    0    0  0.39942033630E+02 -0.83473632788E+02 -0.17935584886E+04  0.17975282554E+04  0.75449080801E+02 0.  0.
         25    2    1    2    0    0 -0.18040417178E+03 -0.89594116894E+02  0.24165376364E+03  0.33853926364E+03  0.12505806876E+03 0.  0.
         24    2    1    2    0    0  0.14046213815E+03  0.17306774968E+03  0.28570771606E+03  0.37131652319E+03  0.81024706998E+02 0.  0.
        -13    1    5    5    0    0 -0.47817718743E+01  0.10793683094E+02  0.45828799294E+02  0.47324917134E+02  0.00000000000E+00 0.  1.
         14    1    5    5    0    0  0.14524391003E+03  0.16227406659E+03  0.23987891677E+03  0.32399160606E+03  0.00000000000E+00 0. -1.
         13    1    3    3    0    0  0.70720917647E+01  0.98660753335E+01 -0.63996443529E+02  0.65137536865E+02  0.00000000000E+00 0. -1.
        -14    1    3    3    0    0  0.32869941866E+02 -0.93339708121E+02 -0.17295620450E+04  0.17323907186E+04  0.00000000000E+00 0.  1.
          5    1    4    4  501    0 -0.49409911904E+02 -0.18700561990E+02 -0.18891587368E+01  0.53029159279E+02  0.41800000000E+01 0. -1.
         -5    1    4    4    0  501 -0.13099425988E+03 -0.70893554904E+02  0.24354292238E+03  0.28551010436E+03  0.41800000000E+01 0. -1.
</event>
<event>
11    1  0.9238666E-009  0.1369876E+03  0.7561462E-02  0.1110970E+00
         22   -1    0    0    0    0  0.00000000000E+00  0.00000000000E+00  0.15325379918E+03  0.15325379918E+03  0.00000000000E+00 0.  1.
         22   -1    0    0    0    0 -0.00000000000E+00 -0.00000000000E+00 -0.13049206952E+04  0.13049206952E+04  0.00000000000E+00 0. -1.
        -24    2    1    2    0    0  0.23008091818E+02  0.50103164863E+02 -0.10567532797E+04  0.10612845162E+04  0.80979200066E+02 0.  0.
         25    2    1    2    0    0  0.16338468868E+02 -0.75643274630E+02 -0.20474750736E+03  0.25209944031E+03  0.12507491943E+03 0.  0.
         24    2    1    2    0    0 -0.39346560686E+02  0.25540109767E+02  0.10983389104E+03  0.14479053783E+03  0.81855770584E+02 0.  0.
        -11    1    5    5    0    0 -0.11168326456E+02  0.46947302293E+02  0.94731995565E+02  0.10631524675E+03  0.00000000000E+00 0.  1.
         12    1    5    5    0    0 -0.28178234230E+02 -0.21407192526E+02  0.15101895477E+02  0.38475291073E+02  0.00000000000E+00 0. -1.
         13    1    3    3    0    0  0.58265541500E+01  0.30222978799E+02 -0.97342686408E+03  0.97391336211E+03  0.00000000000E+00 0. -1.
        -14    1    3    3    0    0  0.17181537668E+02  0.19880186064E+02 -0.83326415589E+02  0.87371154104E+02  0.00000000000E+00 0.  1.
          5    1    4    4  501    0  0.26218776072E+02 -0.43941904251E+02 -0.21176896577E+03  0.21790337866E+03  0.41800000000E+01 0. -1.
         -5    1    4    4    0  501 -0.98803072044E+01 -0.31701370379E+02  0.70214584040E+01  0.34196061652E+02  0.41800000000E+01 0. -1.
</event>
<event>
11    1  0.9238666E-009  0.1927769E+03  0.7561462E-02  0.1059752E+00
         22   -1    0    0    0    0  0.00000000000E+00  0.00000000000E+00  0.13015880562E+04  0.13015880562E+04  0.00000000000E+00 0. -1.
         22   -1    0    0    0    0 -0.00000000000E+00 -0.00000000000E+00 -0.13331021439E+03  0.13331021439E+03  0.00000000000E+00 0.  1.
        -24    2    1    2    0    0  0.53056105403E+02  0.11517782023E+02 -0.80996668632E+02  0.12749770512E+03  0.82143745093E+02 0.  0.
         25    2    1    2    0    0 -0.72892736110E+02 -0.15021373047E+03  0.51802753420E+03  0.55845895052E+03  0.12508540055E+03 0.  0.
         24    2    1    2    0    0  0.19836630707E+02  0.13869594845E+03  0.73124697627E+03  0.74894161498E+03  0.81002125266E+02 0.  0.
        -11    1    5    5    0    0  0.14257648895E+02  0.51194953724E+02  0.11744478710E+03  0.12890881217E+03  0.00000000000E+00 0.  1.
         12    1    5    5    0    0  0.55789818120E+01  0.87500994725E+02  0.61380218918E+03  0.62003280280E+03  0.00000000000E+00 0. -1.
         13    1    3    3    0    0 -0.18792391562E+02  0.15578665338E+02 -0.32798141659E+02  0.40884800240E+02  0.00000000000E+00 0. -1.
        -14    1    3    3    0    0  0.71848496965E+02 -0.40608833149E+01 -0.48198526972E+02  0.86612904879E+02  0.00000000000E+00 0.  1.
          5    1    4    4  501    0 -0.10562937685E+02 -0.14187840288E+03  0.31040355225E+03  0.34148044528E+03  0.41800000000E+01 0.  1.
         -5    1    4    4    0  501 -0.62329798425E+02 -0.83353275882E+01  0.20762398195E+03  0.21697850525E+03  0.41800000000E+01 0.  1.
</event>
<event>
11    1  0.9238666E-009  0.3802576E+03  0.7561462E-02  0.9709874E-01
         22   -1    0    0    0    0  0.00000000000E+00  0.00000000000E+00  0.76343232823E+03  0.76343232823E+03  0.00000000000E+00 0. -1.
         22   -1    0    0    0    0 -0.00000000000E+00 -0.00000000000E+00 -0.33378249198E+03  0.33378249198E+03  0.00000000000E+00 0.  1.
        -24    2    1    2    0    0  0.26948916794E+03  0.23253221070E+03 -0.76771905943E+02  0.37277324721E+03  0.79814332315E+02 0.  0.
         25    2    1    2    0    0 -0.22820365908E+03 -0.29545760024E+03  0.31690459351E+03  0.50541863837E+03  0.12508946826E+03 0.  0.
         24    2    1    2    0    0 -0.41285508865E+02  0.62925389537E+02  0.18951714868E+03  0.21902293463E+03  0.79938716253E+02 0.  0.
        -11    1    5    5    0    0  0.29755697119E+01  0.65364447596E+02  0.11554935185E+03  0.13278937359E+03  0.00000000000E+00 0.  1.
         12    1    5    5    0    0 -0.44261078577E+02 -0.24390580591E+01  0.73967796831E+02  0.86233561036E+02  0.00000000000E+00 0. -1.
         13    1    3    3    0    0  0.20793066211E+03  0.21498472586E+03 -0.76685790138E+02  0.30876253499E+03  0.00000000000E+00 0. -1.
        -14    1    3    3    0    0  0.61558505827E+02  0.17547484841E+02 -0.86115805252E-01  0.64010712227E+02  0.00000000000E+00 0.  1.
          5    1    4    4  501    0 -0.19269226555E+03 -0.15092699025E+03  0.19365254278E+03  0.31213465894E+03  0.41800000000E+01 0.  1.
         -5    1    4    4    0  501 -0.35511393530E+02 -0.14453060999E+03  0.12325205073E+03  0.19328397943E+03  0.41800000000E+01 0.  1.
</event>
<event>
11    1  0.9238666E-009  0.1589792E+03  0.7561462E-02  0.1088041E+00
         22   -1    0    0    0    0  0.00000000000E+00  0.00000000000E+00  0.53760051313E+03  0.53760051313E+03  0.00000000000E+00 0.  1.
         22   -1    0    0    0    0 -0.00000000000E+00 -0.00000000000E+00 -0.55411636626E+03  0.55411636626E+03  0.00000000000E+00 0. -1.
        -24    2    1    2    0    0 -0.20739760367E+02  0.90349655246E+02 -0.44304252455E+03  0.45975771004E+03  0.80605679158E+02 0.  0.
         25    2    1    2    0    0  0.11505125123E+03 -0.10147604148E+03  0.11482172567E+02  0.19827737916E+03  0.12509157203E+03 0.  0.
         24    2    1    2    0    0 -0.94311490864E+02  0.11126386238E+02  0.41504449885E+03  0.43368179020E+03  0.82459113137E+02 0.  0.
        -13    1    5    5    0    0 -0.27790029439E+02  0.40943825026E+02  0.21903782231E+03  0.22455789932E+03  0.00000000000E+00 0.  1.
         14    1    5    5    0    0 -0.66521461426E+02 -0.29817438788E+02  0.19600667654E+03  0.20912389087E+03  0.00000000000E+00 0. -1.
         13    1    3    3    0    0 -0.13321749171E+02  0.10529910401E+03 -0.38024984570E+03  0.39478515101E+03  0.00000000000E+00 0. -1.
        -14    1    3    3    0    0 -0.74180111959E+01 -0.14949448763E+02 -0.62792678856E+02  0.64972559026E+02  0.00000000000E+00 0.  1.
          5    1    4    4  501    0  0.17755391758E+02 -0.77450478013E+02 -0.35960272163E+02  0.87318062592E+02  0.41800000000E+01 0. -1.
         -5    1    4    4    0  501  0.97295859474E+02 -0.24025563471E+02  0.47442444729E+02  0.11095931657E+03  0.41800000000E+01 0. -1.
</event>
<event>
11    1  0.9238666E-009  0.1278242E+03  0.7561462E-02  0.1121972E+00
         22   -1    0    0    0    0  0.00000000000E+00  0.00000000000E+00  0.84270185620E+03  0.84270185620E+03  0.00000000000E+00 0. -1.
         22   -1    0    0    0    0 -0.00000000000E+00 -0.00000000000E+00 -0.25926146526E+03  0.25926146526E+03  0.00000000000E+00 0. -1.
        -24    2    1    2    0    0  0.21101893443E+02  0.16840243348E+02 -0.19951477328E+03  0.21948734278E+03  0.87405178216E+02 0.  0.
         25    2    1    2    0    0 -0.21082000070E+02 -0.54877179025E+01  0.36828744335E+02  0.13221242431E+03  0.12509677437E+03 0.  0.
         24    2    1    2    0    0 -0.19893373820E-01 -0.11352525445E+02  0.74612641989E+03  0.75026355437E+03  0.77858116704E+02 0.  0.
        -13    1    5    5    0    0  0.82298176784E+01  0.23963318533E+02  0.10138894876E+03  0.10450688716E+03  0.00000000000E+00 0.  1.
         14    1    5    5    0    0 -0.82497110523E+01 -0.35315843979E+02  0.64473747113E+03  0.64575666721E+03  0.00000000000E+00 0. -1.
         13    1    3    3    0    0 -0.42982879947E+00 -0.45523951232E+01 -0.18634492075E+03  0.18640101540E+03  0.00000000000E+00 0. -1.
        -14    1    3    3    0    0  0.21531722243E+02  0.21392638471E+02 -0.13169852534E+02  0.33086327377E+02  0.00000000000E+00 0.  1.
          5    1    4    4  501    0  0.17475167009E+02  0.35922408480E+02  0.58936512630E+02  0.71321706471E+02  0.41800000000E+01 0.  1.
         -5    1    4    4    0  501 -0.38557167079E+02 -0.41410126382E+02 -0.22107768295E+02  0.60890717841E+02  0.41800000000E+01 0.  1.
</event>
<event>
11    1  0.9238666E-009  0.1452066E+03  0.7561462E-02  0.1101880E+00
         22   -1    0    0    0    0  0.00000000000E+00  0.00000000000E+00  0.79016912549E+03  0.79016912549E+03  0.00000000000E+00 0. -1.
         22   -1    0    0    0    0 -0.00000000000E+00 -0.00000000000E+00 -0.69616712721E+03  0.69616712721E+03  0.00000000000E+00 0.  1.
        -24    2    1    2    0    0  0.17484157585E+02 -0.66898010075E+01 -0.63142818636E+03  0.63680167353E+03  0.80401291503E+02 0.  0.
         25    2    1    2    0    0  0.56074628591E+02  0.20376717264E+02  0.25189966043E+02  0.14086016032E+03  0.12508987089E+03 0.  0.
         24    2    1    2    0    0 -0.73558786176E+02 -0.13686916256E+02  0.70024021859E+03  0.70867441885E+03  0.79276992224E+02 0.  0.
        -13    1    5    5    0    0  0.32183231051E+01 -0.29667092884E+02  0.15811042609E+03  0.16090183605E+03  0.00000000000E+00 0.  1.
         14    1    5    5    0    0 -0.76777109282E+02  0.15980176628E+02  0.54212979250E+03  0.54777258280E+03  0.00000000000E+00 0. -1.
         11    1    3    3    0    0  0.12283588910E+00 -0.37597318379E+02 -0.17470647277E+03  0.17870625357E+03  0.00000000000E+00 0. -1.
        -12    1    3    3    0    0  0.17361321696E+02  0.30907517372E+02 -0.45672171359E+03  0.45809541995E+03  0.00000000000E+00 0.  1.
          5    1    4    4  501    0  0.24691652277E+02  0.60881373523E+02  0.51056666936E+02  0.83309513099E+02  0.41800000000E+01 0.  1.
         -5    1    4    4    0  501  0.31382976314E+02 -0.40504656259E+02 -0.25866700893E+02  0.57550647225E+02  0.41800000000E+01 0.  1.
</event>
<event>
11    1  0.9238666E-009  0.1383808E+03  0.7561462E-02  0.1109380E+00
         22   -1    0    0    0    0  0.00000000000E+00  0.00000000000E+00  0.23759573810E+03  0.23759573810E+03  0.00000000000E+00 0.  1.
         22   -1    0    0    0    0 -0.00000000000E+00 -0.00000000000E+00 -0.12627305815E+04  0.12627305815E+04  0.00000000000E+00 0. -1.
         24    2    1    2    0    0 -0.19931565905E+02 -0.34508140290E+02 -0.11304254071E+04  0.11341917146E+04  0.83313656007E+02 0.  0.
         25    2    1    2    0    0 -0.78808153962E+01  0.84272575456E+02 -0.68463404343E+02  0.16582266024E+03  0.12508374271E+03 0.  0.
        -24    2    1    2    0    0  0.27812381301E+02 -0.49764435166E+02  0.17375396808E+03  0.20031194477E+03  0.81758218131E+02 0.  0.
        -11    1    3    3    0    0  0.59154454943E+01  0.25940677551E+02 -0.33073064670E+03  0.33179914393E+03  0.00000000000E+00 0.  1.
         12    1    3    3    0    0 -0.25847011399E+02 -0.60448817841E+02 -0.79969476042E+03  0.80239257064E+03  0.00000000000E+00 0. -1.
         13    1    5    5    0    0  0.13197935247E+02 -0.11505863235E+02 -0.39504112280E+01  0.17949265513E+02  0.00000000000E+00 0. -1.
        -14    1    5    5    0    0  0.14614446054E+02 -0.38258571931E+02  0.17770437931E+03  0.18236267926E+03  0.00000000000E+00 0.  1.
          5    1    4    4  501    0  0.27889680627E+02  0.72309020052E+02  0.10396370480E+02  0.78306995763E+02  0.41800000000E+01 0.  1.
         -5    1    4    4    0  501 -0.35770496023E+02  0.11963555404E+02 -0.78859774823E+02  0.87515664477E+02  0.41800000000E+01 0.  1.
</event>
<event>
11    1  0.9238666E-009  0.1500009E+03  0.7561462E-02  0.1096878E+00
         22   -1    0    0    0    0  0.00000000000E+00  0.00000000000E+00  0.68187510298E+03  0.68187510298E+03  0.00000000000E+00 0. -1.
         22   -1    0    0    0    0 -0.00000000000E+00 -0.00000000000E+00 -0.27240796921E+03  0.27240796921E+03  0.00000000000E+00 0.  1.
         24    2    1    2    0    0 -0.41989141139E+02 -0.31348446371E+02 -0.16382865052E+03  0.18979360156E+03  0.80224506220E+02 0.  0.
         25    2    1    2    0    0  0.11573776075E+03  0.61774021770E+02  0.13705590522E+01  0.18127593211E+03  0.12509127109E+03 0.  0.
        -24    2    1    2    0    0 -0.73748619610E+02 -0.30425575400E+02  0.57192522523E+03  0.58321353853E+03  0.81700634835E+02 0.  0.
        -11    1    3    3    0    0 -0.62329732523E+02 -0.57602250158E+01 -0.97793426333E+02  0.11611085213E+03  0.00000000000E+00 0.  1.
         12    1    3    3    0    0  0.20340591384E+02 -0.25588221355E+02 -0.66035224182E+02  0.73682749425E+02  0.00000000000E+00 0. -1.
         13    1    5    5    0    0 -0.91812587675E+02 -0.27555124851E+02  0.48593738354E+03  0.49530190478E+03  0.00000000000E+00 0. -1.
        -14    1    5    5    0    0  0.18063968065E+02 -0.28704505482E+01  0.85987841694E+02  0.87911633746E+02  0.00000000000E+00 0.  1.
          5    1    4    4  501    0  0.13136188224E+03  0.16001333917E+02 -0.38138208997E+01  0.13245378221E+03  0.41800000000E+01 0. -1.
         -5    1    4    4    0  501 -0.15624121488E+02  0.45772687853E+02  0.51843799520E+01  0.48822149902E+02  0.41800000000E+01 0. -1.
</event>
<event>
11    1  0.9238666E-009  0.2023855E+03  0.7561462E-02  0.1052849E+00
         22   -1    0    0    0    0  0.00000000000E+00  0.00000000000E+00  0.18040725709E+04  0.18040725709E+04  0.00000000000E+00 0.  1.
         22   -1    0    0    0    0 -0.00000000000E+00 -0.00000000000E+00 -0.10212825704E+04  0.10212825704E+04  0.00000000000E+00 0. -1.
        -24    2    1    2    0    0 -0.35006193353E+00 -0.15234635158E+03 -0.84119439478E+03  0.85837474728E+03  0.77392916861E+02 0.  0.
         25    2    1    2    0    0 -0.26499666637E+02  0.25173619005E+03 -0.51005529924E+02  0.28691811354E+03  0.12508836110E+03 0.  0.
         24    2    1    2    0    0  0.26849728570E+02 -0.99389838473E+02  0.16749899251E+04  0.16800622805E+04  0.80117220093E+02 0.  0.
        -11    1    5    5    0    0  0.50422872138E+02 -0.41269938065E+02  0.68677719987E+03  0.68986128756E+03  0.00000000000E+00 0.  1.
         12    1    5    5    0    0 -0.23573143568E+02 -0.58119900407E+02  0.98821272528E+03  0.99020099290E+03  0.00000000000E+00 0. -1.
         13    1    3    3    0    0 -0.22694199101E+02 -0.12920509645E+03 -0.75624830257E+03  0.76754184170E+03  0.00000000000E+00 0. -1.
        -14    1    3    3    0    0  0.22344137167E+02 -0.23141255131E+02 -0.84946092215E+02  0.90832905587E+02  0.00000000000E+00 0.  1.
          5    1    4    4  501    0 -0.45081853936E+02  0.25815527213E+03 -0.49786208606E+02  0.26678204034E+03  0.41800000000E+01 0. -1.
         -5    1    4    4    0  501  0.18582187300E+02 -0.64190820755E+01 -0.12193213181E+01  0.20136073202E+02  0.41800000000E+01 0. -1.
</event>
<event>
11    1  0.9238666E-009  0.2084350E+03  0.7561462E-02  0.1048714E+00
         22   -1    0    0    0    0  0.00000000000E+00  0.00000000000E+00  0.17149566473E+04  0.17149566473E+04  0.00000000000E+00 0. -1.
         22   -1    0    0    0    0 -0.00000000000E+00 -0.00000000000E+00 -0.15060852657E+03  0.15060852657E+03  0.00000000000E+00 0.  1.
         24    2    1    2    0    0 -0.42589816485E+02  0.25452396725E+02 -0.10642631743E+03  0.14267675677E+03  0.81045536049E+02 0.  0.
         25    2    1    2    0    0  0.17048630082E+03  0.71353787301E+02  0.67216838145E+03  0.70824761512E+03  0.12508960615E+03 0.  0.
        -24    2    1    2    0    0 -0.12789648433E+03 -0.96806184027E+02  0.99860605671E+03  0.10146408020E+04  0.80950309312E+02 0.  0.
        -11    1    3    3    0    0 -0.52429703534E+02  0.37583098582E+02 -0.10918263165E+03  0.12681565426E+03  0.00000000000E+00 0.  1.
         12    1    3    3    0    0  0.98398870494E+01 -0.12130701857E+02  0.27563142214E+01  0.15861102508E+02  0.00000000000E+00 0. -1.
         11    1    5    5    0    0 -0.13761633165E+03 -0.89734604579E+02  0.86266605555E+03  0.87817041478E+03  0.00000000000E+00 0. -1.
        -12    1    5    5    0    0  0.97198473170E+01 -0.70715794479E+01  0.13594000117E+03  0.13647038721E+03  0.00000000000E+00 0.  1.
          5    1    4    4  501    0  0.13889305361E+03  0.14145709214E+02  0.30735358935E+03  0.33760195899E+03  0.41800000000E+01 0.  1.
         -5    1    4    4    0  501  0.31593247210E+02  0.57208078088E+02  0.36481479210E+03  0.37064565612E+03  0.41800000000E+01 0.  1.
</event>
<event>
11    1  0.9238666E-009  0.1574144E+03  0.7561462E-02  0.1089535E+00
         22   -1    0    0    0    0  0.00000000000E+00  0.00000000000E+00  0.14385026737E+03  0.14385026737E+03  0.00000000000E+00 0. -1.
         22   -1    0    0    0    0 -0.00000000000E+00 -0.00000000000E+00 -0.13367009036E+04  0.13367009036E+04  0.00000000000E+00 0.  1.
         24    2    1    2    0    0  0.53801519355E+02 -0.53890165073E+02 -0.87909860379E+03  0.88575490661E+03  0.77127466110E+02 0.  0.
         25    2    1    2    0    0 -0.14079199893E+03  0.82551959030E+02 -0.40310967741E+03  0.45252666651E+03  0.12508300833E+03 0.  0.
        -24    2    1    2    0    0  0.86990479575E+02 -0.28661793957E+02  0.89357644943E+02  0.14226959788E+03  0.62185269967E+02 0.  0.
        -13    1    3    3    0    0 -0.16089220582E+02 -0.22930876461E+02 -0.35603261874E+03  0.35713290764E+03  0.00000000000E+00 0.  1.
         14    1    3    3    0    0  0.69890739937E+02 -0.30959288612E+02 -0.52306598505E+03  0.52862199897E+03  0.00000000000E+00 0. -1.
         13    1    5    5    0    0  0.68315381299E+02 -0.28474803729E+01  0.86528893023E+02  0.11028303947E+03  0.00000000000E+00 0. -1.
        -14    1    5    5    0    0  0.18675098276E+02 -0.25814313584E+02  0.28287519192E+01  0.31986558409E+02  0.00000000000E+00 0.  1.
          5    1    4    4  501    0 -0.74178506727E+02 -0.24107411527E+02 -0.18339325959E+03  0.19933433777E+03  0.41800000000E+01 0.  1.
         -5    1    4    4    0  501 -0.66613492203E+02  0.10665937056E+03 -0.21971641783E+03  0.25319232874E+03  0.41800000000E+01 0.  1.
</event>
<event>
11    1  0.9238666E-009  0.2264183E+03  0.7561462E-02  0.1037270E+00
         22   -1    0    0    0    0  0.00000000000E+00  0.00000000000E+00  0.94639348451E+03  0.94639348451E+03  0.00000000000E+00 0. -1.
         22   -1    0    0    0    0 -0.00000000000E+00 -0.00000000000E+00 -0.55169803488E+03  0.55169803488E+03  0.00000000000E+00 0. -1.
        -24    2    1    2    0    0  0.12798765820E+03  0.13864324285E+03 -0.47812116284E+03  0.52048010587E+03  0.81834618684E+02 0.  0.
         25    2    1    2    0    0 -0.85953723247E+02 -0.17737254739E+03  0.22938865487E+03  0.32728552256E+03  0.12509034810E+03 0.  0.
         24    2    1    2    0    0 -0.42033934951E+02  0.38729304543E+02  0.64342795760E+03  0.65032589096E+03  0.75215803616E+02 0.  0.
        -13    1    5    5    0    0 -0.21441104317E+02 -0.18911715863E+02  0.31087240575E+03  0.31218428309E+03  0.00000000000E+00 0.  1.
         14    1    5    5    0    0 -0.20592830635E+02  0.57641020407E+02  0.33255555185E+03  0.33814160787E+03  0.00000000000E+00 0. -1.
         13    1    3    3    0    0  0.95238646405E+02  0.77057873988E+02 -0.38572125150E+03  0.40470878366E+03  0.00000000000E+00 0. -1.
        -14    1    3    3    0    0  0.32749011793E+02  0.61585368859E+02 -0.92399911333E+02  0.11577132221E+03  0.00000000000E+00 0.  1.
          5    1    4    4  501    0 -0.11270380290E+03 -0.10788201713E+03  0.17791398624E+03  0.23666756370E+03  0.41800000000E+01 0. -1.
         -5    1    4    4    0  501  0.26750079655E+02 -0.69490530263E+02  0.51474668624E+02  0.90617958858E+02  0.41800000000E+01 0. -1.
</event>
<event>
11    1  0.9238666E-009  0.1572537E+03  0.7561462E-02  0.1089689E+00
         22   -1    0    0    0    0  0.00000000000E+00  0.00000000000E+00  0.23053620295E+04  0.23053620295E+04  0.00000000000E+00 0. -1.
         22   -1    0    0    0    0 -0.00000000000E+00 -0.00000000000E+00 -0.28693920898E+03  0.28693920898E+03  0.00000000000E+00 0.  1.
        -24    2    1    2    0    0 -0.14661282083E+02  0.94509304656E+02 -0.25945731217E+03  0.28813622188E+03  0.80977920825E+02 0.  0.
         25    2    1    2    0    0 -0.37740620442E+02 -0.89496545199E+02  0.51893626594E+03  0.54256247206E+03  0.12508078166E+03 0.  0.
         24    2    1    2    0    0  0.52401902525E+02 -0.50127594567E+01  0.17589438667E+04  0.17616025445E+04  0.81172109976E+02 0.  0.
        -11    1    5    5    0    0  0.17329572201E+02 -0.33273410909E+02  0.36326203291E+03  0.36519411072E+03  0.00000000000E+00 0.  1.
         12    1    5    5    0    0  0.35072330325E+02  0.28260651452E+02  0.13956818338E+04  0.13964084338E+04  0.00000000000E+00 0. -1.
         13    1    3    3    0    0 -0.21280874145E+01 -0.12161684702E+02 -0.80273635274E+01  0.14726638993E+02  0.00000000000E+00 0. -1.
        -14    1    3    3    0    0 -0.12533194669E+02  0.10667098936E+03 -0.25142994864E+03  0.27340958289E+03  0.00000000000E+00 0.  1.
          5    1    4    4  501    0 -0.56669424002E+01 -0.10052896193E+03  0.22365850268E+03  0.24531364545E+03  0.41800000000E+01 0. -1.
         -5    1    4    4    0  501 -0.32073678042E+02  0.11032416733E+02  0.29527776326E+03  0.29724882660E+03  0.41800000000E+01 0. -1.
</event>
<event>
11    1  0.9238666E-009  0.1641713E+03  0.7561462E-02  0.1083218E+00
         22   -1    0    0    0    0  0.00000000000E+00  0.00000000000E+00  0.29035226337E+03  0.29035226337E+03  0.00000000000E+00 0.  1.
         22   -1    0    0    0    0 -0.00000000000E+00 -0.00000000000E+00 -0.17417484552E+04  0.17417484552E+04  0.00000000000E+00 0. -1.
         24    2    1    2    0    0 -0.36224027702E+02 -0.73915056424E+02 -0.15435584296E+04  0.15478392434E+04  0.80362192723E+02 0.  0.
         25    2    1    2    0    0 -0.58445853342E+02  0.12978955788E+02 -0.15147694827E+03  0.20537263107E+03  0.12509308801E+03 0.  0.
        -24    2    1    2    0    0  0.94669881043E+02  0.60936100636E+02  0.24363918608E+03  0.27888884409E+03  0.75784824498E+02 0.  0.
        -11    1    3    3    0    0  0.18063623283E+02  0.27513868878E+01 -0.14819866806E+03  0.14932082853E+03  0.00000000000E+00 0.  1.
         12    1    3    3    0    0 -0.54287650985E+02 -0.76666443312E+02 -0.13953597615E+04  0.13985184149E+04  0.00000000000E+00 0. -1.
         11    1    5    5    0    0  0.17818401759E+02  0.11389431914E+02  0.28702201439E+01  0.21341339326E+02  0.00000000000E+00 0. -1.
        -12    1    5    5    0    0  0.76851479284E+02  0.49546668722E+02  0.24076896594E+03  0.25754750476E+03  0.00000000000E+00 0.  1.
          5    1    4    4  501    0 -0.19445602491E+02  0.18152214766E+02 -0.16216945552E+03  0.16438989951E+03  0.41800000000E+01 0. -1.
         -5    1    4    4    0  501 -0.39000250851E+02 -0.51732589778E+01  0.10692507249E+02  0.40982731560E+02  0.41800000000E+01 0. -1.
</event>
<event>
11    1  0.9238666E-009  0.1645792E+03  0.7561462E-02  0.1082848E+00
         22   -1    0    0    0    0  0.00000000000E+00  0.00000000000E+00  0.96814659774E+02  0.96814659774E+02  0.00000000000E+00 0.  1.
         22   -1    0    0    0    0 -0.00000000000E+00 -0.00000000000E+00 -0.33127533544E+04  0.33127533544E+04  0.00000000000E+00 0.  1.
        -24    2    1    2    0    0 -0.11603875539E+01 -0.20937373773E+02 -0.29356669335E+04  0.29368593983E+04  0.81012719476E+02 0.  0.
         25    2    1    2    0    0 -0.34773576033E+02  0.11840443303E+03 -0.29221554899E+03  0.34097924277E+03  0.12509238818E+03 0.  0.
         24    2    1    2    0    0  0.35933963587E+02 -0.97467059256E+02  0.11943787925E+02  0.13172937306E+03  0.80118014681E+02 0.  0.
        -13    1    5    5    0    0 -0.22050662779E+01 -0.68119973643E+02  0.36917606830E+02  0.77511952758E+02  0.00000000000E+00 0.  1.
         14    1    5    5    0    0  0.38139029864E+02 -0.29347085614E+02 -0.24973818904E+02  0.54217420297E+02  0.00000000000E+00 0. -1.
         11    1    3    3    0    0 -0.39640283834E+02 -0.74449811864E+01 -0.10990047545E+04  0.10997446204E+04  0.00000000000E+00 0. -1.
        -12    1    3    3    0    0  0.38479896280E+02 -0.13492392586E+02 -0.18366621791E+04  0.18371147779E+04  0.00000000000E+00 0.  1.
          5    1    4    4  501    0  0.27007423586E+02 -0.71732214401E+01 -0.19220488776E+02  0.34172439529E+02  0.41800000000E+01 0. -1.
         -5    1    4    4    0  501 -0.61780999618E+02  0.12557765447E+03 -0.27299506021E+03  0.30680680324E+03  0.41800000000E+01 0. -1.
</event>
<event>
11    1  0.9238666E-009  0.1267924E+03  0.7561462E-02  0.1123274E+00
         22   -1    0    0    0    0  0.00000000000E+00  0.00000000000E+00  0.88387586115E+03  0.88387586115E+03  0.00000000000E+00 0. -1.
         22   -1    0    0    0    0 -0.00000000000E+00 -0.00000000000E+00 -0.65995687837E+03  0.65995687837E+03  0.00000000000E+00 0. -1.
        -24    2    1    2    0    0 -0.13258694386E+02 -0.13957287627E+02 -0.58381087080E+03  0.58938680629E+03  0.78556194544E+02 0.  0.
         25    2    1    2    0    0  0.25970279239E+02  0.29596937561E+02 -0.10917567878E+02  0.13159515882E+03  0.12509060085E+03 0.  0.
         24    2    1    2    0    0 -0.12711584853E+02 -0.15639649934E+02  0.81864742145E+03  0.82285077441E+03  0.80582958843E+02 0.  0.
        -13    1    5    5    0    0  0.21487606897E+01 -0.22832785862E+02  0.63357913968E+02  0.67380847020E+02  0.00000000000E+00 0.  1.
         14    1    5    5    0    0 -0.14860345543E+02  0.71931359282E+01  0.75528950748E+03  0.75546992739E+03  0.00000000000E+00 0. -1.
         13    1    3    3    0    0 -0.42098939890E+02 -0.21705436772E+02 -0.43770544474E+03  0.44026072171E+03  0.00000000000E+00 0. -1.
        -14    1    3    3    0    0  0.28840245504E+02  0.77481491450E+01 -0.14610542606E+03  0.14912608458E+03  0.00000000000E+00 0.  1.
          5    1    4    4  501    0  0.27109504509E+01 -0.30921952069E+02 -0.47603934586E+02  0.56983535870E+02  0.41800000000E+01 0. -1.
         -5    1    4    4    0  501  0.23259328789E+02  0.60518889630E+02  0.36686366708E+02  0.74611622955E+02  0.41800000000E+01 0. -1.
</event>
<event>
11    1  0.9238666E-009  0.1432329E+03  0.7561462E-02  0.1104001E+00
         22   -1    0    0    0    0  0.00000000000E+00  0.00000000000E+00  0.48937703877E+03  0.48937703877E+03  0.00000000000E+00 0.  1.
         22   -1    0    0    0    0 -0.00000000000E+00 -0.00000000000E+00 -0.17283001898E+03  0.17283001898E+03  0.00000000000E+00 0.  1.
        -24    2    1    2    0    0  0.55486065200E+02  0.35509930556E+02 -0.11258072673E+03  0.15313821242E+03  0.80232371716E+02 0.  0.
         25    2    1    2    0    0 -0.10160820383E+03 -0.77588843941E+02  0.27500731175E+03  0.32805940392E+03  0.12509874179E+03 0.  0.
         24    2    1    2    0    0  0.46122138629E+02  0.42078913385E+02  0.15412043478E+03  0.18100944141E+03  0.71508201209E+02 0.  0.
        -11    1    5    5    0    0  0.57230518163E+02  0.48135648577E+02  0.96867611880E+02  0.12237527162E+03  0.00000000000E+00 0.  1.
         12    1    5    5    0    0 -0.11108379534E+02 -0.60567351916E+01  0.57252822897E+02  0.58634169788E+02  0.00000000000E+00 0. -1.
         13    1    3    3    0    0  0.93328186067E+01 -0.11359626863E+02  0.72865304508E+01  0.16408417097E+02  0.00000000000E+00 0. -1.
        -14    1    3    3    0    0  0.46153246594E+02  0.46869557419E+02 -0.11986725718E+03  0.13672979532E+03  0.00000000000E+00 0.  1.
          5    1    4    4  501    0 -0.80044107123E+01 -0.23808044343E+02 -0.67142998800E+01  0.26333396840E+02  0.41800000000E+01 0.  1.
         -5    1    4    4    0  501 -0.93603793117E+02 -0.53780799599E+02  0.28172161163E+03  0.30172600708E+03  0.41800000000E+01 0.  1.
</event>
<event>
11    1  0.9238666E-009  0.1556852E+03  0.7561462E-02  0.1091207E+00
         22   -1    0    0    0    0  0.00000000000E+00  0.00000000000E+00  0.11450748081E+03  0.11450748081E+03  0.00000000000E+00 0.  1.
         22   -1    0    0    0    0 -0.00000000000E+00 -0.00000000000E+00 -0.15140674027E+04  0.15140674027E+04  0.00000000000E+00 0.  1.
         24    2    1    2    0    0 -0.20496167292E+02 -0.48962548058E+01 -0.99221121310E+03  0.99568743769E+03  0.80413406835E+02 0.  0.
         25    2    1    2    0    0 -0.61296773375E+02  0.50826121015E+02 -0.47057134189E+03  0.49338295158E+03  0.12509500427E+03 0.  0.
        -24    2    1    2    0    0  0.81792940667E+02 -0.45929866209E+02  0.63222633142E+02  0.13950449420E+03  0.81638010793E+02 0.  0.
        -11    1    3    3    0    0 -0.71414825310E+01  0.13702531582E+02 -0.91553873110E+03  0.91566911507E+03  0.00000000000E+00 0.  1.
         12    1    3    3    0    0 -0.13354684761E+02 -0.18598786388E+02 -0.76672481996E+02  0.80018322624E+02  0.00000000000E+00 0. -1.
         11    1    5    5    0    0  0.46323035573E+02 -0.55279896018E+01 -0.10927878336E+02  0.47914515740E+02  0.00000000000E+00 0. -1.
        -12    1    5    5    0    0  0.35469905094E+02 -0.40401876607E+02  0.74150511479E+02  0.91589978455E+02  0.00000000000E+00 0.  1.
          5    1    4    4  501    0 -0.99437953580E+02  0.28579197473E+02 -0.34530932582E+03  0.36050059645E+03  0.41800000000E+01 0.  1.
         -5    1    4    4    0  501  0.38141180205E+02  0.22246923542E+02 -0.12526201607E+03  0.13288235513E+03  0.41800000000E+01 0.  1.
</event>
<event>
11    1  0.9238666E-009  0.1264865E+03  0.7561462E-02  0.1123663E+00
         22   -1    0    0    0    0  0.00000000000E+00  0.00000000000E+00  0.17029546474E+03  0.17029546474E+03  0.00000000000E+00 0. -1.
         22   -1    0    0    0    0 -0.00000000000E+00 -0.00000000000E+00 -0.41925332822E+03  0.41925332822E+03  0.00000000000E+00 0.  1.
         24    2    1    2    0    0 -0.13011924751E+02 -0.10767020704E+02 -0.30362121546E+03  0.32141291827E+03  0.10409218334E+03 0.  0.
         25    2    1    2    0    0  0.46413655725E+02 -0.23169839089E+02 -0.32689525894E+02  0.13930941548E+03  0.12508972483E+03 0.  0.
        -24    2    1    2    0    0 -0.33401730974E+02  0.33936859793E+02  0.87352877874E+02  0.12882645921E+03  0.81843419006E+02 0.  0.
        -13    1    3    3    0    0 -0.28454540634E+02  0.26889912112E+02 -0.25507811880E+03  0.25806505952E+03  0.00000000000E+00 0.  1.
         14    1    3    3    0    0  0.15442615883E+02 -0.37656932816E+02 -0.48543096661E+02  0.63347858748E+02  0.00000000000E+00 0. -1.
         11    1    5    5    0    0  0.21047550491E+02 -0.10170080098E+02  0.31454895011E+02  0.39189798813E+02  0.00000000000E+00 0. -1.
        -12    1    5    5    0    0 -0.54449281466E+02  0.44106939891E+02  0.55897982863E+02  0.89636660395E+02  0.00000000000E+00 0.  1.
          5    1    4    4  501    0 -0.13807951903E+01 -0.53745762863E+01 -0.73518488178E+02  0.73846009842E+02  0.41800000000E+01 0.  1.
         -5    1    4    4    0  501  0.47794450916E+02 -0.17795262803E+02  0.40828962284E+02  0.65463405638E+02  0.41800000000E+01 0.  1.
</event>
<event>
11    1  0.1178769E-008  0.1522337E+03  0.7561462E-02  0.1094618E+00
         22   -1    0    0    0    0  0.00000000000E+00  0.00000000000E+00  0.28268548644E+03  0.28268548644E+03  0.00000000000E+00 0.  1.
         22   -1    0    0    0    0 -0.00000000000E+00 -0.00000000000E+00 -0.87512331226E+03  0.87512331226E+03  0.00000000000E+00 0.  1.
        -24    2    1    2    0    0  0.53784377210E+02 -0.16509257167E+02 -0.47154782255E+03  0.48173868098E+03  0.80928937936E+02 0.  0.
         25    2    1    2    0    0 -0.75972801842E+02 -0.67367376745E+02 -0.36835422008E+03  0.40205940795E+03  0.12512675972E+03 0.  0.
         24    2    1    2    0    0  0.22188424632E+02  0.83876633912E+02  0.24746421682E+03  0.27401070977E+03  0.79471470118E+02 0.  0.
        -13    1    5    5    0    0  0.28415471013E+02  0.37119606665E+02  0.20590359510E+03  0.21114354043E+03  0.00000000000E+00 0.  1.
         14    1    5    5    0    0 -0.62270463804E+01  0.46757027247E+02  0.41560621719E+02  0.62867169344E+02  0.00000000000E+00 0. -1.
         11    1    3    3    0    0  0.41125815743E+02  0.28478908197E+01 -0.84693586636E+02  0.94193666559E+02  0.00000000000E+00 0. -1.
        -12    1    3    3    0    0  0.12658561467E+02 -0.19357147987E+02 -0.38685423591E+03  0.38754501442E+03  0.00000000000E+00 0.  1.
          5    1    4    4  501    0  0.19186956251E+02 -0.36785082464E+02 -0.21467348167E+03  0.21868575105E+03  0.41800000000E+01 0. -1.
         -5    1    4    4    0  501 -0.95159758094E+02 -0.30582294281E+02 -0.15368073841E+03  0.18337365690E+03  0.41800000000E+01 0. -1.
</event>
<event>
11    1  0.9238666E-009  0.2507185E+03  0.7561462E-02  0.1023517E+00
         22   -1    0    0    0    0  0.00000000000E+00  0.00000000000E+00  0.12721470173E+04  0.12721470173E+04  0.00000000000E+00 0. -1.
         22   -1    0    0    0    0 -0.00000000000E+00 -0.00000000000E+00 -0.12945650237E+04  0.12945650237E+04  0.00000000000E+00 0.  1.
         24    2    1    2    0    0  0.10471707526E+03 -0.18918666101E+03 -0.11762342006E+04  0.11986578417E+04  0.80600671975E+02 0.  0.
         25    2    1    2    0    0 -0.13133134572E+03  0.19344568840E+03  0.62317249718E+02  0.27239880017E+03  0.12509400461E+03 0.  0.
        -24    2    1    2    0    0  0.26614270461E+02 -0.42590273937E+01  0.10914989444E+04  0.10956553991E+04  0.91456816499E+02 0.  0.
        -13    1    3    3    0    0  0.93396851336E+02 -0.18967571119E+03 -0.10023513536E+04  0.10244062101E+04  0.00000000000E+00 0.  1.
         14    1    3    3    0    0  0.11320223924E+02  0.48905018488E+00 -0.17388284698E+03  0.17425163160E+03  0.00000000000E+00 0. -1.
         11    1    5    5    0    0 -0.13563839878E+02  0.30437124469E+02  0.66977431550E+03  0.67060273635E+03  0.00000000000E+00 0. -1.
        -12    1    5    5    0    0  0.40178110339E+02 -0.34696151863E+02  0.42172462891E+03  0.42505266278E+03  0.00000000000E+00 0.  1.
          5    1    4    4  501    0 -0.10864059903E+03  0.19571732099E+03  0.85457561327E+02  0.23964247679E+03  0.41800000000E+01 0. -1.
         -5    1    4    4    0  501 -0.22690746687E+02 -0.22716325860E+01 -0.23140311609E+02  0.32756323378E+02  0.41800000000E+01 0. -1.
</event>
<event>
11    1  0.9238666E-009  0.1638152E+03  0.7561462E-02  0.1083543E+00
         22   -1    0    0    0    0  0.00000000000E+00  0.00000000000E+00  0.65512719973E+03  0.65512719973E+03  0.00000000000E+00 0.  1.
         22   -1    0    0    0    0 -0.00000000000E+00 -0.00000000000E+00 -0.28383034606E+03  0.28383034606E+03  0.00000000000E+00 0. -1.
         24    2    1    2    0    0  0.59042868050E+01 -0.11420387431E+02 -0.24195178258E+03  0.25522433131E+03  0.80209153775E+02 0.  0.
         25    2    1    2    0    0  0.10200354236E+03  0.87842216610E+01  0.26860693712E+03  0.31349444330E+03  0.12508874492E+03 0.  0.
        -24    2    1    2    0    0 -0.10790782917E+03  0.26361657702E+01  0.34464169912E+03  0.37023877117E+03  0.81534029320E+02 0.  0.
        -13    1    3    3    0    0  0.35055910674E+02 -0.30198177135E+02 -0.12755902573E+03  0.13569138447E+03  0.00000000000E+00 0.  1.
         14    1    3    3    0    0 -0.29151623869E+02  0.18777789703E+02 -0.11439275685E+03  0.11953294684E+03  0.00000000000E+00 0. -1.
         13    1    5    5    0    0  0.75379097966E+01 -0.16381442403E+02  0.38970379757E+02  0.42940217020E+02  0.00000000000E+00 0. -1.
        -14    1    5    5    0    0 -0.11544573896E+03  0.19017608173E+02  0.30567131937E+03  0.32729855415E+03  0.00000000000E+00 0.  1.
          5    1    4    4  501    0  0.65474208873E+02 -0.52466624307E+02  0.18720834643E+03  0.20519272908E+03  0.41800000000E+01 0.  1.
         -5    1    4    4    0  501  0.36529333488E+02  0.61250845968E+02  0.81398590694E+02  0.10830171422E+03  0.41800000000E+01 0.  1.
</event>
<event>
11    1  0.9238666E-009  0.1294542E+03  0.7561462E-02  0.1119941E+00
         22   -1    0    0    0    0  0.00000000000E+00  0.00000000000E+00  0.19736889831E+04  0.19736889831E+04  0.00000000000E+00 0.  1.
         22   -1    0    0    0    0 -0.00000000000E+00 -0.00000000000E+00 -0.64826690406E+03  0.64826690406E+03  0.00000000000E+00 0.  1.
        -24    2    1    2    0    0 -0.42623958205E+01  0.15122928685E+02 -0.61642372925E+03  0.62185956032E+03  0.80524702981E+02 0.  0.
         25    2    1    2    0    0 -0.13662710722E+02  0.13619131411E+02  0.11452860170E+03  0.17069330247E+03  0.12508897831E+03 0.  0.
         24    2    1    2    0    0  0.17925106542E+02 -0.28742060095E+02  0.18273172065E+04  0.18294030243E+04  0.80497432686E+02 0.  0.
        -13    1    5    5    0    0  0.49706675252E+02 -0.12719695082E+02  0.11668409315E+04  0.11679684515E+04  0.00000000000E+00 0.  1.
         14    1    5    5    0    0 -0.31781568710E+02 -0.16022365014E+02  0.66047627502E+03  0.66143457284E+03  0.00000000000E+00 0. -1.
         13    1    3    3    0    0  0.10677022183E+01  0.84973577666E+01 -0.41321371691E+01  0.95089239468E+01  0.00000000000E+00 0. -1.
        -14    1    3    3    0    0 -0.53300980388E+01  0.66255709183E+01 -0.61229159208E+03  0.61235063637E+03  0.00000000000E+00 0.  1.
          5    1    4    4  501    0 -0.46492768792E+02  0.14153424605E+02  0.12643450754E+03  0.13551772605E+03  0.41800000000E+01 0. -1.
         -5    1    4    4    0  501  0.32830058070E+02 -0.53429319491E+00 -0.11905905836E+02  0.35175576411E+02  0.41800000000E+01 0. -1.
</event>
<event>
11    1  0.9238666E-009  0.1513521E+03  0.7561462E-02  0.1095505E+00
         22   -1    0    0    0    0  0.00000000000E+00  0.00000000000E+00  0.13182032729E+04  0.13182032729E+04  0.00000000000E+00 0.  1.
         22   -1    0    0    0    0 -0.00000000000E+00 -0.00000000000E+00 -0.48799966887E+03  0.48799966887E+03  0.00000000000E+00 0. -1.
        -24    2    1    2    0    0  0.23340888675E+02 -0.17437177028E+02 -0.38764879164E+03  0.39723185594E+03  0.81686654264E+02 0.  0.
         25    2    1    2    0    0  0.10675955921E+02  0.95325591203E+02 -0.25885380535E+02  0.15975505755E+03  0.12510268229E+03 0.  0.
         24    2    1    2    0    0 -0.34016844596E+02 -0.77888414175E+02  0.12437377762E+04  0.12492160283E+04  0.80207721417E+02 0.  0.
        -13    1    5    5    0    0 -0.29189381957E+02  0.80570164018E+01  0.37699851223E+03  0.37821265679E+03  0.00000000000E+00 0.  1.
         14    1    5    5    0    0 -0.48274626386E+01 -0.85945430576E+02  0.86673926401E+03  0.87100337152E+03  0.00000000000E+00 0. -1.
         13    1    3    3    0    0  0.39399226612E+02  0.14082087763E+02 -0.11650367055E+03  0.12378897166E+03  0.00000000000E+00 0. -1.
        -14    1    3    3    0    0 -0.16058337937E+02 -0.31519264791E+02 -0.27114512109E+03  0.27344288428E+03  0.00000000000E+00 0.  1.
          5    1    4    4  501    0 -0.16124069385E+02  0.10425544716E+03  0.18293229456E+02  0.10715082137E+03  0.41800000000E+01 0. -1.
         -5    1    4    4    0  501  0.26800025306E+02 -0.89298559591E+01 -0.44178609991E+02  0.52604236184E+02  0.41800000000E+01 0. -1.
</event>
<event>
11    1  0.9238666E-009  0.1334334E+03  0.7561462E-02  0.1115121E+00
         22   -1    0    0    0    0  0.00000000000E+00  0.00000000000E+00  0.66321581124E+03  0.66321581124E+03  0.00000000000E+00 0.  1.
         22   -1    0    0    0    0 -0.00000000000E+00 -0.00000000000E+00 -0.11134763314E+03  0.11134763314E+03  0.00000000000E+00 0.  1.
        -24    2    1    2    0    0  0.26695645459E+02  0.50984406323E+02 -0.59018488255E+02  0.11664053566E+03  0.82521302879E+02 0.  0.
         25    2    1    2    0    0 -0.46633608913E+02  0.24634864740E+01  0.26871761430E+03  0.30005800205E+03  0.12507951916E+03 0.  0.
         24    2    1    2    0    0  0.19937963454E+02 -0.53447892797E+02  0.34216905205E+03  0.35786490667E+03  0.87939931856E+02 0.  0.
        -13    1    5    5    0    0 -0.28060480586E+02 -0.49117604494E+02  0.17868104038E+03  0.18742156716E+03  0.00000000000E+00 0.  1.
         14    1    5    5    0    0  0.47998444040E+02 -0.43302883027E+01  0.16348801167E+03  0.17044333952E+03  0.00000000000E+00 0. -1.
         13    1    3    3    0    0 -0.17132881539E+02 -0.13991284207E+02 -0.15302671969E+02  0.26897275568E+02  0.00000000000E+00 0. -1.
        -14    1    3    3    0    0  0.43828526998E+02  0.64975690529E+02 -0.43715816286E+02  0.89743260093E+02  0.00000000000E+00 0.  1.
          5    1    4    4  501    0  0.23420271608E+02 -0.13326355079E+02  0.19558846031E+03  0.19748017386E+03  0.41800000000E+01 0. -1.
         -5    1    4    4    0  501 -0.70053880521E+02  0.15789841553E+02  0.73129153985E+02  0.10257782818E+03  0.41800000000E+01 0. -1.
</event>
<event>
11    1  0.9238666E-009  0.1415323E+03  0.7561462E-02  0.1105859E+00
         22   -1    0    0    0    0  0.00000000000E+00  0.00000000000E+00  0.75093854879E+03  0.75093854879E+03  0.00000000000E+00 0. -1.
         22   -1    0    0    0    0 -0.00000000000E+00 -0.00000000000E+00 -0.73343119400E+02  0.73343119400E+02  0.00000000000E+00 0. -1.
         24    2    1    2    0    0 -0.26440335213E+02  0.15514851447E+02 -0.30179787047E+01  0.86642608952E+02  0.80981674155E+02 0.  0.
         25    2    1    2    0    0  0.65178255532E+02 -0.61870554662E+02  0.23710638832E+03  0.28274306333E+03  0.12509208590E+03 0.  0.
        -24    2    1    2    0    0 -0.38737920319E+02  0.46355703215E+02  0.44350701977E+03  0.45489599590E+03  0.81132070150E+02 0.  0.
        -13    1    3    3    0    0  0.84469805594E+01  0.12397878201E+02  0.33093301445E+02  0.36334906977E+02  0.00000000000E+00 0.  1.
         14    1    3    3    0    0 -0.34887315772E+02  0.31169732460E+01 -0.36111280150E+02  0.50307701976E+02  0.00000000000E+00 0. -1.
         13    1    5    5    0    0 -0.60150885137E+02  0.43516136147E+02  0.39320331988E+03  0.40015076390E+03  0.00000000000E+00 0. -1.
        -14    1    5    5    0    0  0.21412964818E+02  0.28395670679E+01  0.50303699892E+02  0.54745231996E+02  0.00000000000E+00 0.  1.
          5    1    4    4  501    0  0.93877788185E+02 -0.54168036455E+02  0.11956875986E+03  0.16143536175E+03  0.41800000000E+01 0.  1.
         -5    1    4    4    0  501 -0.28699532653E+02 -0.77025182069E+01  0.11753762845E+03  0.12130770158E+03  0.41800000000E+01 0.  1.
</event>
<event>
11    1  0.9238666E-009  0.1459378E+03  0.7561462E-02  0.1101103E+00
         22   -1    0    0    0    0  0.00000000000E+00  0.00000000000E+00  0.23963243202E+03  0.23963243202E+03  0.00000000000E+00 0. -1.
         22   -1    0    0    0    0 -0.00000000000E+00 -0.00000000000E+00 -0.98383692324E+03  0.98383692324E+03  0.00000000000E+00 0.  1.
         24    2    1    2    0    0 -0.32404482703E+02  0.67649824906E+02 -0.88615038968E+03  0.89289015894E+03  0.79773263023E+02 0.  0.
         25    2    1    2    0    0  0.91861551829E+02 -0.42621736698E+02  0.77150827065E+01  0.16112703444E+03  0.12508893469E+03 0.  0.
        -24    2    1    2    0    0 -0.59457069126E+02 -0.25028088208E+02  0.13423081575E+03  0.16945216189E+03  0.80836718153E+02 0.  0.
        -11    1    3    3    0    0  0.25650362441E+02  0.11149488272E+02 -0.19140570037E+03  0.19343834758E+03  0.00000000000E+00 0.  1.
         12    1    3    3    0    0 -0.58054845144E+02  0.56500336634E+02 -0.69474468931E+03  0.69945181136E+03  0.00000000000E+00 0. -1.
         11    1    5    5    0    0 -0.53697059657E+02 -0.38426660521E+02  0.13918178832E+03  0.15405048735E+03  0.00000000000E+00 0. -1.
        -12    1    5    5    0    0 -0.57600094689E+01  0.13398572313E+02 -0.49509725638E+01  0.15401674533E+02  0.00000000000E+00 0.  1.
          5    1    4    4  501    0  0.99102667996E+02  0.12884921006E+02 -0.13881831930E+02  0.10098285820E+03  0.41800000000E+01 0. -1.
         -5    1    4    4    0  501 -0.72411161675E+01 -0.55506657704E+02  0.21596914637E+02  0.60144176232E+02  0.41800000000E+01 0. -1.
</event>
<event>
11    1  0.9238666E-009  0.2321642E+03  0.7561462E-02  0.1033854E+00
         22   -1    0    0    0    0  0.00000000000E+00  0.00000000000E+00  0.45778360051E+03  0.45778360051E+03  0.00000000000E+00 0. -1.
         22   -1    0    0    0    0 -0.00000000000E+00 -0.00000000000E+00 -0.10911585615E+04  0.10911585615E+04  0.00000000000E+00 0.  1.
        -24    2    1    2    0    0 -0.64795820711E+02  0.17084792342E+03 -0.66012140038E+03  0.68976046927E+03  0.81374015577E+02 0.  0.
         25    2    1    2    0    0  0.98732502860E+02 -0.21094221871E+03 -0.36813212775E+03  0.45323238222E+03  0.12511435591E+03 0.  0.
         24    2    1    2    0    0 -0.33936682149E+02  0.40094295292E+02  0.39487856710E+03  0.40594931056E+03  0.78144155766E+02 0.  0.
        -13    1    5    5    0    0  0.23338062091E+02  0.22126845415E+02  0.10076327183E+03  0.10577097607E+03  0.00000000000E+00 0.  1.
         14    1    5    5    0    0 -0.57274744240E+02  0.17967449877E+02  0.29411529527E+03  0.30017833448E+03  0.00000000000E+00 0. -1.
         11    1    3    3    0    0 -0.65959796498E+02  0.78443413003E+02 -0.26881595156E+03  0.28769094461E+03  0.00000000000E+00 0. -1.
        -12    1    3    3    0    0  0.11639757871E+01  0.92404510415E+02 -0.39130544882E+03  0.40206952466E+03  0.00000000000E+00 0.  1.
          5    1    4    4  501    0  0.13366336325E+02 -0.12230494540E+03 -0.26655863625E+03  0.29361222314E+03  0.41800000000E+01 0. -1.
         -5    1    4    4    0  501  0.85366166535E+02 -0.88637273315E+02 -0.10157349150E+03  0.15962015908E+03  0.41800000000E+01 0. -1.
</event>
<event>
11    1  0.9238666E-009  0.1393502E+03  0.7561462E-02  0.1108286E+00
         22   -1    0    0    0    0  0.00000000000E+00  0.00000000000E+00  0.14224200487E+03  0.14224200487E+03  0.00000000000E+00 0. -1.
         22   -1    0    0    0    0 -0.00000000000E+00 -0.00000000000E+00 -0.12605231094E+04  0.12605231094E+04  0.00000000000E+00 0. -1.
        -24    2    1    2    0    0  0.29758039260E+02 -0.56688650329E+02 -0.10366384351E+04  0.10417108113E+04  0.80268456505E+02 0.  0.
         25    2    1    2    0    0 -0.60951633133E+02  0.69236306734E+01 -0.17547596261E+03  0.22405639187E+03  0.12508563083E+03 0.  0.
         24    2    1    2    0    0  0.31193593872E+02  0.49765019656E+02  0.93833293244E+02  0.13699791112E+03  0.80710242530E+02 0.  0.
        -11    1    5    5    0    0  0.16371041300E+02 -0.17524978052E+02  0.48693917364E+01  0.24471347018E+02  0.00000000000E+00 0.  1.
         12    1    5    5    0    0  0.14822552572E+02  0.67289997708E+02  0.88963901508E+02  0.11252656410E+03  0.00000000000E+00 0. -1.
         11    1    3    3    0    0  0.13870271388E+02 -0.70557197537E+02 -0.94249724944E+03  0.94523635550E+03  0.00000000000E+00 0. -1.
        -12    1    3    3    0    0  0.15887767872E+02  0.13868547208E+02 -0.94141185699E+02  0.96474455761E+02  0.00000000000E+00 0.  1.
          5    1    4    4  501    0 -0.26218198106E+01  0.17339672641E+02 -0.16219005496E+03  0.16318892277E+03  0.41800000000E+01 0.  1.
         -5    1    4    4    0  501 -0.58329813322E+02 -0.10416041968E+02 -0.13285907651E+02  0.60867469100E+02  0.41800000000E+01 0.  1.
</event>
<event>
11    1  0.9238666E-009  0.1558041E+03  0.7561462E-02  0.1091091E+00
         22   -1    0    0    0    0  0.00000000000E+00  0.00000000000E+00  0.13028958329E+04  0.13028958329E+04  0.00000000000E+00 0. -1.
         22   -1    0    0    0    0 -0.00000000000E+00 -0.00000000000E+00 -0.17455312409E+03  0.17455312409E+03  0.00000000000E+00 0. -1.
         24    2    1    2    0    0  0.29284679011E+02  0.10332205911E+02 -0.10282797031E+03  0.13365681852E+03  0.79537455045E+02 0.  0.
         25    2    1    2    0    0 -0.10618719938E+03 -0.59143004188E+02  0.90598507847E+02  0.19654517008E+03  0.12509315729E+03 0.  0.
        -24    2    1    2    0    0  0.76902520371E+02  0.48810798276E+02  0.11405721712E+04  0.11472469684E+04  0.83511897052E+02 0.  0.
        -11    1    3    3    0    0 -0.17282961769E+02 -0.21971168805E+02 -0.42627139594E+02  0.50975543706E+02  0.00000000000E+00 0.  1.
         12    1    3    3    0    0  0.46567640780E+02  0.32303374716E+02 -0.60200830711E+02  0.82681274810E+02  0.00000000000E+00 0. -1.
         13    1    5    5    0    0  0.74673530402E+01  0.27208252263E+02  0.71128830781E+03  0.71184767134E+03  0.00000000000E+00 0. -1.
        -14    1    5    5    0    0  0.69435167331E+02  0.21602546014E+02  0.42928386342E+03  0.43539929703E+03  0.00000000000E+00 0.  1.
          5    1    4    4  501    0 -0.45524676516E+01 -0.55357204142E+02  0.75220814561E+02  0.93599083090E+02  0.41800000000E+01 0.  1.
         -5    1    4    4    0  501 -0.10163473173E+03 -0.37858000462E+01  0.15377693287E+02  0.10294608699E+03  0.41800000000E+01 0.  1.
</event>
<event>
11    1  0.9238666E-009  0.1512750E+03  0.7561462E-02  0.1095583E+00
         22   -1    0    0    0    0  0.00000000000E+00  0.00000000000E+00  0.81734128429E+03  0.81734128429E+03  0.00000000000E+00 0.  1.
         22   -1    0    0    0    0 -0.00000000000E+00 -0.00000000000E+00 -0.20888273655E+03  0.20888273655E+03  0.00000000000E+00 0.  1.
         24    2    1    2    0    0 -0.45486091446E+02 -0.99503251086E+02 -0.15712503087E+03  0.20764563511E+03  0.80365122786E+02 0.  0.
         25    2    1    2    0    0  0.85835045173E+02 -0.53983303147E+01  0.38960945450E+03  0.41813454332E+03  0.12507666583E+03 0.  0.
        -24    2    1    2    0    0 -0.40348953728E+02  0.10490158140E+03  0.37597412411E+03  0.40044384241E+03  0.79789404510E+02 0.  0.
        -11    1    3    3    0    0 -0.26495321935E+02 -0.10360090480E+03 -0.15470752011E+03  0.18806798328E+03  0.00000000000E+00 0.  1.
         12    1    3    3    0    0 -0.18990769511E+02  0.40976537133E+01 -0.24175107679E+01  0.19577651822E+02  0.00000000000E+00 0. -1.
         13    1    5    5    0    0  0.12455532056E+02  0.10583378093E+02  0.13927779050E+03  0.14023355910E+03  0.00000000000E+00 0. -1.
        -14    1    5    5    0    0 -0.52804485784E+02  0.94318203308E+02  0.23669633361E+03  0.26021028331E+03  0.00000000000E+00 0.  1.
          5    1    4    4  501    0 -0.14830893985E+02 -0.32937028330E+02  0.43969851929E+02  0.57058071561E+02  0.41800000000E+01 0.  1.
         -5    1    4    4    0  501  0.10066593916E+03  0.27538698015E+02  0.34563960257E+03  0.36107647176E+03  0.41800000000E+01 0.  1.
</event>
<event>
11    1  0.9238666E-009  0.3644850E+03  0.7561462E-02  0.9760780E-01
         22   -1    0    0    0    0  0.00000000000E+00  0.00000000000E+00  0.12477262966E+04  0.12477262966E+04  0.00000000000E+00 0.  1.
         22   -1    0    0    0    0 -0.00000000000E+00 -0.00000000000E+00 -0.21330717859E+03  0.21330717859E+03  0.00000000000E+00 0.  1.
        -24    2    1    2    0    0 -0.15160554479E+03  0.30226167712E+03  0.76235903468E+02  0.35615359615E+03  0.81774741857E+02 0.  0.
         25    2    1    2    0    0  0.17025403352E+03 -0.30854978707E+03  0.43971357972E+03  0.57722171724E+03  0.12508985425E+03 0.  0.
         24    2    1    2    0    0 -0.18648488726E+02  0.62881099444E+01  0.51846963482E+03  0.52765816179E+03  0.96047212425E+02 0.  0.
        -13    1    5    5    0    0 -0.31592907439E+02 -0.39152159193E+02  0.29350180044E+03  0.29778232021E+03  0.00000000000E+00 0.  1.
         14    1    5    5    0    0  0.12944418712E+02  0.45440269137E+02  0.22496783438E+03  0.22987584158E+03  0.00000000000E+00 0. -1.
         13    1    3    3    0    0 -0.38035956004E+02  0.26178626784E+02  0.27296743905E+02  0.53639227038E+02  0.00000000000E+00 0. -1.
        -14    1    3    3    0    0 -0.11356958879E+03  0.27608305034E+03  0.48939159563E+02  0.30251436912E+03  0.00000000000E+00 0.  1.
          5    1    4    4  501    0  0.17214129642E+03 -0.21668838606E+03  0.36868401839E+03  0.46101177904E+03  0.41800000000E+01 0.  1.
         -5    1    4    4    0  501 -0.18872629058E+01 -0.91861401004E+02  0.71029561323E+02  0.11620993820E+03  0.41800000000E+01 0.  1.
</event>
<event>
11    1  0.9238666E-009  0.1331120E+03  0.7561462E-02  0.1115503E+00
         22   -1    0    0    0    0  0.00000000000E+00  0.00000000000E+00  0.31957275592E+03  0.31957275592E+03  0.00000000000E+00 0.  1.
         22   -1    0    0    0    0 -0.00000000000E+00 -0.00000000000E+00 -0.12337926490E+03  0.12337926490E+03  0.00000000000E+00 0.  1.
        -24    2    1    2    0    0 -0.73239249166E+01  0.29298204833E+02 -0.44827520191E+02  0.98891458368E+02  0.82812977781E+02 0.  0.
         25    2    1    2    0    0  0.32569820502E+02  0.14269897063E+02  0.68120691865E+02  0.14680974231E+03  0.12509295986E+03 0.  0.
         24    2    1    2    0    0 -0.25245895585E+02 -0.43568101897E+02  0.17290031935E+03  0.19725082015E+03  0.80484972946E+02 0.  0.
        -13    1    5    5    0    0  0.13845464794E+02  0.48015148384E+01  0.10154534201E+03  0.10259730954E+03  0.00000000000E+00 0.  1.
         14    1    5    5    0    0 -0.39091360379E+02 -0.48369616735E+02  0.71354977337E+02  0.94653510607E+02  0.00000000000E+00 0. -1.
         13    1    3    3    0    0 -0.13807103989E+02  0.80039632080E+01  0.22723269472E+02  0.27767724485E+02  0.00000000000E+00 0. -1.
        -14    1    3    3    0    0  0.64831790723E+01  0.21294241625E+02 -0.67550789663E+02  0.71123733883E+02  0.00000000000E+00 0.  1.
          5    1    4    4  501    0  0.43464843436E+02 -0.11793068252E+02  0.96485245807E+02  0.10656051864E+03  0.41800000000E+01 0. -1.
         -5    1    4    4    0  501 -0.10895022935E+02  0.26062965315E+02 -0.28364553942E+02  0.40249223671E+02  0.41800000000E+01 0. -1.
</event>
<event>
11    1  0.9238666E-009  0.1377126E+03  0.7561462E-02  0.1110140E+00
         22   -1    0    0    0    0  0.00000000000E+00  0.00000000000E+00  0.55213219470E+03  0.55213219470E+03  0.00000000000E+00 0.  1.
         22   -1    0    0    0    0 -0.00000000000E+00 -0.00000000000E+00 -0.19588248245E+03  0.19588248245E+03  0.00000000000E+00 0. -1.
         24    2    1    2    0    0  0.31866984080E+02  0.12705325388E+02 -0.11895889798E+03  0.14757350539E+03  0.80310585338E+02 0.  0.
         25    2    1    2    0    0  0.23981269684E+02 -0.34025906947E+02  0.18955088202E+02  0.13318889603E+03  0.12508846077E+03 0.  0.
        -24    2    1    2    0    0 -0.55848253764E+02  0.21320581559E+02  0.45625352203E+03  0.46725227572E+03  0.81140730569E+02 0.  0.
        -11    1    3    3    0    0  0.14515652275E+02  0.16109133967E+02  0.50875914993E+01  0.22273121591E+02  0.00000000000E+00 0.  1.
         12    1    3    3    0    0  0.17351331805E+02 -0.34038085794E+01 -0.12404648948E+03  0.12530038380E+03  0.00000000000E+00 0. -1.
         13    1    5    5    0    0  0.76824147190E+01 -0.21152612755E+02  0.70602646820E+02  0.74102538825E+02  0.00000000000E+00 0. -1.
        -14    1    5    5    0    0 -0.63530668483E+02  0.42473194314E+02  0.38565087521E+03  0.39314973690E+03  0.00000000000E+00 0.  1.
          5    1    4    4  501    0  0.53209036453E+02 -0.57534415659E+02  0.41957496797E+02  0.88990530299E+02  0.41800000000E+01 0. -1.
         -5    1    4    4    0  501 -0.29227766769E+02  0.23508508712E+02 -0.23002408596E+02  0.44198365732E+02  0.41800000000E+01 0. -1.
</event>
<event>
11    1  0.9238666E-009  0.1782351E+03  0.7561462E-02  0.1071079E+00
         22   -1    0    0    0    0  0.00000000000E+00  0.00000000000E+00  0.23239467313E+04  0.23239467313E+04  0.00000000000E+00 0. -1.
         22   -1    0    0    0    0 -0.00000000000E+00 -0.00000000000E+00 -0.35937499208E+03  0.35937499208E+03  0.00000000000E+00 0. -1.
        -24    2    1    2    0    0  0.11439686512E+03 -0.64421518482E+02 -0.31095040188E+03  0.34721325834E+03  0.81425546023E+02 0.  0.
         25    2    1    2    0    0 -0.81959607642E+02  0.18209591711E+02  0.16553619351E+03  0.22382720620E+03  0.12508964928E+03 0.  0.
         24    2    1    2    0    0 -0.32437257474E+02  0.46211926771E+02  0.21099859475E+04  0.21122812588E+04  0.80645518128E+02 0.  0.
        -11    1    5    5    0    0  0.23179742991E+02  0.18080522321E+02  0.36474789560E+03  0.36593063977E+03  0.00000000000E+00 0.  1.
         12    1    5    5    0    0 -0.55617000464E+02  0.28131404450E+02  0.17452380519E+04  0.17463506190E+04  0.00000000000E+00 0. -1.
         13    1    3    3    0    0  0.12379515201E+03 -0.49889151782E+02 -0.29451128404E+03  0.32334356890E+03  0.00000000000E+00 0. -1.
        -14    1    3    3    0    0 -0.93982868898E+01 -0.14532366699E+02 -0.16439117846E+02  0.23869689439E+02  0.00000000000E+00 0.  1.
          5    1    4    4  501    0 -0.11145936478E+03 -0.67309577172E+01  0.12549468906E+03  0.16803239322E+03  0.41800000000E+01 0.  1.
         -5    1    4    4    0  501  0.29499757135E+02  0.24940549428E+02  0.40041504449E+02  0.55794812979E+02  0.41800000000E+01 0.  1.
</event>
<event>
11    1  0.9238666E-009  0.1269020E+03  0.7561462E-02  0.1123135E+00
         22   -1    0    0    0    0  0.00000000000E+00  0.00000000000E+00  0.92592793765E+02  0.92592793765E+02  0.00000000000E+00 0. -1.
         22   -1    0    0    0    0 -0.00000000000E+00 -0.00000000000E+00 -0.53839651623E+03  0.53839651623E+03  0.00000000000E+00 0. -1.
         24    2    1    2    0    0  0.16576741691E+02  0.16764024188E+02 -0.40442560310E+03  0.41309044612E+03  0.80794971141E+02 0.  0.
         25    2    1    2    0    0 -0.25328185383E+01  0.29825409564E+01 -0.50243787346E+02  0.13486186039E+03  0.12509185625E+03 0.  0.
        -24    2    1    2    0    0 -0.14043923153E+02 -0.19746565144E+02  0.88656679786E+01  0.83037003490E+02  0.78926454800E+02 0.  0.
        -13    1    3    3    0    0 -0.31223359177E+02  0.58402699667E+00 -0.20572420674E+03  0.20808096618E+03  0.00000000000E+00 0.  1.
         14    1    3    3    0    0  0.47800100868E+02  0.16179997191E+02 -0.19870139636E+03  0.20500947994E+03  0.00000000000E+00 0. -1.
         13    1    5    5    0    0 -0.81371198714E+01 -0.28549093893E+02  0.40191466409E+02  0.49966163091E+02  0.00000000000E+00 0. -1.
        -14    1    5    5    0    0 -0.59068032812E+01  0.88025287490E+01 -0.31325798430E+02  0.33070840399E+02  0.00000000000E+00 0.  1.
          5    1    4    4  501    0  0.38671623023E+02  0.36325955051E+02 -0.60641982560E+02  0.80684520736E+02  0.41800000000E+01 0. -1.
         -5    1    4    4    0  501 -0.41204441562E+02 -0.33343414094E+02  0.10398195215E+02  0.54177339650E+02  0.41800000000E+01 0. -1.
</event>
<event>
11    1  0.9238666E-009  0.1281807E+03  0.7561462E-02  0.1121525E+00
         22   -1    0    0    0    0  0.00000000000E+00  0.00000000000E+00  0.36193367573E+03  0.36193367573E+03  0.00000000000E+00 0. -1.
         22   -1    0    0    0    0 -0.00000000000E+00 -0.00000000000E+00 -0.36481797127E+03  0.36481797127E+03  0.00000000000E+00 0.  1.
         24    2    1    2    0    0 -0.19761348784E+01 -0.26384741511E+02 -0.27506616739E+03  0.28777144589E+03  0.80317799594E+02 0.  0.
         25    2    1    2    0    0  0.74811016171E+01  0.40889153803E+02 -0.22347098699E+02  0.13369505015E+03  0.12508830414E+03 0.  0.
        -24    2    1    2    0    0 -0.55049667388E+01 -0.14504412292E+02  0.29452897055E+03  0.30528515096E+03  0.78810064525E+02 0.  0.
        -11    1    3    3    0    0  0.27335308722E+02 -0.42501557339E+02 -0.14864517787E+03  0.15699996937E+03  0.00000000000E+00 0.  1.
         12    1    3    3    0    0 -0.29311443600E+02  0.16116815828E+02 -0.12642098952E+03  0.13077147651E+03  0.00000000000E+00 0. -1.
         13    1    5    5    0    0  0.15704985675E+02 -0.17643411520E+02  0.27581892691E+03  0.27682849742E+03  0.00000000000E+00 0. -1.
        -14    1    5    5    0    0 -0.21209952414E+02  0.31389992277E+01  0.18710043641E+02  0.28456653539E+02  0.00000000000E+00 0.  1.
          5    1    4    4  501    0  0.53605537137E+02  0.11963712778E+02  0.25864118734E+02  0.60853176359E+02  0.41800000000E+01 0. -1.
         -5    1    4    4    0  501 -0.46124435519E+02  0.28925441024E+02 -0.48211217433E+02  0.72841873787E+02  0.41800000000E+01 0. -1.
</event>
<event>
11    1  0.9238666E-009  0.1796065E+03  0.7561462E-02  0.1069962E+00
         22   -1    0    0    0    0  0.00000000000E+00  0.00000000000E+00  0.18027011929E+04  0.18027011929E+04  0.00000000000E+00 0.  1.
         22   -1    0    0    0    0 -0.00000000000E+00 -0.00000000000E+00 -0.21086517465E+03  0.21086517465E+03  0.00000000000E+00 0. -1.
        -24    2    1    2    0    0  0.10938029717E+03  0.62575720934E+02 -0.13908472323E+03  0.20367432665E+03  0.79113215342E+02 0.  0.
         25    2    1    2    0    0 -0.15357033719E+03 -0.37294077069E+02  0.22933445769E+03  0.30531406520E+03  0.12509072018E+03 0.  0.
         24    2    1    2    0    0  0.44190040022E+02 -0.25281643865E+02  0.15015862838E+04  0.15045779757E+04  0.80009975525E+02 0.  0.
        -13    1    5    5    0    0  0.28498149092E+01  0.20323512056E+02  0.80942311466E+03  0.80968323753E+03  0.00000000000E+00 0.  1.
         14    1    5    5    0    0  0.41340225113E+02 -0.45605155921E+02  0.69216316915E+03  0.69489473820E+03  0.00000000000E+00 0. -1.
         13    1    3    3    0    0  0.94612243540E+02  0.65652577934E+02 -0.74049802685E+02  0.13691278572E+03  0.00000000000E+00 0. -1.
        -14    1    3    3    0    0  0.14768053633E+02 -0.30768570001E+01 -0.65034920541E+02  0.66761540927E+02  0.00000000000E+00 0.  1.
          5    1    4    4  501    0 -0.14246428874E+03  0.46596469825E+01  0.21759902619E+03  0.26016263082E+03  0.41800000000E+01 0. -1.
         -5    1    4    4    0  501 -0.11106048459E+02 -0.41953724052E+02  0.11735431499E+02  0.45151434381E+02  0.41800000000E+01 0. -1.
</event>
<event>
11    1  0.9238666E-009  0.1532535E+03  0.7561462E-02  0.1093600E+00
         22   -1    0    0    0    0  0.00000000000E+00  0.00000000000E+00  0.30020413900E+03  0.30020413900E+03  0.00000000000E+00 0. -1.
         22   -1    0    0    0    0 -0.00000000000E+00 -0.00000000000E+00 -0.12025998443E+04  0.12025998443E+04  0.00000000000E+00 0.  1.
         24    2    1    2    0    0 -0.10676639474E+03 -0.19800651688E+02 -0.68269606395E+03  0.69695623292E+03  0.88785956255E+02 0.  0.
         25    2    1    2    0    0  0.60370847382E+02  0.11726832550E+02 -0.49541276240E+03  0.51464872292E+03  0.12508934822E+03 0.  0.
        -24    2    1    2    0    0  0.46395547355E+02  0.80738191374E+01  0.27571312106E+03  0.29119902745E+03  0.81002562246E+02 0.  0.
        -13    1    3    3    0    0 -0.11275813671E+03 -0.32312123375E+02 -0.66010903367E+03  0.67044940678E+03  0.00000000000E+00 0.  1.
         14    1    3    3    0    0  0.59917419741E+01  0.12511471687E+02 -0.22587030271E+02  0.26506826142E+02  0.00000000000E+00 0. -1.
         11    1    5    5    0    0  0.69153867841E+02  0.43673572203E+00  0.21753601362E+03  0.22826380659E+03  0.00000000000E+00 0. -1.
        -12    1    5    5    0    0 -0.22758320486E+02  0.76370834154E+01  0.58177107440E+02  0.62935220858E+02  0.00000000000E+00 0.  1.
          5    1    4    4  501    0 -0.38220580247E+02  0.58186443801E+01 -0.17799437209E+03  0.18219258567E+03  0.41800000000E+01 0.  1.
         -5    1    4    4    0  501  0.98591427629E+02  0.59081881703E+01 -0.31741839031E+03  0.33245613725E+03  0.41800000000E+01 0.  1.
</event>
<event>
11    1  0.9238666E-009  0.1627162E+03  0.7561462E-02  0.1084550E+00
         22   -1    0    0    0    0  0.00000000000E+00  0.00000000000E+00  0.14383358632E+03  0.14383358632E+03  0.00000000000E+00 0.  1.
         22   -1    0    0    0    0 -0.00000000000E+00 -0.00000000000E+00 -0.11734154087E+04  0.11734154087E+04  0.00000000000E+00 0.  1.
         24    2    1    2    0    0  0.26768299261E+02 -0.10285981850E+03 -0.10313516690E+04  0.10397587618E+04  0.78200597804E+02 0.  0.
         25    2    1    2    0    0  0.17069823312E+02  0.83628960733E+02 -0.61901435496E+02  0.16359941194E+03  0.12509115848E+03 0.  0.
        -24    2    1    2    0    0 -0.43838122573E+02  0.19230857764E+02  0.63671282151E+02  0.11389082123E+03  0.81397052213E+02 0.  0.
        -13    1    3    3    0    0  0.25416644396E+02 -0.14954620924E+01 -0.34783335535E+03  0.34876393923E+03  0.00000000000E+00 0.  1.
         14    1    3    3    0    0  0.13516548650E+01 -0.10136435640E+03 -0.68351831367E+03  0.69099482259E+03  0.00000000000E+00 0. -1.
         11    1    5    5    0    0 -0.17347213671E+02 -0.30182251772E+02  0.98656185417E+01  0.36183208445E+02  0.00000000000E+00 0. -1.
        -12    1    5    5    0    0 -0.26490908902E+02  0.49413109536E+02  0.53805663609E+02  0.77707612787E+02  0.00000000000E+00 0.  1.
          5    1    4    4  501    0  0.68802532355E+02  0.66922603430E+02 -0.31120682693E+02  0.10098709125E+03  0.41800000000E+01 0.  1.
         -5    1    4    4    0  501 -0.51732709043E+02  0.16706357303E+02 -0.30780752803E+02  0.62612320691E+02  0.41800000000E+01 0.  1.
</event>
<event>
11    1  0.9238666E-009  0.1798338E+03  0.7561462E-02  0.1069777E+00
         22   -1    0    0    0    0  0.00000000000E+00  0.00000000000E+00  0.37333576574E+03  0.37333576574E+03  0.00000000000E+00 0.  1.
         22   -1    0    0    0    0 -0.00000000000E+00 -0.00000000000E+00 -0.26463775713E+03  0.26463775713E+03  0.00000000000E+00 0. -1.
        -24    2    1    2    0    0  0.95764756030E+02  0.75582795996E+02 -0.14768143379E+03  0.20782097385E+03  0.80598410266E+02 0.  0.
         25    2    1    2    0    0 -0.10604720982E+03 -0.12784580891E+03  0.66239046700E+02  0.21823359022E+03  0.12509087506E+03 0.  0.
         24    2    1    2    0    0  0.10282453793E+02  0.52263012912E+02  0.19014039569E+03  0.21191895881E+03  0.76935841148E+02 0.  0.
        -11    1    5    5    0    0  0.91658942456E+00 -0.21393432399E+01  0.13099104091E+03  0.13101171599E+03  0.00000000000E+00 0.  1.
         12    1    5    5    0    0  0.93658643687E+01  0.54402356152E+02  0.59149354776E+02  0.80907242819E+02  0.00000000000E+00 0. -1.
         11    1    3    3    0    0  0.92855815356E+02  0.44905263160E+02 -0.71108358147E+02  0.12528002117E+03  0.00000000000E+00 0. -1.
        -12    1    3    3    0    0  0.29089406746E+01  0.30677532836E+02 -0.76573075639E+02  0.82540952681E+02  0.00000000000E+00 0.  1.
          5    1    4    4  501    0 -0.68282079346E+02  0.55274282600E+01  0.14033385366E+02  0.70052859526E+02  0.41800000000E+01 0. -1.
         -5    1    4    4    0  501 -0.37765130478E+02 -0.13337323717E+03  0.52205661334E+02  0.14818073069E+03  0.41800000000E+01 0. -1.
</event>
<event>
11    1  0.9238666E-009  0.1327302E+03  0.7561462E-02  0.1115959E+00
         22   -1    0    0    0    0  0.00000000000E+00  0.00000000000E+00  0.70638431505E+03  0.70638431505E+03  0.00000000000E+00 0.  1.
         22   -1    0    0    0    0 -0.00000000000E+00 -0.00000000000E+00 -0.31196811193E+03  0.31196811193E+03  0.00000000000E+00 0.  1.
         24    2    1    2    0    0 -0.70697256163E+01  0.75967696543E+01 -0.28121263542E+03  0.29269855777E+03  0.80524576810E+02 0.  0.
         25    2    1    2    0    0  0.23787255352E+02 -0.46854067938E+02  0.20237945468E+03  0.24365194130E+03  0.12509071757E+03 0.  0.
        -24    2    1    2    0    0 -0.16717529735E+02  0.39257298284E+02  0.47324938386E+03  0.48200192791E+03  0.80871922918E+02 0.  0.
        -11    1    3    3    0    0  0.86479665864E+01 -0.30501752477E+02 -0.18973542810E+03  0.19236599727E+03  0.00000000000E+00 0.  1.
         12    1    3    3    0    0 -0.15717692203E+02  0.38098522131E+02 -0.91477207326E+02  0.10033256050E+03  0.00000000000E+00 0. -1.
         11    1    5    5    0    0  0.31786159112E+01 -0.18981166728E+02  0.39841029712E+02  0.44245857862E+02  0.00000000000E+00 0. -1.
        -12    1    5    5    0    0 -0.19896145646E+02  0.58238465012E+02  0.43340835415E+03  0.43775607005E+03  0.00000000000E+00 0.  1.
          5    1    4    4  501    0  0.17819641518E+02  0.24618859735E+02  0.15402806845E+03  0.15705332263E+03  0.41800000000E+01 0.  1.
         -5    1    4    4    0  501  0.59676138337E+01 -0.71472927673E+02  0.48351386234E+02  0.86598618671E+02  0.41800000000E+01 0.  1.
</event>
<event>
11    1  0.9238666E-009  0.1462108E+03  0.7561462E-02  0.1100815E+00
         22   -1    0    0    0    0  0.00000000000E+00  0.00000000000E+00  0.75197263927E+03  0.75197263927E+03  0.00000000000E+00 0. -1.
         22   -1    0    0    0    0 -0.00000000000E+00 -0.00000000000E+00 -0.18897659542E+03  0.18897659542E+03  0.00000000000E+00 0. -1.
        -24    2    1    2    0    0 -0.43825040146E+02  0.20586829980E+01 -0.14610130218E+03  0.17454872917E+03  0.84833932101E+02 0.  0.
         25    2    1    2    0    0  0.63997401964E+02  0.67953545982E+02  0.25024502932E+03  0.29493361562E+03  0.12509960452E+03 0.  0.
         24    2    1    2    0    0 -0.20172361818E+02 -0.70012228980E+02  0.45885231671E+03  0.47146688990E+03  0.80168218988E+02 0.  0.
        -13    1    5    5    0    0  0.29119141133E+02 -0.13240995213E+02  0.17045753101E+03  0.17343303668E+03  0.00000000000E+00 0.  1.
         14    1    5    5    0    0 -0.49291502951E+02 -0.56771233766E+02  0.28839478570E+03  0.29803385322E+03  0.00000000000E+00 0. -1.
         13    1    3    3    0    0 -0.50545753095E+02 -0.32452938103E+02 -0.85594930840E+02  0.10456843947E+03  0.00000000000E+00 0. -1.
        -14    1    3    3    0    0  0.67207129489E+01  0.34511621101E+02 -0.60506371341E+02  0.69980289700E+02  0.00000000000E+00 0.  1.
          5    1    4    4  501    0 -0.37848160327E+00 -0.33368926346E+01 -0.13331160218E+02  0.14369075598E+02  0.41800000000E+01 0.  1.
         -5    1    4    4    0  501  0.64375883567E+02  0.71290438616E+02  0.26357618954E+03  0.28056454002E+03  0.41800000000E+01 0.  1.
</event>
<event>
11    1  0.9238666E-009  0.1438025E+03  0.7561462E-02  0.1103385E+00
         22   -1    0    0    0    0  0.00000000000E+00  0.00000000000E+00  0.15654163237E+04  0.15654163237E+04  0.00000000000E+00 0. -1.
         22   -1    0    0    0    0 -0.00000000000E+00 -0.00000000000E+00 -0.79804533906E+03  0.79804533906E+03  0.00000000000E+00 0. -1.
        -24    2    1    2    0    0 -0.61048687424E+02  0.33259565020E+02 -0.73826684271E+03  0.74597347343E+03  0.81273311241E+02 0.  0.
         25    2    1    2    0    0  0.10738920462E+03 -0.60104763151E+02  0.87682254104E+02  0.19616436503E+03  0.12508899472E+03 0.  0.
         24    2    1    2    0    0 -0.46340517196E+02  0.26845198131E+02  0.14179555732E+04  0.14213238243E+04  0.81824798490E+02 0.  0.
        -11    1    5    5    0    0  0.10255856396E+02 -0.12517516582E+02  0.81480824817E+02  0.83072231369E+02  0.00000000000E+00 0.  1.
         12    1    5    5    0    0 -0.56596373592E+02  0.39362714714E+02  0.13364747484E+04  0.13382515929E+04  0.00000000000E+00 0. -1.
         13    1    3    3    0    0 -0.51974588656E+02  0.38437250290E+02 -0.72943338534E+03  0.73229218466E+03  0.00000000000E+00 0. -1.
        -14    1    3    3    0    0 -0.90740987680E+01 -0.51776852698E+01 -0.88334573699E+01  0.13681288766E+02  0.00000000000E+00 0.  1.
          5    1    4    4  501    0  0.89462668613E+02 -0.77450932167E+02  0.11060607378E+03  0.16202898483E+03  0.41800000000E+01 0.  1.
         -5    1    4    4    0  501  0.17926536007E+02  0.17346169015E+02 -0.22923819674E+02  0.34135380197E+02  0.41800000000E+01 0.  1.
</event>
<event>
11    1  0.9238666E-009  0.1316202E+03  0.7561462E-02  0.1117294E+00
         22   -1    0    0    0    0  0.00000000000E+00  0.00000000000E+00  0.12384856212E+03  0.12384856212E+03  0.00000000000E+00 0. -1.
         22   -1    0    0    0    0 -0.00000000000E+00 -0.00000000000E+00 -0.55462559826E+03  0.55462559826E+03  0.00000000000E+00 0.  1.
         24    2    1    2    0    0  0.18304610158E+02  0.15997584438E+02 -0.39399977444E+03  0.40263108187E+03  0.79277893342E+02 0.  0.
         25    2    1    2    0    0 -0.41208930938E+02 -0.45591336431E+02 -0.96799910385E+02  0.16968827849E+03  0.12508854168E+03 0.  0.
        -24    2    1    2    0    0  0.22904320780E+02  0.29593751993E+02  0.60022648684E+02  0.10615480002E+03  0.79156333576E+02 0.  0.
        -13    1    3    3    0    0  0.83082332655E+01  0.45809102527E+02 -0.29795716104E+03  0.30157249614E+03  0.00000000000E+00 0.  1.
         14    1    3    3    0    0  0.99963768927E+01 -0.29811518089E+02 -0.96042613396E+02  0.10105858573E+03  0.00000000000E+00 0. -1.
         11    1    5    5    0    0 -0.35030964349E+00  0.37512029320E+02  0.70175949917E+02  0.79573481809E+02  0.00000000000E+00 0. -1.
        -12    1    5    5    0    0  0.23254630424E+02 -0.79182773271E+01 -0.10153301233E+02  0.26581318212E+02  0.00000000000E+00 0.  1.
          5    1    4    4  501    0  0.86249145636E+01 -0.63657163060E+02 -0.62453236374E+01  0.64676889438E+02  0.41800000000E+01 0.  1.
         -5    1    4    4    0  501 -0.49833845502E+02  0.18065826629E+02 -0.90554586747E+02  0.10501138905E+03  0.41800000000E+01 0.  1.
</event>
<event>
11    1  0.9238666E-009  0.1381821E+03  0.7561462E-02  0.1109606E+00
         22   -1    0    0    0    0  0.00000000000E+00  0.00000000000E+00  0.21864743040E+04  0.21864743040E+04  0.00000000000E+00 0. -1.
         22   -1    0    0    0    0 -0.00000000000E+00 -0.00000000000E+00 -0.84740805252E+02  0.84740805252E+02  0.00000000000E+00 0. -1.
         24    2    1    2    0    0 -0.83557328647E+01  0.23815640091E+02  0.80203718988E+01  0.84832030024E+02  0.80592456024E+02 0.  0.
         25    2    1    2    0    0  0.27835752258E+02  0.32122157704E+02  0.51644239891E+02  0.14184966466E+03  0.12509011844E+03 0.  0.
        -24    2    1    2    0    0 -0.19480019393E+02 -0.55937797795E+02  0.20420688870E+04  0.20445334146E+04  0.81012565781E+02 0.  0.
        -13    1    3    3    0    0 -0.19905582540E+01  0.50797141676E+02  0.20004412872E+02  0.54630471891E+02  0.00000000000E+00 0.  1.
         14    1    3    3    0    0 -0.63651746107E+01 -0.26981501585E+02 -0.11984040974E+02  0.30201558133E+02  0.00000000000E+00 0. -1.
         11    1    5    5    0    0 -0.35986195092E+02 -0.66858612825E+02  0.18203801842E+04  0.18219629786E+04  0.00000000000E+00 0. -1.
        -12    1    5    5    0    0  0.16506175699E+02  0.10920815030E+02  0.22168870282E+03  0.22257043603E+03  0.00000000000E+00 0.  1.
          5    1    4    4  501    0  0.50868517022E+02  0.12811054009E+02  0.82960146739E+02  0.98242493229E+02  0.41800000000E+01 0. -1.
         -5    1    4    4    0  501 -0.23032764764E+02  0.19311103695E+02 -0.31315906849E+02  0.43607171433E+02  0.41800000000E+01 0. -1.
</event>
<event>
11    1  0.9238666E-009  0.1257796E+03  0.7561462E-02  0.1124566E+00
         22   -1    0    0    0    0  0.00000000000E+00  0.00000000000E+00  0.52495479734E+03  0.52495479734E+03  0.00000000000E+00 0. -1.
         22   -1    0    0    0    0 -0.00000000000E+00 -0.00000000000E+00 -0.24404096532E+03  0.24404096532E+03  0.00000000000E+00 0.  1.
         24    2    1    2    0    0 -0.10135570538E+02 -0.85565754788E+01 -0.20724336218E+03  0.22448883550E+03  0.85261253343E+02 0.  0.
         25    2    1    2    0    0  0.24972937805E+02 -0.15713725571E+02  0.15936071681E+03  0.20473027418E+03  0.12509227917E+03 0.  0.
        -24    2    1    2    0    0 -0.14837367266E+02  0.24270301049E+02  0.32879647740E+03  0.33977665298E+03  0.80819894710E+02 0.  0.
        -13    1    3    3    0    0 -0.15488205993E+02  0.94263529261E+01 -0.20476160892E+03  0.20556278151E+03  0.00000000000E+00 0.  1.
         14    1    3    3    0    0  0.53526354543E+01 -0.17982928405E+02 -0.24817532594E+01  0.18926053988E+02  0.00000000000E+00 0. -1.
         13    1    5    5    0    0 -0.47419911235E+02  0.69216681603E+01  0.16172195597E+03  0.16867290392E+03  0.00000000000E+00 0. -1.
        -14    1    5    5    0    0  0.32582543969E+02  0.17348632889E+02  0.16707452142E+03  0.17110374906E+03  0.00000000000E+00 0.  1.
          5    1    4    4  501    0  0.11831582865E+02  0.50351747223E+02  0.10833832426E+03  0.12012472562E+03  0.41800000000E+01 0. -1.
         -5    1    4    4    0  501  0.13141354940E+02 -0.66065472793E+02  0.51022392547E+02  0.84605548555E+02  0.41800000000E+01 0. -1.
</event>
<event>
11    1  0.9238666E-009  0.1363598E+03  0.7561462E-02  0.1111693E+00
         22   -1    0    0    0    0  0.00000000000E+00  0.00000000000E+00  0.40248038939E+03  0.40248038939E+03  0.00000000000E+00 0.  1.
         22   -1    0    0    0    0 -0.00000000000E+00 -0.00000000000E+00 -0.49416020171E+03  0.49416020171E+03  0.00000000000E+00 0. -1.
         24    2    1    2    0    0  0.47267061737E+02 -0.88704812675E+01 -0.40158027007E+03  0.41228636519E+03  0.80002956462E+02 0.  0.
         25    2    1    2    0    0 -0.79423956946E+02 -0.32513217850E+02 -0.84902801442E+01  0.15193524318E+03  0.12508780513E+03 0.  0.
        -24    2    1    2    0    0  0.32156895209E+02  0.41383699117E+02  0.31839073790E+03  0.33241898274E+03  0.79893939934E+02 0.  0.
        -11    1    3    3    0    0  0.28108658809E+02 -0.25555949344E+02 -0.69245381982E+02  0.78981809125E+02  0.00000000000E+00 0.  1.
         12    1    3    3    0    0  0.19158402928E+02  0.16685468077E+02 -0.33233488809E+03  0.33330455606E+03  0.00000000000E+00 0. -1.
         11    1    5    5    0    0 -0.26113195512E+02  0.15059076001E+02  0.13086830348E+03  0.13429515108E+03  0.00000000000E+00 0. -1.
        -12    1    5    5    0    0  0.58270090721E+02  0.26324623116E+02  0.18752243443E+03  0.19812383165E+03  0.00000000000E+00 0.  1.
          5    1    4    4  501    0 -0.48464716552E+02  0.24678509617E+02 -0.50554125271E+02  0.74371026410E+02  0.41800000000E+01 0. -1.
         -5    1    4    4    0  501 -0.30959240394E+02 -0.57191727467E+02  0.42063845127E+02  0.77564216771E+02  0.41800000000E+01 0. -1.
</event>
<event>
11    1  0.9238666E-009  0.1604818E+03  0.7561462E-02  0.1086625E+00
         22   -1    0    0    0    0  0.00000000000E+00  0.00000000000E+00  0.21244390899E+04  0.21244390899E+04  0.00000000000E+00 0.  1.
         22   -1    0    0    0    0 -0.00000000000E+00 -0.00000000000E+00 -0.23900064251E+03  0.23900064251E+03  0.00000000000E+00 0.  1.
         24    2    1    2    0    0 -0.10745751287E+03 -0.14108034902E+02 -0.19264127304E+03  0.23310803880E+03  0.74044202705E+02 0.  0.
         25    2    1    2    0    0  0.75083705113E+02 -0.85286307819E+02  0.27827571960E+03  0.32557058617E+03  0.12509002113E+03 0.  0.
        -24    2    1    2    0    0  0.32373807756E+02  0.99394342721E+02  0.17998040009E+04  0.18047611075E+04  0.83312152112E+02 0.  0.
        -11    1    3    3    0    0 -0.67933016147E+02 -0.25380727380E+02 -0.17294004674E+03  0.18752955973E+03  0.00000000000E+00 0.  1.
         12    1    3    3    0    0 -0.39524496721E+02  0.11272692478E+02 -0.19701226298E+02  0.45578479071E+02  0.00000000000E+00 0. -1.
         11    1    5    5    0    0  0.49473730256E+02  0.72021987893E+02  0.86541791677E+03  0.86981778976E+03  0.00000000000E+00 0. -1.
        -12    1    5    5    0    0 -0.17099922500E+02  0.27372354829E+02  0.93438608409E+03  0.93494331770E+03  0.00000000000E+00 0.  1.
          5    1    4    4  501    0  0.69695770371E+02  0.12451448021E+02  0.11147155012E+03  0.13212084563E+03  0.41800000000E+01 0.  1.
         -5    1    4    4    0  501  0.53879347416E+01 -0.97737755841E+02  0.16680416948E+03  0.19344974054E+03  0.41800000000E+01 0.  1.
</event>
<event>
11    1  0.9238666E-009  0.1483371E+03  0.7561462E-02  0.1098590E+00
         22   -1    0    0    0    0  0.00000000000E+00  0.00000000000E+00  0.39771737017E+04  0.39771737017E+04  0.00000000000E+00 0. -1.
         22   -1    0    0    0    0 -0.00000000000E+00 -0.00000000000E+00 -0.14171268498E+03  0.14171268498E+03  0.00000000000E+00 0.  1.
         24    2    1    2    0    0 -0.59256742161E+02  0.49583546194E+02 -0.88817391945E+02  0.14091038424E+03  0.77442351005E+02 0.  0.
         25    2    1    2    0    0  0.88562772044E+02 -0.55505004808E+02  0.22645105392E+03  0.27901808086E+03  0.12508732740E+03 0.  0.
        -24    2    1    2    0    0 -0.29306029882E+02  0.59214586134E+01  0.36978273548E+04  0.36989579216E+04  0.86421369589E+02 0.  0.
        -13    1    3    3    0    0 -0.44726295830E+02  0.18668683568E+02 -0.94573876780E+02  0.10626937213E+03  0.00000000000E+00 0.  1.
         14    1    3    3    0    0 -0.14530446331E+02  0.30914862627E+02  0.57564848347E+01  0.34641012102E+02  0.00000000000E+00 0. -1.
         11    1    5    5    0    0 -0.55360447004E+01 -0.25197769513E+02  0.29448599533E+04  0.29449729574E+04  0.00000000000E+00 0. -1.
        -12    1    5    5    0    0 -0.23769985182E+02  0.31119228127E+02  0.75296740150E+03  0.75398496423E+03  0.00000000000E+00 0.  1.
          5    1    4    4  501    0 -0.29486447755E+02 -0.22666616767E+02  0.77772290424E+02  0.86308908432E+02  0.41800000000E+01 0. -1.
         -5    1    4    4    0  501  0.11804921980E+03 -0.32838388041E+02  0.14867876350E+03  0.19270917243E+03  0.41800000000E+01 0. -1.
</event>
<event>
11    1  0.9238666E-009  0.1663391E+03  0.7561462E-02  0.1081262E+00
         22   -1    0    0    0    0  0.00000000000E+00  0.00000000000E+00  0.16104401271E+04  0.16104401271E+04  0.00000000000E+00 0. -1.
         22   -1    0    0    0    0 -0.00000000000E+00 -0.00000000000E+00 -0.55866854300E+03  0.55866854300E+03  0.00000000000E+00 0.  1.
        -24    2    1    2    0    0 -0.42043442814E+02  0.96762479377E+02 -0.33026164256E+03  0.35588419747E+03  0.80313018636E+02 0.  0.
         25    2    1    2    0    0  0.64259783891E+02 -0.10378814792E+03 -0.17877454977E+03  0.25001584733E+03  0.12508511020E+03 0.  0.
         24    2    1    2    0    0 -0.22216341076E+02  0.70256685483E+01  0.15608077765E+04  0.15632086253E+04  0.83410823120E+02 0.  0.
        -13    1    5    5    0    0 -0.26547795026E+02 -0.99510426677E+01  0.17434747280E+03  0.17663762324E+03  0.00000000000E+00 0.  1.
         14    1    5    5    0    0  0.43314539493E+01  0.16976711216E+02  0.13864603037E+04  0.13865710021E+04  0.00000000000E+00 0. -1.
         13    1    3    3    0    0 -0.11120772553E+02  0.11529257270E+02 -0.30032058047E+01  0.16297686967E+02  0.00000000000E+00 0. -1.
        -14    1    3    3    0    0 -0.30922670261E+02  0.85233222107E+02 -0.32725843676E+03  0.33958651050E+03  0.00000000000E+00 0.  1.
          5    1    4    4  501    0  0.73482009134E+02 -0.12775365672E+03 -0.16206085263E+03  0.21909311908E+03  0.41800000000E+01 0. -1.
         -5    1    4    4    0  501 -0.92222252434E+01  0.23965508798E+02 -0.16713697139E+02  0.30922728250E+02  0.41800000000E+01 0. -1.
</event>
<event>
11    1  0.9238666E-009  0.1561725E+03  0.7561462E-02  0.1090733E+00
         22   -1    0    0    0    0  0.00000000000E+00  0.00000000000E+00  0.26113519239E+03  0.26113519239E+03  0.00000000000E+00 0. -1.
         22   -1    0    0    0    0 -0.00000000000E+00 -0.00000000000E+00 -0.17170190615E+04  0.17170190615E+04  0.00000000000E+00 0. -1.
         24    2    1    2    0    0 -0.13017345161E+02 -0.41115001414E+02 -0.13797275320E+04  0.13827413292E+04  0.80409118530E+02 0.  0.
         25    2    1    2    0    0  0.10514546540E+03  0.27338641332E+02 -0.29840856303E+03  0.34131939443E+03  0.12509311859E+03 0.  0.
        -24    2    1    2    0    0 -0.92128120239E+02  0.13776360083E+02  0.22225222588E+03  0.25409353029E+03  0.80561104687E+02 0.  0.
        -11    1    3    3    0    0 -0.97846957577E+00  0.20887777000E+02 -0.15738307703E+03  0.15876614742E+03  0.00000000000E+00 0.  1.
         12    1    3    3    0    0 -0.12038875585E+02 -0.62002778414E+02 -0.12223444550E+04  0.12239751818E+04  0.00000000000E+00 0. -1.
         11    1    5    5    0    0 -0.97383186775E+02 -0.74766310407E+01  0.20152217462E+03  0.22394323375E+03  0.00000000000E+00 0. -1.
        -12    1    5    5    0    0  0.52550665361E+01  0.21252991123E+02  0.20730051258E+02  0.30150296535E+02  0.00000000000E+00 0.  1.
          5    1    4    4  501    0  0.14752801248E+02  0.42612696141E+02 -0.22538458799E+02  0.50585981676E+02  0.41800000000E+01 0. -1.
         -5    1    4    4    0  501  0.90392664151E+02 -0.15274054809E+02 -0.27587010423E+03  0.29073341275E+03  0.41800000000E+01 0. -1.
</event>
<event>
11    1  0.9238666E-009  0.1709849E+03  0.7561462E-02  0.1077178E+00
         22   -1    0    0    0    0  0.00000000000E+00  0.00000000000E+00  0.56530231149E+03  0.56530231149E+03  0.00000000000E+00 0. -1.
         22   -1    0    0    0    0 -0.00000000000E+00 -0.00000000000E+00 -0.23153157374E+04  0.23153157374E+04  0.00000000000E+00 0. -1.
        -24    2    1    2    0    0  0.17447061404E+02 -0.19700404322E+02 -0.20840181600E+04  0.20854876231E+04  0.73718578250E+02 0.  0.
         25    2    1    2    0    0 -0.11113830792E+03  0.87258541440E+02 -0.18076884233E+03  0.26132522594E+03  0.12509085823E+03 0.  0.
         24    2    1    2    0    0  0.93691246519E+02 -0.67558137117E+02  0.51477357651E+03  0.53380519982E+03  0.81326531403E+02 0.  0.
        -11    1    5    5    0    0  0.13866306831E+02  0.12412112293E+02  0.24997123642E+02  0.31163940493E+02  0.00000000000E+00 0.  1.
         12    1    5    5    0    0  0.79824939688E+02 -0.79970249410E+02  0.48977645287E+03  0.50264125932E+03  0.00000000000E+00 0. -1.
         11    1    3    3    0    0 -0.20039812346E+02  0.63678404080E+01 -0.12808850953E+04  0.12810576766E+04  0.00000000000E+00 0. -1.
        -12    1    3    3    0    0  0.37486873750E+02 -0.26068244730E+02 -0.80313306478E+03  0.80442994650E+03  0.00000000000E+00 0.  1.
          5    1    4    4  501    0 -0.82421131809E+01  0.76404405957E+02 -0.11592632109E+03  0.13914722420E+03  0.41800000000E+01 0.  1.
         -5    1    4    4    0  501 -0.10289619474E+03  0.10854135482E+02 -0.64842521242E+02  0.12217800174E+03  0.41800000000E+01 0.  1.
</event>
<event>
11    1  0.9238666E-009  0.1564371E+03  0.7561462E-02  0.1090477E+00
         22   -1    0    0    0    0  0.00000000000E+00  0.00000000000E+00  0.81845393699E+02  0.81845393699E+02  0.00000000000E+00 0. -1.
         22   -1    0    0    0    0 -0.00000000000E+00 -0.00000000000E+00 -0.19685047802E+04  0.19685047802E+04  0.00000000000E+00 0. -1.
        -24    2    1    2    0    0  0.75522975307E+01 -0.58483659212E+02 -0.15811261268E+04  0.15842972951E+04  0.80998239388E+02 0.  0.
         25    2    1    2    0    0 -0.85478684025E+02  0.99317424612E+02 -0.29619771584E+03  0.34720498507E+03  0.12509060130E+03 0.  0.
         24    2    1    2    0    0  0.77926386494E+02 -0.40833765400E+02 -0.93355438997E+01  0.11884789378E+03  0.79358373013E+02 0.  0.
        -13    1    5    5    0    0  0.36973624481E+02 -0.11947661508E+02 -0.43399223742E+02  0.58251936828E+02  0.00000000000E+00 0.  1.
         14    1    5    5    0    0  0.40952762013E+02 -0.28886103892E+02  0.34063679842E+02  0.60595956952E+02  0.00000000000E+00 0. -1.
         11    1    3    3    0    0  0.35993928120E+02 -0.24098645555E+02 -0.11610425413E+04  0.11618502874E+04  0.00000000000E+00 0. -1.
        -12    1    3    3    0    0 -0.28441630590E+02 -0.34385013657E+02 -0.42008358549E+03  0.42244700769E+03  0.00000000000E+00 0.  1.
          5    1    4    4  501    0 -0.37246288605E+02  0.10214385602E+03 -0.10970466562E+03  0.15450967411E+03  0.41800000000E+01 0. -1.
         -5    1    4    4    0  501 -0.48232395420E+02 -0.28264314034E+01 -0.18649305023E+03  0.19269531096E+03  0.41800000000E+01 0. -1.
</event>
<event>
11    1  0.9238666E-009  0.1686251E+03  0.7561462E-02  0.1079234E+00
         22   -1    0    0    0    0  0.00000000000E+00  0.00000000000E+00  0.25039698388E+03  0.25039698388E+03  0.00000000000E+00 0.  1.
         22   -1    0    0    0    0 -0.00000000000E+00 -0.00000000000E+00 -0.14884033938E+04  0.14884033938E+04  0.00000000000E+00 0. -1.
         24    2    1    2    0    0  0.10032135469E+03  0.63534302562E+02 -0.13412626855E+04  0.13493320959E+04  0.87238360882E+02 0.  0.
         25    2    1    2    0    0 -0.43160222812E+02 -0.44925701994E+02 -0.93608748910E+02  0.16820545126E+03  0.12509737179E+03 0.  0.
        -24    2    1    2    0    0 -0.57161131883E+02 -0.18608600567E+02  0.19686502452E+03  0.22126283052E+03  0.81164815502E+02 0.  0.
        -11    1    3    3    0    0  0.17394755561E+02  0.28004253056E+02 -0.11168082676E+03  0.11644493453E+03  0.00000000000E+00 0.  1.
         12    1    3    3    0    0  0.82926599134E+02  0.35530049506E+02 -0.12295818588E+04  0.12328871614E+04  0.00000000000E+00 0. -1.
         11    1    5    5    0    0 -0.26857084768E+02 -0.59091164000E+01  0.67318595892E+01  0.28311456910E+02  0.00000000000E+00 0. -1.
        -12    1    5    5    0    0 -0.30304047115E+02 -0.12699484167E+02  0.19013316493E+03  0.19295137361E+03  0.00000000000E+00 0.  1.
          5    1    4    4  501    0 -0.25675206793E+02  0.42860806813E+02 -0.34325093467E+02  0.60761414122E+02  0.41800000000E+01 0. -1.
         -5    1    4    4    0  501 -0.17485016019E+02 -0.87786508807E+02 -0.59283655443E+02  0.10744403714E+03  0.41800000000E+01 0. -1.
</event>
<event>
11    1  0.9238666E-009  0.1719419E+03  0.7561462E-02  0.1076354E+00
         22   -1    0    0    0    0  0.00000000000E+00  0.00000000000E+00  0.77857396000E+03  0.77857396000E+03  0.00000000000E+00 0.  1.
         22   -1    0    0    0    0 -0.00000000000E+00 -0.00000000000E+00 -0.22888928100E+03  0.22888928100E+03  0.00000000000E+00 0.  1.
        -24    2    1    2    0    0 -0.68719913373E+02 -0.61436691066E+01 -0.17996043207E+03  0.20911196606E+03  0.81128823949E+02 0.  0.
         25    2    1    2    0    0  0.39172353449E+01  0.11599466912E+03  0.34839773564E+03  0.38794117026E+03  0.12508901385E+03 0.  0.
         24    2    1    2    0    0  0.64802678028E+02 -0.10985100002E+03  0.38124737542E+03  0.41041010468E+03  0.82584886454E+02 0.  0.
        -11    1    5    5    0    0  0.60383531865E+02 -0.92190396458E+02  0.37547148424E+03  0.39131071490E+03  0.00000000000E+00 0.  1.
         12    1    5    5    0    0  0.44191461631E+01 -0.17660603560E+02  0.57758911847E+01  0.19099389778E+02  0.00000000000E+00 0. -1.
         11    1    3    3    0    0  0.85549515073E+01  0.18362590460E+02 -0.67527105270E+02  0.70500226027E+02  0.00000000000E+00 0. -1.
        -12    1    3    3    0    0 -0.77274864880E+02 -0.24506259567E+02 -0.11243332680E+03  0.13861174004E+03  0.00000000000E+00 0.  1.
          5    1    4    4  501    0  0.39279028998E+01  0.10737990509E+03  0.35834647560E+03  0.37413305309E+03  0.41800000000E+01 0. -1.
         -5    1    4    4    0  501 -0.10667554868E-01  0.86147640352E+01 -0.99487399563E+01  0.13808117174E+02  0.41800000000E+01 0. -1.
</event>
<event>
11    1  0.9238666E-009  0.1278772E+03  0.7561462E-02  0.1121905E+00
         22   -1    0    0    0    0  0.00000000000E+00  0.00000000000E+00  0.24917622299E+03  0.24917622299E+03  0.00000000000E+00 0.  1.
         22   -1    0    0    0    0 -0.00000000000E+00 -0.00000000000E+00 -0.50556632736E+03  0.50556632736E+03  0.00000000000E+00 0.  1.
         24    2    1    2    0    0  0.28920074023E+02  0.66532415125E+01 -0.36585195273E+03  0.37587481271E+03  0.80954229098E+02 0.  0.
         25    2    1    2    0    0 -0.99744348847E+01  0.18103625411E+02 -0.94181337891E+02  0.15793981488E+03  0.12509048770E+03 0.  0.
        -24    2    1    2    0    0 -0.18945639139E+02 -0.24756866924E+02  0.20364318625E+03  0.22092792277E+03  0.79791979849E+02 0.  0.
        -13    1    3    3    0    0 -0.69994642211E+01 -0.14472922698E+02 -0.27982352734E+03  0.28028497006E+03  0.00000000000E+00 0.  1.
         14    1    3    3    0    0  0.35919538245E+02  0.21126164210E+02 -0.86028425393E+02  0.95589842648E+02  0.00000000000E+00 0. -1.
         11    1    5    5    0    0  0.16860706756E+02 -0.34853883863E+02  0.52256693107E+02  0.65037209558E+02  0.00000000000E+00 0. -1.
        -12    1    5    5    0    0 -0.35806345895E+02  0.10097016939E+02  0.15138649315E+03  0.15589071321E+03  0.00000000000E+00 0.  1.
          5    1    4    4  501    0 -0.27559152998E+02  0.25639613694E+01 -0.11975325775E+03  0.12298128294E+03  0.41800000000E+01 0. -1.
         -5    1    4    4    0  501  0.17584718114E+02  0.15539664042E+02  0.25571919861E+02  0.34958531935E+02  0.41800000000E+01 0. -1.
</event>
<event>
11    1  0.9238666E-009  0.1739906E+03  0.7561462E-02  0.1074610E+00
         22   -1    0    0    0    0  0.00000000000E+00  0.00000000000E+00  0.26842780665E+03  0.26842780665E+03  0.00000000000E+00 0. -1.
         22   -1    0    0    0    0 -0.00000000000E+00 -0.00000000000E+00 -0.46490342397E+03  0.46490342397E+03  0.00000000000E+00 0. -1.
         24    2    1    2    0    0 -0.74418589393E+02  0.26319125722E+02 -0.27257057753E+03  0.29463209093E+03  0.79262389848E+02 0.  0.
         25    2    1    2    0    0 -0.56777892828E+02 -0.37573756858E+02 -0.12102696451E+03  0.18689627770E+03  0.12508867319E+03 0.  0.
        -24    2    1    2    0    0  0.13119648222E+03  0.11254631137E+02  0.19712192472E+03  0.25180286199E+03  0.84902558447E+02 0.  0.
        -13    1    3    3    0    0 -0.84026360748E+01 -0.23554396190E+02 -0.34621713585E+02  0.42709213578E+02  0.00000000000E+00 0.  1.
         14    1    3    3    0    0 -0.66015953318E+02  0.49873521912E+02 -0.23794886394E+03  0.25192287735E+03  0.00000000000E+00 0. -1.
         11    1    5    5    0    0  0.11247779941E+03  0.94981944025E+01  0.20285635406E+03  0.23214687471E+03  0.00000000000E+00 0. -1.
        -12    1    5    5    0    0  0.18718682809E+02  0.17564367342E+01 -0.57344293336E+01  0.19655987278E+02  0.00000000000E+00 0.  1.
          5    1    4    4  501    0  0.26589157140E+02  0.25150729851E+02 -0.21525141521E+02  0.42665520118E+02  0.41800000000E+01 0.  1.
         -5    1    4    4    0  501 -0.83367049968E+02 -0.62724486710E+02 -0.99501822991E+02  0.14423075758E+03  0.41800000000E+01 0.  1.
</event>
<event>
11    1  0.9238666E-009  0.1766183E+03  0.7561462E-02  0.1072412E+00
         22   -1    0    0    0    0  0.00000000000E+00  0.00000000000E+00  0.30726920037E+04  0.30726920037E+04  0.00000000000E+00 0. -1.
         22   -1    0    0    0    0 -0.00000000000E+00 -0.00000000000E+00 -0.50944041334E+03  0.50944041334E+03  0.00000000000E+00 0.  1.
         24    2    1    2    0    0 -0.78518390514E+01 -0.38578403282E+02 -0.44995445691E+03  0.45855802495E+03  0.79161255492E+02 0.  0.
         25    2    1    2    0    0 -0.62934189804E+02 -0.65587811017E+02  0.58934399518E+02  0.16547972385E+03  0.12509117619E+03 0.  0.
        -24    2    1    2    0    0  0.70786028855E+02  0.10416621430E+03  0.29542716477E+04  0.29580946682E+04  0.82108680958E+02 0.  0.
        -13    1    3    3    0    0 -0.40067396335E+00 -0.15817735759E+02 -0.41957698990E+03  0.41987523356E+03  0.00000000000E+00 0.  1.
         14    1    3    3    0    0 -0.74511650880E+01 -0.22760667523E+02 -0.30377467011E+02  0.38682791384E+02  0.00000000000E+00 0. -1.
         11    1    5    5    0    0  0.38824657434E+02  0.61189501898E+02  0.24329557299E+04  0.24340347353E+04  0.00000000000E+00 0. -1.
        -12    1    5    5    0    0  0.31961371421E+02  0.42976712401E+02  0.52131591782E+03  0.52405993288E+03  0.00000000000E+00 0.  1.
          5    1    4    4  501    0  0.12247445448E+02 -0.40365864965E+01 -0.30486544308E+02  0.33364588030E+02  0.41800000000E+01 0.  1.
         -5    1    4    4    0  501 -0.75181635252E+02 -0.61551224521E+02  0.89420943826E+02  0.13211513582E+03  0.41800000000E+01 0.  1.
</event>
<event>
11    1  0.9238666E-009  0.1274849E+03  0.7561462E-02  0.1122398E+00
         22   -1    0    0    0    0  0.00000000000E+00  0.00000000000E+00  0.23760459719E+03  0.23760459719E+03  0.00000000000E+00 0.  1.
         22   -1    0    0    0    0 -0.00000000000E+00 -0.00000000000E+00 -0.25949919321E+04  0.25949919321E+04  0.00000000000E+00 0. -1.
        -24    2    1    2    0    0  0.20875929888E+01 -0.24160163169E+02 -0.25128801999E+04  0.25143114701E+04  0.81284675118E+02 0.  0.
         25    2    1    2    0    0 -0.75866486859E-01  0.56061117135E+02 -0.52683755821E+01  0.13718000716E+03  0.12509094281E+03 0.  0.
         24    2    1    2    0    0 -0.20117265019E+01 -0.31900953967E+02  0.16076124056E+03  0.18110505198E+03  0.77026913993E+02 0.  0.
        -11    1    5    5    0    0  0.99823421420E+01  0.58204549282E+01  0.13118604216E+03  0.13169397294E+03  0.00000000000E+00 0.  1.
         12    1    5    5    0    0 -0.11994068644E+02 -0.37721408895E+02  0.29575198390E+02  0.49411079036E+02  0.00000000000E+00 0. -1.
         13    1    3    3    0    0  0.11713223229E+02 -0.11975304572E+02 -0.24257855573E+04  0.24258433951E+04  0.00000000000E+00 0. -1.
        -14    1    3    3    0    0 -0.96256302405E+01 -0.12184858597E+02 -0.87094642613E+02  0.88468075081E+02  0.00000000000E+00 0.  1.
          5    1    4    4  501    0  0.33667410972E+02  0.84573161223E+02  0.62428111422E+01  0.91337611375E+02  0.41800000000E+01 0. -1.
         -5    1    4    4    0  501 -0.33743277459E+02 -0.28512044087E+02 -0.11511186724E+02  0.45842395787E+02  0.41800000000E+01 0. -1.
</event>
<event>
11    1  0.1142820E-008  0.1575512E+03  0.7561462E-02  0.1089403E+00
         22   -1    0    0    0    0  0.00000000000E+00  0.00000000000E+00  0.59423250831E+03  0.59423250831E+03  0.00000000000E+00 0.  1.
         22   -1    0    0    0    0 -0.00000000000E+00 -0.00000000000E+00 -0.62108646892E+03  0.62108646892E+03  0.00000000000E+00 0.  1.
        -24    2    1    2    0    0  0.62451230210E+02 -0.80992582146E+02 -0.49240097979E+03  0.50913194130E+03  0.79351460223E+02 0.  0.
         25    2    1    2    0    0  0.27834344663E+02  0.85978246738E+02 -0.60988279697E+02  0.16593362496E+03  0.12508951986E+03 0.  0.
         24    2    1    2    0    0 -0.90285574873E+02 -0.49856645919E+01  0.52653529887E+03  0.54025341098E+03  0.80361590517E+02 0.  0.
        -11    1    5    5    0    0 -0.82072042358E+02 -0.25134660552E+02  0.49202799186E+03  0.49945882320E+03  0.00000000000E+00 0.  1.
         12    1    5    5    0    0 -0.82135325149E+01  0.20148995960E+02  0.34507307014E+02  0.40794587777E+02  0.00000000000E+00 0. -1.
         11    1    3    3    0    0  0.66589623562E+02 -0.21746783260E+02 -0.26394028006E+03  0.27307795954E+03  0.00000000000E+00 0. -1.
        -12    1    3    3    0    0 -0.41383933525E+01 -0.59245798886E+02 -0.22846069973E+03  0.23605398176E+03  0.00000000000E+00 0.  1.
          5    1    4    4  501    0  0.15587339777E+02  0.11202512505E+03 -0.72766404337E+02  0.13455488027E+03  0.41800000000E+01 0. -1.
         -5    1    4    4    0  501  0.12247004887E+02 -0.26046878313E+02  0.11778124640E+02  0.31378744694E+02  0.41800000000E+01 0. -1.
</event>
<event>
11    1  0.9238666E-009  0.1886615E+03  0.7561462E-02  0.1062844E+00
         22   -1    0    0    0    0  0.00000000000E+00  0.00000000000E+00  0.82553448593E+03  0.82553448593E+03  0.00000000000E+00 0.  1.
         22   -1    0    0    0    0 -0.00000000000E+00 -0.00000000000E+00 -0.20463334237E+03  0.20463334237E+03  0.00000000000E+00 0.  1.
        -24    2    1    2    0    0  0.75846440364E+02 -0.56106896798E+02 -0.12920508353E+03  0.17899000955E+03  0.80267076216E+02 0.  0.
         25    2    1    2    0    0 -0.48164543880E+02  0.18310872506E+03  0.30104223592E+03  0.37699380244E+03  0.12509704550E+03 0.  0.
         24    2    1    2    0    0 -0.27681896484E+02 -0.12700182826E+03  0.44906399116E+03  0.47418401631E+03  0.79348984786E+02 0.  0.
        -11    1    5    5    0    0 -0.19202434558E+02 -0.12094598782E+03  0.29022370346E+03  0.31500232303E+03  0.00000000000E+00 0.  1.
         12    1    5    5    0    0 -0.84794619260E+01 -0.60558404438E+01  0.15884028770E+03  0.15918169328E+03  0.00000000000E+00 0. -1.
         11    1    3    3    0    0  0.19822569777E+02  0.19897750393E+02 -0.41559190246E+02  0.50159954517E+02  0.00000000000E+00 0. -1.
        -12    1    3    3    0    0  0.56023870587E+02 -0.76004647190E+02 -0.87645893284E+02  0.12883005503E+03  0.00000000000E+00 0.  1.
          5    1    4    4  501    0 -0.81093075043E+01  0.16450455788E+03  0.28616195533E+03  0.33020243414E+03  0.41800000000E+01 0.  1.
         -5    1    4    4    0  501 -0.40055236376E+02  0.18604167182E+02  0.14880280588E+02  0.46791368307E+02  0.41800000000E+01 0.  1.
</event>
<event>
11    1  0.9238666E-009  0.1887781E+03  0.7561462E-02  0.1062756E+00
         22   -1    0    0    0    0  0.00000000000E+00  0.00000000000E+00  0.49070731841E+03  0.49070731841E+03  0.00000000000E+00 0. -1.
         22   -1    0    0    0    0 -0.00000000000E+00 -0.00000000000E+00 -0.15040596996E+04  0.15040596996E+04  0.00000000000E+00 0.  1.
        -24    2    1    2    0    0  0.96231863853E+01 -0.14078904057E+03 -0.14101828487E+04  0.14195536030E+04  0.81256417553E+02 0.  0.
         25    2    1    2    0    0  0.72268033920E+02  0.15396760685E+03  0.62944591530E+02  0.22031409201E+03  0.12509030677E+03 0.  0.
         24    2    1    2    0    0 -0.81891220305E+02 -0.13178566281E+02  0.33388587600E+03  0.35489932297E+03  0.87143012803E+02 0.  0.
        -11    1    5    5    0    0 -0.35158107624E+02  0.35158262085E+02  0.18446834744E+03  0.19105173941E+03  0.00000000000E+00 0.  1.
         12    1    5    5    0    0 -0.46733112680E+02 -0.48336828367E+02  0.14941752855E+03  0.16384758355E+03  0.00000000000E+00 0. -1.
         11    1    3    3    0    0 -0.19157702676E+02 -0.25338222333E+01 -0.10597984603E+03  0.10772727413E+03  0.00000000000E+00 0. -1.
        -12    1    3    3    0    0  0.28780889061E+02 -0.13825521834E+03 -0.13042030027E+04  0.13118263289E+04  0.00000000000E+00 0.  1.
          5    1    4    4  501    0 -0.26220854347E+00  0.13485362683E+03  0.29621504896E+02  0.13813209394E+03  0.41800000000E+01 0. -1.
         -5    1    4    4    0  501  0.72530242463E+02  0.19113980022E+02  0.33323086634E+02  0.82181998070E+02  0.41800000000E+01 0. -1.
</event>
<event>
11    1  0.9238666E-009  0.1944091E+03  0.7561462E-02  0.1058549E+00
         22   -1    0    0    0    0  0.00000000000E+00  0.00000000000E+00  0.13110254660E+03  0.13110254660E+03  0.00000000000E+00 0. -1.
         22   -1    0    0    0    0 -0.00000000000E+00 -0.00000000000E+00 -0.75917077872E+03  0.75917077872E+03  0.00000000000E+00 0.  1.
         24    2    1    2    0    0  0.38980370526E+02 -0.18959578191E+03 -0.22264465629E+03  0.30590987919E+03  0.80896114912E+02 0.  0.
         25    2    1    2    0    0 -0.11570141758E+03  0.81811246407E+02 -0.38144851326E+03  0.42571124277E+03  0.12508875202E+03 0.  0.
        -24    2    1    2    0    0  0.76721047053E+02  0.10778453551E+03 -0.23975062565E+02  0.15865220336E+03  0.84214564359E+02 0.  0.
        -13    1    3    3    0    0 -0.16545791582E+01 -0.64029323332E+02 -0.12918418848E+03  0.14419100676E+03  0.00000000000E+00 0.  1.
         14    1    3    3    0    0  0.40634949684E+02 -0.12556645858E+03 -0.93460467810E+02  0.16171887243E+03  0.00000000000E+00 0. -1.
         11    1    5    5    0    0  0.38108941798E+02  0.76393053605E+02  0.24873414962E+02  0.88920621095E+02  0.00000000000E+00 0. -1.
        -12    1    5    5    0    0  0.38612105255E+02  0.31391481902E+02 -0.48848477527E+02  0.69731582263E+02  0.00000000000E+00 0.  1.
          5    1    4    4  501    0 -0.99145808923E+02  0.16338481357E+02 -0.31583143639E+03  0.33145709528E+03  0.41800000000E+01 0. -1.
         -5    1    4    4    0  501 -0.16555608656E+02  0.65472765050E+02 -0.65617076872E+02  0.94254147487E+02  0.41800000000E+01 0. -1.
</event>
<event>
11    1  0.9238666E-009  0.1552311E+03  0.7561462E-02  0.1091650E+00
         22   -1    0    0    0    0  0.00000000000E+00  0.00000000000E+00  0.54398750355E+03  0.54398750355E+03  0.00000000000E+00 0. -1.
         22   -1    0    0    0    0 -0.00000000000E+00 -0.00000000000E+00 -0.15647152985E+03  0.15647152985E+03  0.00000000000E+00 0.  1.
        -24    2    1    2    0    0  0.76156199925E+02  0.40938103514E+02 -0.68231407738E+02  0.14910752510E+03  0.10050787995E+03 0.  0.
         25    2    1    2    0    0 -0.13891544664E+03  0.11855792938E+01  0.21351794920E+03  0.28380167363E+03  0.12511821775E+03 0.  0.
         24    2    1    2    0    0  0.62759246719E+02 -0.42123682807E+02  0.24222943224E+03  0.26754983467E+03  0.84821509593E+02 0.  0.
        -11    1    5    5    0    0 -0.12965099414E+02 -0.33183910026E+02  0.56716728543E+02  0.66978003733E+02  0.00000000000E+00 0.  1.
         12    1    5    5    0    0  0.75724346133E+02 -0.89397727814E+01  0.18551270370E+03  0.20057183094E+03  0.00000000000E+00 0. -1.
         13    1    3    3    0    0 -0.51022795219E+01 -0.19836389712E+02  0.82088496314E+01  0.22065829361E+02  0.00000000000E+00 0. -1.
        -14    1    3    3    0    0  0.81258479447E+02  0.60774493226E+02 -0.76440257369E+02  0.12704169574E+03  0.00000000000E+00 0.  1.
          5    1    4    4  501    0 -0.11839142282E+03  0.50246552663E+02  0.17827873308E+03  0.21986819716E+03  0.41800000000E+01 0. -1.
         -5    1    4    4    0  501 -0.20524023825E+02 -0.49060973369E+02  0.35239216121E+02  0.63933476479E+02  0.41800000000E+01 0. -1.
</event>
<event>
11    1  0.9238666E-009  0.1958801E+03  0.7561462E-02  0.1057476E+00
         22   -1    0    0    0    0  0.00000000000E+00  0.00000000000E+00  0.43571565907E+03  0.43571565907E+03  0.00000000000E+00 0. -1.
         22   -1    0    0    0    0 -0.00000000000E+00 -0.00000000000E+00 -0.52520752038E+03  0.52520752038E+03  0.00000000000E+00 0.  1.
         24    2    1    2    0    0 -0.15372623791E+02 -0.10218378219E+01 -0.40030130203E+03  0.40883790219E+03  0.81669677067E+02 0.  0.
         25    2    1    2    0    0 -0.34266665056E+02  0.14410379930E+03 -0.38940344131E+01  0.19391323817E+03  0.12508825335E+03 0.  0.
        -24    2    1    2    0    0  0.49639288847E+02 -0.14308196148E+03  0.31470347513E+03  0.35817203909E+03  0.79450774866E+02 0.  0.
        -13    1    3    3    0    0 -0.23723247621E+02 -0.32383318835E+01 -0.39943815141E+03  0.40015511501E+03  0.00000000000E+00 0.  1.
         14    1    3    3    0    0  0.83506238302E+01  0.22164940617E+01 -0.86315062044E+00  0.86827871834E+01  0.00000000000E+00 0. -1.
         13    1    5    5    0    0  0.55870765095E+02 -0.10661503938E+03  0.28916814336E+03  0.31321961010E+03  0.00000000000E+00 0. -1.
        -14    1    5    5    0    0 -0.62314762482E+01 -0.36466922097E+02  0.25535331767E+02  0.44952428988E+02  0.00000000000E+00 0.  1.
          5    1    4    4  501    0  0.42192626027E+02  0.39413142216E+02 -0.23984621786E+02  0.62660577340E+02  0.41800000000E+01 0. -1.
         -5    1    4    4    0  501 -0.76459291083E+02  0.10469065709E+03  0.20090587373E+02  0.13125266083E+03  0.41800000000E+01 0. -1.
</event>
<event>
11    1  0.9238666E-009  0.1404649E+03  0.7561462E-02  0.1107040E+00
         22   -1    0    0    0    0  0.00000000000E+00  0.00000000000E+00  0.67044775356E+03  0.67044775356E+03  0.00000000000E+00 0.  1.
         22   -1    0    0    0    0 -0.00000000000E+00 -0.00000000000E+00 -0.19094861660E+04  0.19094861660E+04  0.00000000000E+00 0.  1.
        -24    2    1    2    0    0 -0.13921179932E+02  0.52949818743E+01 -0.18570029029E+04  0.18593027319E+04  0.91241610055E+02 0.  0.
         25    2    1    2    0    0 -0.45183737133E+02  0.22393351693E+02  0.50940298489E+02  0.14416890076E+03  0.12508687236E+03 0.  0.
         24    2    1    2    0    0  0.59104917066E+02 -0.27688333567E+02  0.56702419199E+03  0.57646228686E+03  0.80822638118E+02 0.  0.
        -11    1    5    5    0    0  0.45310203159E+02 -0.17105343140E+02  0.55000196051E+03  0.55213020552E+03  0.00000000000E+00 0.  1.
         12    1    5    5    0    0  0.13794713906E+02 -0.10582990427E+02  0.17022231482E+02  0.24332081349E+02  0.00000000000E+00 0. -1.
         13    1    3    3    0    0 -0.17105525727E+02  0.35766495936E+02 -0.39622542189E+03  0.39820400073E+03  0.00000000000E+00 0. -1.
        -14    1    3    3    0    0  0.31843457945E+01 -0.30471514062E+02 -0.14607774810E+04  0.14610987312E+04  0.00000000000E+00 0.  1.
          5    1    4    4  501    0 -0.78106836366E+02  0.14271597793E+02  0.69220174311E+02  0.10541945419E+03  0.41800000000E+01 0. -1.
         -5    1    4    4    0  501  0.32923099232E+02  0.81217539000E+01 -0.18279875822E+02  0.38749446571E+02  0.41800000000E+01 0. -1.
</event>
<event>
11    1  0.9238666E-009  0.1298269E+03  0.7561462E-02  0.1119482E+00
         22   -1    0    0    0    0  0.00000000000E+00  0.00000000000E+00  0.11336784327E+04  0.11336784327E+04  0.00000000000E+00 0. -1.
         22   -1    0    0    0    0 -0.00000000000E+00 -0.00000000000E+00 -0.35075783125E+03  0.35075783125E+03  0.00000000000E+00 0. -1.
        -24    2    1    2    0    0 -0.42993768469E-01  0.34462130249E+02 -0.32538106487E+03  0.33685017246E+03  0.80047242559E+02 0.  0.
         25    2    1    2    0    0 -0.17813189993E+02 -0.47554164733E+02  0.23989070078E+03  0.27527041606E+03  0.12509014875E+03 0.  0.
         24    2    1    2    0    0  0.17856183762E+02  0.13092034484E+02  0.86841096556E+03  0.87231567545E+03  0.79415287388E+02 0.  0.
        -11    1    5    5    0    0 -0.48541257546E+01  0.21422247065E+02  0.66376185394E+02  0.69916186922E+02  0.00000000000E+00 0.  1.
         12    1    5    5    0    0  0.22710309516E+02 -0.83302125812E+01  0.80203478016E+03  0.80239948853E+03  0.00000000000E+00 0. -1.
         11    1    3    3    0    0  0.28601326177E+02  0.46809105602E+02 -0.23201225901E+03  0.23840892717E+03  0.00000000000E+00 0. -1.
        -12    1    3    3    0    0 -0.28644319945E+02 -0.12346975354E+02 -0.93368805863E+02  0.98441245287E+02  0.00000000000E+00 0.  1.
          5    1    4    4  501    0 -0.18752832992E+02 -0.39086511241E+02  0.93642105019E+01  0.44548680615E+02  0.41800000000E+01 0. -1.
         -5    1    4    4    0  501  0.93964299834E+00 -0.84676534919E+01  0.23052649028E+03  0.23072173544E+03  0.41800000000E+01 0. -1.
</event>
<event>
11    1  0.9238666E-009  0.1518700E+03  0.7561462E-02  0.1094983E+00
         22   -1    0    0    0    0  0.00000000000E+00  0.00000000000E+00  0.18103905883E+04  0.18103905883E+04  0.00000000000E+00 0. -1.
         22   -1    0    0    0    0 -0.00000000000E+00 -0.00000000000E+00 -0.37968649537E+03  0.37968649537E+03  0.00000000000E+00 0. -1.
         24    2    1    2    0    0  0.81642089296E+02 -0.26547568744E+02 -0.35395136954E+03  0.37306290006E+03  0.80772218326E+02 0.  0.
         25    2    1    2    0    0 -0.79426881797E+02  0.77974959451E+02  0.47044101681E+03  0.49935057695E+03  0.12509006576E+03 0.  0.
        -24    2    1    2    0    0 -0.22152074988E+01 -0.51427390707E+02  0.13142144456E+04  0.13176636066E+04  0.80175354486E+02 0.  0.
        -11    1    3    3    0    0 -0.16122401732E+02 -0.87723712394E+01 -0.48608959369E+02  0.51958803544E+02  0.00000000000E+00 0.  1.
         12    1    3    3    0    0  0.97764491028E+02 -0.17775197504E+02 -0.30534241017E+03  0.32110409652E+03  0.00000000000E+00 0. -1.
         13    1    5    5    0    0 -0.40850100350E+02 -0.27915305563E+02  0.75833292623E+03  0.75994527565E+03  0.00000000000E+00 0. -1.
        -14    1    5    5    0    0  0.38634892851E+02 -0.23512085144E+02  0.55588151942E+03  0.55771833099E+03  0.00000000000E+00 0.  1.
          5    1    4    4  501    0  0.11244650261E+02 -0.14778131723E+02  0.18280469806E+03  0.18379299598E+03  0.41800000000E+01 0. -1.
         -5    1    4    4    0  501 -0.90671532059E+02  0.92753091175E+02  0.28763631875E+03  0.31555758097E+03  0.41800000000E+01 0. -1.
</event>
<event>
11    1  0.9238666E-009  0.1381004E+03  0.7561462E-02  0.1109698E+00
         22   -1    0    0    0    0  0.00000000000E+00  0.00000000000E+00  0.14556479568E+04  0.14556479568E+04  0.00000000000E+00 0. -1.
         22   -1    0    0    0    0 -0.00000000000E+00 -0.00000000000E+00 -0.40095800045E+03  0.40095800045E+03  0.00000000000E+00 0. -1.
        -24    2    1    2    0    0 -0.24473311506E+02  0.55496491106E+02 -0.34120837851E+03  0.35607029187E+03  0.81756294468E+02 0.  0.
         25    2    1    2    0    0  0.49952931416E+02 -0.12389528147E+02  0.39591901234E+02  0.14093892677E+03  0.12508983440E+03 0.  0.
         24    2    1    2    0    0 -0.25479619910E+02 -0.43106962959E+02  0.13563064336E+04  0.13595967386E+04  0.80179351968E+02 0.  0.
        -13    1    5    5    0    0 -0.11218101599E+02 -0.47706620201E+02  0.37655782070E+03  0.37973353782E+03  0.00000000000E+00 0.  1.
         14    1    5    5    0    0 -0.14261518312E+02  0.45996572416E+01  0.97974861288E+03  0.97986320075E+03  0.00000000000E+00 0. -1.
         13    1    3    3    0    0 -0.33511621124E+02  0.39932170917E+02 -0.33159057916E+03  0.33566340166E+03  0.00000000000E+00 0. -1.
        -14    1    3    3    0    0  0.90383096187E+01  0.15564320189E+02 -0.96177993468E+01  0.20406890209E+02  0.00000000000E+00 0.  1.
          5    1    4    4  501    0  0.48280486632E+02 -0.64097680542E+02  0.94276321246E+01  0.80906555283E+02  0.41800000000E+01 0. -1.
         -5    1    4    4    0  501  0.16724447833E+01  0.51708152395E+02  0.30164269109E+02  0.60032371488E+02  0.41800000000E+01 0. -1.
</event>
<event>
11    1  0.9238666E-009  0.1510230E+03  0.7561462E-02  0.1095838E+00
         22   -1    0    0    0    0  0.00000000000E+00  0.00000000000E+00  0.97082727581E+03  0.97082727581E+03  0.00000000000E+00 0.  1.
         22   -1    0    0    0    0 -0.00000000000E+00 -0.00000000000E+00 -0.14311725648E+03  0.14311725648E+03  0.00000000000E+00 0.  1.
         24    2    1    2    0    0 -0.21032862742E+02 -0.79205483261E+02 -0.96084020298E+02  0.15016490564E+03  0.81249430979E+02 0.  0.
         25    2    1    2    0    0  0.32699306272E+02 -0.39466866150E+02  0.41627464924E+03  0.43767459037E+03  0.12509030859E+03 0.  0.
        -24    2    1    2    0    0 -0.11666443530E+02  0.11867234941E+03  0.50751939039E+03  0.52610503629E+03  0.70649452704E+02 0.  0.
        -11    1    3    3    0    0  0.61943817834E+01 -0.86697483023E+02 -0.76613852175E+02  0.11586417166E+03  0.00000000000E+00 0.  1.
         12    1    3    3    0    0 -0.27227244525E+02  0.74919997626E+01 -0.19470168124E+02  0.34300733981E+02  0.00000000000E+00 0. -1.
         13    1    5    5    0    0 -0.30130415042E+02  0.18242255080E+02  0.10133753139E+03  0.10728428146E+03  0.00000000000E+00 0. -1.
        -14    1    5    5    0    0  0.18463971512E+02  0.10043009433E+03  0.40618185900E+03  0.41882075483E+03  0.00000000000E+00 0.  1.
          5    1    4    4  501    0  0.27444448448E+02  0.30199342741E+02  0.29349408641E+03  0.29634683938E+03  0.41800000000E+01 0. -1.
         -5    1    4    4    0  501  0.52548578242E+01 -0.69666208891E+02  0.12278056283E+03  0.14132775099E+03  0.41800000000E+01 0. -1.
</event>
<event>
11    1  0.9238666E-009  0.1451014E+03  0.7561462E-02  0.1101992E+00
         22   -1    0    0    0    0  0.00000000000E+00  0.00000000000E+00  0.13535518636E+03  0.13535518636E+03  0.00000000000E+00 0.  1.
         22   -1    0    0    0    0 -0.00000000000E+00 -0.00000000000E+00 -0.77846166171E+03  0.77846166171E+03  0.00000000000E+00 0.  1.
         24    2    1    2    0    0  0.33977904326E+01  0.43928145972E+02 -0.43977334884E+03  0.44920084560E+03  0.80246958492E+02 0.  0.
         25    2    1    2    0    0 -0.40685677660E+02 -0.10351498252E+03 -0.28357179787E+03  0.32928894728E+03  0.12509024854E+03 0.  0.
        -24    2    1    2    0    0  0.37287887227E+02  0.59586836545E+02  0.80238671352E+02  0.13532705519E+03  0.83271783119E+02 0.  0.
        -13    1    3    3    0    0  0.86597406778E+01  0.58437612883E+02 -0.41991394422E+03  0.42404913189E+03  0.00000000000E+00 0.  1.
         14    1    3    3    0    0 -0.52619502451E+01 -0.14509466911E+02 -0.19859404617E+02  0.25151713702E+02  0.00000000000E+00 0. -1.
         13    1    5    5    0    0  0.20577637232E+02 -0.16730049247E+02  0.38503818491E+02  0.46753371432E+02  0.00000000000E+00 0. -1.
        -14    1    5    5    0    0  0.16710249995E+02  0.76316885791E+02  0.41734852861E+02  0.88573683762E+02  0.00000000000E+00 0.  1.
          5    1    4    4  501    0 -0.81343725924E+02 -0.38902986772E+02 -0.13879824995E+03  0.16556772245E+03  0.41800000000E+01 0. -1.
         -5    1    4    4    0  501  0.40658048264E+02 -0.64611995744E+02 -0.14477354791E+03  0.16372122483E+03  0.41800000000E+01 0. -1.
</event>
<event>
11    1  0.9238666E-009  0.2607064E+03  0.7561462E-02  0.1018345E+00
         22   -1    0    0    0    0  0.00000000000E+00  0.00000000000E+00  0.14499326327E+04  0.14499326327E+04  0.00000000000E+00 0. -1.
         22   -1    0    0    0    0 -0.00000000000E+00 -0.00000000000E+00 -0.54209987813E+03  0.54209987813E+03  0.00000000000E+00 0.  1.
        -24    2    1    2    0    0  0.24174779785E+02 -0.12619363339E+03 -0.19546725013E+03  0.24092327720E+03  0.57682983082E+02 0.  0.
         25    2    1    2    0    0  0.17333262711E+03  0.52485208913E+01 -0.27661060132E+03  0.34961803544E+03  0.12509036475E+03 0.  0.
         24    2    1    2    0    0 -0.19750740689E+03  0.12094511250E+03  0.13799106060E+04  0.14014911982E+04  0.79921223513E+02 0.  0.
        -11    1    5    5    0    0 -0.12560329793E+03  0.11739398031E+03  0.10302459909E+04  0.10444923824E+04  0.00000000000E+00 0.  1.
         12    1    5    5    0    0 -0.71904108957E+02  0.35511321805E+01  0.34966461508E+03  0.35699881578E+03  0.00000000000E+00 0. -1.
         13    1    3    3    0    0  0.15170974407E+02 -0.12164439750E+03 -0.19559428006E+03  0.23083466010E+03  0.00000000000E+00 0. -1.
        -14    1    3    3    0    0  0.90038053776E+01 -0.45492358827E+01  0.12702993362E+00  0.10088617100E+02  0.00000000000E+00 0.  1.
          5    1    4    4  501    0 -0.69268955786E+01 -0.13443690589E+02  0.33976127953E+01  0.16053998621E+02  0.41800000000E+01 0.  1.
         -5    1    4    4    0  501  0.18025952269E+03  0.18692211481E+02 -0.28000821411E+03  0.33356403682E+03  0.41800000000E+01 0.  1.
</event>
<event>
11    1  0.9238666E-009  0.1291694E+03  0.7561462E-02  0.1120294E+00
         22   -1    0    0    0    0  0.00000000000E+00  0.00000000000E+00  0.30326536102E+03  0.30326536102E+03  0.00000000000E+00 0.  1.
         22   -1    0    0    0    0 -0.00000000000E+00 -0.00000000000E+00 -0.33554349570E+03  0.33554349570E+03  0.00000000000E+00 0. -1.
        -24    2    1    2    0    0  0.36341317991E+02 -0.23891248083E+01 -0.23231495766E+03  0.24967651020E+03  0.83914962213E+02 0.  0.
         25    2    1    2    0    0 -0.85245179414E+01  0.15644051582E+02 -0.41233215777E+02  0.13290478247E+03  0.12508436898E+03 0.  0.
         24    2    1    2    0    0 -0.27816800050E+02 -0.13254926773E+02  0.24127003876E+03  0.25622756405E+03  0.80572113821E+02 0.  0.
        -13    1    5    5    0    0 -0.43640667657E+02 -0.20501104183E+02  0.23108652267E+03  0.23606309349E+03  0.00000000000E+00 0.  1.
         14    1    5    5    0    0  0.15823867607E+02  0.72461774102E+01  0.10183516092E+02  0.20164470563E+02  0.00000000000E+00 0. -1.
         11    1    3    3    0    0  0.32921660647E+02  0.31477334099E+02 -0.18993125687E+03  0.19531651399E+03  0.00000000000E+00 0. -1.
        -12    1    3    3    0    0  0.34196573440E+01 -0.33866458908E+02 -0.42383700792E+02  0.54359996212E+02  0.00000000000E+00 0.  1.
          5    1    4    4  501    0  0.88311262569E+01 -0.53269167522E+02 -0.95874526306E+01  0.54999860430E+02  0.41800000000E+01 0.  1.
         -5    1    4    4    0  501 -0.17355644198E+02  0.68913219103E+02 -0.31645763146E+02  0.77904922038E+02  0.41800000000E+01 0.  1.
</event>
<event>
11    1  0.9238666E-009  0.1902075E+03  0.7561462E-02  0.1061673E+00
         22   -1    0    0    0    0  0.00000000000E+00  0.00000000000E+00  0.38680671088E+03  0.38680671088E+03  0.00000000000E+00 0.  1.
         22   -1    0    0    0    0 -0.00000000000E+00 -0.00000000000E+00 -0.34989503391E+03  0.34989503391E+03  0.00000000000E+00 0.  1.
        -24    2    1    2    0    0 -0.63152950758E+02  0.70444131715E+01 -0.24508172661E+03  0.26520417639E+03  0.78932144983E+02 0.  0.
         25    2    1    2    0    0  0.12752328220E+03  0.10726466645E+03  0.13682624282E+03  0.24927812414E+03  0.12510102430E+03 0.  0.
         24    2    1    2    0    0 -0.64370331437E+02 -0.11430907962E+03  0.14516716076E+03  0.22221944425E+03  0.10534643604E+03 0.  0.
        -13    1    5    5    0    0 -0.68231633554E+02 -0.19177257745E+02  0.44643484088E+02  0.83763737402E+02  0.00000000000E+00 0.  1.
         14    1    5    5    0    0  0.38613021166E+01 -0.95131821876E+02  0.10052367667E+03  0.13845570685E+03  0.00000000000E+00 0. -1.
         13    1    3    3    0    0  0.11327677508E+02 -0.14941278690E+02 -0.21539771832E+02  0.28557308297E+02  0.00000000000E+00 0. -1.
        -14    1    3    3    0    0 -0.74480628266E+02  0.21985691861E+02 -0.22354195477E+03  0.23664686809E+03  0.00000000000E+00 0.  1.
          5    1    4    4  501    0  0.61005378464E+02 -0.20291592431E+02  0.44060679819E+02  0.78052679845E+02  0.41800000000E+01 0.  1.
         -5    1    4    4    0  501  0.66517903732E+02  0.12755625888E+03  0.92765563002E+02  0.17122544430E+03  0.41800000000E+01 0.  1.
</event>
<event>
11    1  0.9238666E-009  0.1718214E+03  0.7561462E-02  0.1076457E+00
         22   -1    0    0    0    0  0.00000000000E+00  0.00000000000E+00  0.10066020202E+04  0.10066020202E+04  0.00000000000E+00 0. -1.
         22   -1    0    0    0    0 -0.00000000000E+00 -0.00000000000E+00 -0.10735869039E+03  0.10735869039E+03  0.00000000000E+00 0.  1.
         24    2    1    2    0    0 -0.17158564168E+02  0.11820526411E+03 -0.25013227273E+02  0.14641426828E+03  0.80898551466E+02 0.  0.
         25    2    1    2    0    0  0.83565644039E+01 -0.10775983918E+03  0.34586124989E+03  0.38333988916E+03  0.12508977311E+03 0.  0.
        -24    2    1    2    0    0  0.88019997644E+01 -0.10445424933E+02  0.57839530720E+03  0.58420655315E+03  0.81052965692E+02 0.  0.
        -11    1    3    3    0    0 -0.28797638715E+02  0.12197182195E+03 -0.81620581428E+01  0.12559079798E+03  0.00000000000E+00 0.  1.
         12    1    3    3    0    0  0.11639074547E+02 -0.37665578344E+01 -0.16851169130E+02  0.20823470298E+02  0.00000000000E+00 0. -1.
         11    1    5    5    0    0  0.29882834639E+02  0.24307125375E+02  0.36053251349E+03  0.36258449144E+03  0.00000000000E+00 0. -1.
        -12    1    5    5    0    0 -0.21080834874E+02 -0.34752550308E+02  0.21786279371E+03  0.22162206170E+03  0.00000000000E+00 0.  1.
          5    1    4    4  501    0  0.37199384818E+02  0.11646818133E+02  0.11942928477E+03  0.12569912118E+03  0.41800000000E+01 0. -1.
         -5    1    4    4    0  501 -0.28842820414E+02 -0.11940665731E+03  0.22643196512E+03  0.25764076798E+03  0.41800000000E+01 0. -1.
</event>
<event>
11    1  0.9238666E-009  0.1368761E+03  0.7561462E-02  0.1111098E+00
         22   -1    0    0    0    0  0.00000000000E+00  0.00000000000E+00  0.67505196610E+03  0.67505196610E+03  0.00000000000E+00 0.  1.
         22   -1    0    0    0    0 -0.00000000000E+00 -0.00000000000E+00 -0.19110641489E+03  0.19110641489E+03  0.00000000000E+00 0.  1.
        -24    2    1    2    0    0  0.18336302478E+01 -0.14649648098E+02 -0.15052117961E+03  0.17056671186E+03  0.78856853188E+02 0.  0.
         25    2    1    2    0    0  0.52316890648E+02  0.25896113082E+02  0.16259617938E+03  0.21329043336E+03  0.12509047004E+03 0.  0.
         24    2    1    2    0    0 -0.54150520896E+02 -0.11246464984E+02  0.47187055144E+03  0.48230123578E+03  0.83029529864E+02 0.  0.
        -11    1    5    5    0    0  0.11955309937E+02  0.19659372392E+02  0.65335352196E+02  0.69268525357E+02  0.00000000000E+00 0.  1.
         12    1    5    5    0    0 -0.66105830833E+02 -0.30905837377E+02  0.40653519924E+03  0.41303271042E+03  0.00000000000E+00 0. -1.
         11    1    3    3    0    0 -0.12481771954E+02 -0.35820018224E+02 -0.32934606526E+02  0.50235014121E+02  0.00000000000E+00 0. -1.
        -12    1    3    3    0    0  0.14315402202E+02  0.21170370126E+02 -0.11758657308E+03  0.12033169774E+03  0.00000000000E+00 0.  1.
          5    1    4    4  501    0 -0.40292045550E+02  0.19004139039E+02  0.45991014091E+02  0.64165816541E+02  0.41800000000E+01 0.  1.
         -5    1    4    4    0  501  0.92608936198E+02  0.68919740429E+01  0.11660516528E+03  0.14912461682E+03  0.41800000000E+01 0.  1.
</event>
<event>
11    1  0.9238666E-009  0.1297552E+03  0.7561462E-02  0.1119570E+00
         22   -1    0    0    0    0  0.00000000000E+00  0.00000000000E+00  0.17690781166E+03  0.17690781166E+03  0.00000000000E+00 0. -1.
         22   -1    0    0    0    0 -0.00000000000E+00 -0.00000000000E+00 -0.16092883295E+04  0.16092883295E+04  0.00000000000E+00 0. -1.
         24    2    1    2    0    0  0.25523462760E+02 -0.23518791438E+02 -0.14978200205E+04  0.15013806983E+04  0.97337591119E+02 0.  0.
         25    2    1    2    0    0 -0.91977380267E+00  0.40346327843E+02 -0.50413522888E+02  0.14077764141E+03  0.12509256124E+03 0.  0.
        -24    2    1    2    0    0 -0.24603688957E+02 -0.16827536406E+02  0.11585302555E+03  0.14403780147E+03  0.80227534122E+02 0.  0.
        -11    1    3    3    0    0  0.19863992220E+02 -0.47542820655E+02 -0.40275263534E+03  0.40603519952E+03  0.00000000000E+00 0.  1.
         12    1    3    3    0    0  0.56594705397E+01  0.24024029217E+02 -0.10950673852E+04  0.10953454987E+04  0.00000000000E+00 0. -1.
         11    1    5    5    0    0 -0.50734227596E+02 -0.18492300013E+02  0.99380870701E+02  0.11310386585E+03  0.00000000000E+00 0. -1.
        -12    1    5    5    0    0  0.26130538639E+02  0.16647636074E+01  0.16472154854E+02  0.30933935620E+02  0.00000000000E+00 0.  1.
          5    1    4    4  501    0 -0.54401721191E+02  0.11050979188E+02  0.79868979490E+01  0.56239971091E+02  0.41800000000E+01 0.  1.
         -5    1    4    4    0  501  0.53481947388E+02  0.29295348655E+02 -0.58400420837E+02  0.84537670320E+02  0.41800000000E+01 0.  1.
</event>
<event>
11    1  0.9238666E-009  0.1281316E+03  0.7561462E-02  0.1121586E+00
         22   -1    0    0    0    0  0.00000000000E+00  0.00000000000E+00  0.12203580117E+04  0.12203580117E+04  0.00000000000E+00 0.  1.
         22   -1    0    0    0    0 -0.00000000000E+00 -0.00000000000E+00 -0.44721313160E+02  0.44721313160E+02  0.00000000000E+00 0. -1.
         24    2    1    2    0    0 -0.25912518460E+02 -0.44400668698E+02  0.18765455536E+02  0.75170233991E+02  0.51531968359E+02 0.  0.
         25    2    1    2    0    0  0.40330105864E+02  0.58310107635E+02  0.35603906190E+03  0.38397618222E+03  0.12508920344E+03 0.  0.
        -24    2    1    2    0    0 -0.14417587404E+02 -0.13909438937E+02  0.80083218108E+03  0.80593290863E+03  0.88285512073E+02 0.  0.
        -11    1    3    3    0    0  0.15360540814E+02 -0.80614533402E+01  0.98163177472E+00  0.17375178992E+02  0.00000000000E+00 0.  1.
         12    1    3    3    0    0 -0.41273059275E+02 -0.36339215358E+02  0.17783823761E+02  0.57795054999E+02  0.00000000000E+00 0. -1.
         11    1    5    5    0    0  0.11916348427E+02 -0.18428589572E+01  0.13630736794E+02  0.18198694308E+02  0.00000000000E+00 0. -1.
        -12    1    5    5    0    0 -0.26333935830E+02 -0.12066579980E+02  0.78720144428E+03  0.78773421432E+03  0.00000000000E+00 0.  1.
          5    1    4    4  501    0  0.16208657463E+02  0.87446586422E+02  0.14985078766E+03  0.17430535567E+03  0.41800000000E+01 0.  1.
         -5    1    4    4    0  501  0.24121448401E+02 -0.29136478787E+02  0.20618827424E+03  0.20967082655E+03  0.41800000000E+01 0.  1.
</event>
<event>
11    1  0.9238666E-009  0.1380677E+03  0.7561462E-02  0.1109736E+00
         22   -1    0    0    0    0  0.00000000000E+00  0.00000000000E+00  0.14307076974E+03  0.14307076974E+03  0.00000000000E+00 0. -1.
         22   -1    0    0    0    0 -0.00000000000E+00 -0.00000000000E+00 -0.64405726577E+03  0.64405726577E+03  0.00000000000E+00 0. -1.
         24    2    1    2    0    0 -0.28076116255E+02 -0.46286474728E+02 -0.44316990049E+03  0.45342819138E+03  0.79163489020E+02 0.  0.
         25    2    1    2    0    0  0.27561400245E+02  0.83831579384E+02 -0.14240627414E+03  0.20907944473E+03  0.12508917943E+03 0.  0.
        -24    2    1    2    0    0  0.51471600949E+00 -0.37545104656E+02  0.84589678591E+02  0.12462039941E+03  0.83456158596E+02 0.  0.
        -13    1    3    3    0    0  0.13952200310E+02 -0.50557129908E+02 -0.20913076263E+03  0.21560696453E+03  0.00000000000E+00 0.  1.
         14    1    3    3    0    0 -0.42028316565E+02  0.42706551801E+01 -0.23403913786E+03  0.23782122685E+03  0.00000000000E+00 0. -1.
         11    1    5    5    0    0 -0.76004981262E+00 -0.63462603225E+02  0.47137127683E+02  0.79056868709E+02  0.00000000000E+00 0. -1.
        -12    1    5    5    0    0  0.12747658221E+01  0.25917498569E+02  0.37452550908E+02  0.45563530696E+02  0.00000000000E+00 0.  1.
          5    1    4    4  501    0 -0.16504529027E+02  0.37832981686E+02  0.11000043321E+02  0.42920942845E+02  0.41800000000E+01 0.  1.
         -5    1    4    4    0  501  0.44065929272E+02  0.45998597698E+02 -0.15340631746E+03  0.16615850189E+03  0.41800000000E+01 0.  1.
</event>
<event>
11    1  0.9238666E-009  0.1287978E+03  0.7561462E-02  0.1120755E+00
         22   -1    0    0    0    0  0.00000000000E+00  0.00000000000E+00  0.13610574844E+03  0.13610574844E+03  0.00000000000E+00 0. -1.
         22   -1    0    0    0    0 -0.00000000000E+00 -0.00000000000E+00 -0.76353111964E+03  0.76353111964E+03  0.00000000000E+00 0.  1.
         24    2    1    2    0    0  0.11523409825E+02  0.32444292359E+01 -0.56626055588E+03  0.57195113250E+03  0.79584957890E+02 0.  0.
         25    2    1    2    0    0  0.11591391479E+02 -0.24240873740E+02 -0.15426955884E+03  0.20042085939E+03  0.12508974291E+03 0.  0.
        -24    2    1    2    0    0 -0.23114801305E+02  0.20996444504E+02  0.93104743519E+02  0.12726487619E+03  0.80948815463E+02 0.  0.
        -11    1    3    3    0    0 -0.30501715681E+02 -0.15635445926E+00 -0.12445514219E+03  0.12813844671E+03  0.00000000000E+00 0.  1.
         12    1    3    3    0    0  0.42025125507E+02  0.34007836951E+01 -0.44180541369E+03  0.44381268579E+03  0.00000000000E+00 0. -1.
         13    1    5    5    0    0 -0.26056698571E+02  0.42176570623E+02  0.93552479676E+02  0.10587672598E+03  0.00000000000E+00 0. -1.
        -14    1    5    5    0    0  0.29418972662E+01 -0.21180126119E+02 -0.44773615661E+00  0.21388150215E+02  0.00000000000E+00 0.  1.
          5    1    4    4  501    0 -0.22456048659E+01  0.18846853726E+02 -0.15374670881E+03  0.15497022135E+03  0.41800000000E+01 0. -1.
         -5    1    4    4    0  501  0.13836996345E+02 -0.43087727466E+02 -0.52285002529E+00  0.45450638039E+02  0.41800000000E+01 0. -1.
</event>
<event>
11    1  0.9238666E-009  0.2169301E+03  0.7561462E-02  0.1043158E+00
         22   -1    0    0    0    0  0.00000000000E+00  0.00000000000E+00  0.15752216391E+04  0.15752216391E+04  0.00000000000E+00 0.  1.
         22   -1    0    0    0    0 -0.00000000000E+00 -0.00000000000E+00 -0.14737126760E+04  0.14737126760E+04  0.00000000000E+00 0.  1.
        -24    2    1    2    0    0 -0.10253301824E+03 -0.14395163912E+03 -0.14227609917E+04  0.14360371932E+04  0.81968815431E+02 0.  0.
         25    2    1    2    0    0  0.94296290388E+02  0.18134897359E+03  0.29329465843E+03  0.37874548888E+03  0.12508856097E+03 0.  0.
         24    2    1    2    0    0  0.82367278499E+01 -0.37397334465E+02  0.12309752964E+04  0.12341516330E+04  0.79772605743E+02 0.  0.
        -13    1    5    5    0    0 -0.13307778211E+02  0.14478322003E+02  0.68750205696E+03  0.68778324862E+03  0.00000000000E+00 0.  1.
         14    1    5    5    0    0  0.21544506061E+02 -0.51875656468E+02  0.54347323945E+03  0.54636838440E+03  0.00000000000E+00 0. -1.
         11    1    3    3    0    0 -0.56279100950E+02 -0.65549530669E+02 -0.99244743097E+03  0.99620077365E+03  0.00000000000E+00 0. -1.
        -12    1    3    3    0    0 -0.46253917288E+02 -0.78402108455E+02 -0.43031356068E+03  0.43983641957E+03  0.00000000000E+00 0.  1.
          5    1    4    4  501    0  0.10026660848E+03  0.57809870802E+02  0.14637387536E+03  0.18664982648E+03  0.41800000000E+01 0.  1.
         -5    1    4    4    0  501 -0.59703180964E+01  0.12353910279E+03  0.14692078307E+03  0.19209566240E+03  0.41800000000E+01 0.  1.
</event>
<event>
11    1  0.9238666E-009  0.1514918E+03  0.7561462E-02  0.1095364E+00
         22   -1    0    0    0    0  0.00000000000E+00  0.00000000000E+00  0.89635288696E+03  0.89635288696E+03  0.00000000000E+00 0. -1.
         22   -1    0    0    0    0 -0.00000000000E+00 -0.00000000000E+00 -0.70993220055E+03  0.70993220055E+03  0.00000000000E+00 0. -1.
        -24    2    1    2    0    0  0.25940362366E+02  0.81102377182E+01 -0.68678750587E+03  0.69200617561E+03  0.80354156803E+02 0.  0.
         25    2    1    2    0    0  0.70125811845E+02 -0.54691360066E+01  0.41215171195E+03  0.43642114515E+03  0.12508733483E+03 0.  0.
         24    2    1    2    0    0 -0.96066174212E+02 -0.26411017116E+01  0.46105648032E+03  0.47785776674E+03  0.80865826815E+02 0.  0.
        -13    1    5    5    0    0  0.13317884717E+02 -0.84084036517E+01  0.47618078664E+02  0.50155246195E+02  0.00000000000E+00 0.  1.
         14    1    5    5    0    0 -0.10938405893E+03  0.57673019401E+01  0.41343840166E+03  0.42770252055E+03  0.00000000000E+00 0. -1.
         13    1    3    3    0    0 -0.52249535428E+01 -0.11858823250E+02 -0.55413300605E+03  0.55428451198E+03  0.00000000000E+00 0. -1.
        -14    1    3    3    0    0  0.31165315909E+02  0.19969060968E+02 -0.13265449982E+03  0.13772166363E+03  0.00000000000E+00 0.  1.
          5    1    4    4  501    0 -0.34197092607E+02  0.14201455750E+02  0.10726225404E+03  0.11355080814E+03  0.41800000000E+01 0.  1.
         -5    1    4    4    0  501  0.10432290445E+03 -0.19670591757E+02  0.30488945792E+03  0.32287033701E+03  0.41800000000E+01 0.  1.
</event>
<event>
11    1  0.9238666E-009  0.1524838E+03  0.7561462E-02  0.1094367E+00
         22   -1    0    0    0    0  0.00000000000E+00  0.00000000000E+00  0.52166066286E+03  0.52166066286E+03  0.00000000000E+00 0. -1.
         22   -1    0    0    0    0 -0.00000000000E+00 -0.00000000000E+00 -0.78277698151E+03  0.78277698151E+03  0.00000000000E+00 0.  1.
        -24    2    1    2    0    0 -0.56054331614E+02  0.17847704723E+02 -0.61427197148E+03  0.62248392054E+03  0.81826326630E+02 0.  0.
         25    2    1    2    0    0  0.14029263767E+03 -0.26524860198E+02 -0.99922986466E+02  0.21451715879E+03  0.12508963106E+03 0.  0.
         24    2    1    2    0    0 -0.84238306055E+02  0.86771554751E+01  0.45307863931E+03  0.46743656504E+03  0.77751551146E+02 0.  0.
        -13    1    5    5    0    0  0.38198863656E+01 -0.52541691070E+01  0.90621227825E+00  0.65588905727E+01  0.00000000000E+00 0.  1.
         14    1    5    5    0    0 -0.88058192421E+02  0.13931324582E+02  0.45217242703E+03  0.46087767447E+03  0.00000000000E+00 0. -1.
         11    1    3    3    0    0 -0.36682697298E+02  0.49397176587E+02 -0.31704336052E+03  0.32295850165E+03  0.00000000000E+00 0. -1.
        -12    1    3    3    0    0 -0.19371634316E+02 -0.31549471863E+02 -0.29722861096E+03  0.29952541890E+03  0.00000000000E+00 0.  1.
          5    1    4    4  501    0  0.76488307413E+02  0.46653448514E+02 -0.29185143766E+02  0.94319936629E+02  0.41800000000E+01 0. -1.
         -5    1    4    4    0  501  0.63804330257E+02 -0.73178308712E+02 -0.70737842700E+02  0.12019722216E+03  0.41800000000E+01 0. -1.
</event>
<event>
11    1  0.9238666E-009  0.1636329E+03  0.7561462E-02  0.1083709E+00
         22   -1    0    0    0    0  0.00000000000E+00  0.00000000000E+00  0.29953389876E+03  0.29953389876E+03  0.00000000000E+00 0.  1.
         22   -1    0    0    0    0 -0.00000000000E+00 -0.00000000000E+00 -0.42882927432E+03  0.42882927432E+03  0.00000000000E+00 0. -1.
        -24    2    1    2    0    0  0.54638176992E+02  0.62804511911E+02 -0.20708471478E+03  0.23770504611E+03  0.81791642297E+02 0.  0.
         25    2    1    2    0    0 -0.15209000904E+03 -0.83073968337E+02 -0.12749935491E+03  0.24886959480E+03  0.12508930671E+03 0.  0.
         24    2    1    2    0    0  0.97451832045E+02  0.20269456426E+02  0.20528869412E+03  0.24178853216E+03  0.80065822416E+02 0.  0.
        -13    1    5    5    0    0  0.10123457473E+03  0.16016793898E+02  0.21046505064E+03  0.23409509681E+03  0.00000000000E+00 0.  1.
         14    1    5    5    0    0 -0.37827426854E+01  0.42526625280E+01 -0.51763565185E+01  0.76934353580E+01  0.00000000000E+00 0. -1.
         13    1    3    3    0    0  0.74581075702E+02  0.55351657645E+02 -0.14621430485E+03  0.17321883789E+03  0.00000000000E+00 0. -1.
        -14    1    3    3    0    0 -0.19942898710E+02  0.74528542662E+01 -0.60870409935E+02  0.64486208226E+02  0.00000000000E+00 0.  1.
          5    1    4    4  501    0 -0.79987743416E+02 -0.44805927531E+02 -0.13875688358E+03  0.16636272232E+03  0.41800000000E+01 0. -1.
         -5    1    4    4    0  501 -0.72102265620E+02 -0.38268040806E+02  0.11257528673E+02  0.82506872481E+02  0.41800000000E+01 0. -1.
</event>
<event>
11    1  0.9238666E-009  0.1325395E+03  0.7561462E-02  0.1116188E+00
         22   -1    0    0    0    0  0.00000000000E+00  0.00000000000E+00  0.30808622070E+03  0.30808622070E+03  0.00000000000E+00 0.  1.
         22   -1    0    0    0    0 -0.00000000000E+00 -0.00000000000E+00 -0.15308531549E+04  0.15308531549E+04  0.00000000000E+00 0. -1.
        -24    2    1    2    0    0  0.69811452250E+01 -0.12531683413E+02 -0.13369765039E+04  0.13396762625E+04  0.83788644755E+02 0.  0.
         25    2    1    2    0    0 -0.26377872775E+02 -0.27098688552E+02 -0.16204489184E+03  0.20817328327E+03  0.12508971900E+03 0.  0.
         24    2    1    2    0    0  0.19396727550E+02  0.39630371965E+02  0.27625446151E+03  0.29108982981E+03  0.80436074604E+02 0.  0.
        -11    1    5    5    0    0  0.50653214474E+02  0.22539338583E+02  0.18497999443E+03  0.19310973114E+03  0.00000000000E+00 0.  1.
         12    1    5    5    0    0 -0.31256486924E+02  0.17091033381E+02  0.91274467072E+02  0.97980098674E+02  0.00000000000E+00 0. -1.
         13    1    3    3    0    0 -0.96220536304E+01 -0.15191699281E+02 -0.12833359466E+04  0.12834619291E+04  0.00000000000E+00 0. -1.
        -14    1    3    3    0    0  0.16603198855E+02  0.26600158674E+01 -0.53640557264E+02  0.56214333405E+02  0.00000000000E+00 0.  1.
          5    1    4    4  501    0 -0.60088321663E+02 -0.14729656394E+02 -0.25710198614E+02  0.67127162092E+02  0.41800000000E+01 0.  1.
         -5    1    4    4    0  501  0.33710448888E+02 -0.12369032158E+02 -0.13633469323E+03  0.14104612118E+03  0.41800000000E+01 0.  1.
</event>
<event>
11    1  0.9238666E-009  0.1488596E+03  0.7561462E-02  0.1098050E+00
         22   -1    0    0    0    0  0.00000000000E+00  0.00000000000E+00  0.47449271966E+03  0.47449271966E+03  0.00000000000E+00 0.  1.
         22   -1    0    0    0    0 -0.00000000000E+00 -0.00000000000E+00 -0.89038173402E+03  0.89038173402E+03  0.00000000000E+00 0.  1.
         24    2    1    2    0    0 -0.77505206345E+01 -0.80984316123E+02 -0.72879037994E+03  0.73761789235E+03  0.79537457804E+02 0.  0.
         25    2    1    2    0    0  0.68885804770E+02  0.66002779662E+02 -0.11011401376E+03  0.19202535966E+03  0.12508805581E+03 0.  0.
        -24    2    1    2    0    0 -0.61135284136E+02  0.14981536461E+02  0.42301537935E+03  0.43523120167E+03  0.80760252224E+02 0.  0.
        -11    1    3    3    0    0 -0.29179194586E+02 -0.16409705784E+02 -0.10696153484E+03  0.11207798078E+03  0.00000000000E+00 0.  1.
         12    1    3    3    0    0  0.21428673951E+02 -0.64574610339E+02 -0.62182884510E+03  0.62553991157E+03  0.00000000000E+00 0. -1.
         13    1    5    5    0    0 -0.52021498479E+01  0.21291519957E+02  0.24966695024E+02  0.33222387716E+02  0.00000000000E+00 0. -1.
        -14    1    5    5    0    0 -0.55933134288E+02 -0.63099834965E+01  0.39804868432E+03  0.40200881395E+03  0.00000000000E+00 0.  1.
          5    1    4    4  501    0  0.90157220140E+02  0.84301035721E+02 -0.67249024536E+02  0.14062322947E+03  0.41800000000E+01 0.  1.
         -5    1    4    4    0  501 -0.21271415369E+02 -0.18298256059E+02 -0.42864989227E+02  0.51402130189E+02  0.41800000000E+01 0.  1.
</event>
<event>
11    1  0.9238666E-009  0.2323099E+03  0.7561462E-02  0.1033769E+00
         22   -1    0    0    0    0  0.00000000000E+00  0.00000000000E+00  0.77079401735E+03  0.77079401735E+03  0.00000000000E+00 0.  1.
         22   -1    0    0    0    0 -0.00000000000E+00 -0.00000000000E+00 -0.10558386428E+03  0.10558386428E+03  0.00000000000E+00 0. -1.
         24    2    1    2    0    0  0.36861276710E+02  0.22756075641E+03  0.22587479829E+03  0.33383877550E+03  0.85359545137E+02 0.  0.
         25    2    1    2    0    0 -0.75186145697E+01 -0.17524026622E+03  0.32524112274E+03  0.39012032629E+03  0.12508557308E+03 0.  0.
        -24    2    1    2    0    0 -0.29342662140E+02 -0.52320490197E+02  0.11409423204E+03  0.15241877984E+03  0.81336124500E+02 0.  0.
        -13    1    3    3    0    0 -0.18042824821E+02  0.78625192613E+02  0.11394831829E+03  0.13961262007E+03  0.00000000000E+00 0.  1.
         14    1    3    3    0    0  0.54904101530E+02  0.14893556380E+03  0.11192648000E+03  0.19422615543E+03  0.00000000000E+00 0. -1.
         13    1    5    5    0    0 -0.32864235537E+02  0.11978475891E+02  0.27443497827E+02  0.44459953161E+02  0.00000000000E+00 0. -1.
        -14    1    5    5    0    0  0.35215733971E+01 -0.64298966088E+02  0.86650734212E+02  0.10795882668E+03  0.00000000000E+00 0.  1.
          5    1    4    4  501    0 -0.18841223976E+02 -0.11709077110E+03  0.94042060369E+02  0.15141539524E+03  0.41800000000E+01 0. -1.
         -5    1    4    4    0  501  0.11322609407E+02 -0.58149495120E+02  0.23119906237E+03  0.23870493105E+03  0.41800000000E+01 0. -1.
</event>
<event>
11    1  0.9238666E-009  0.2417767E+03  0.7561462E-02  0.1028373E+00
         22   -1    0    0    0    0  0.00000000000E+00  0.00000000000E+00  0.56232687505E+03  0.56232687505E+03  0.00000000000E+00 0.  1.
         22   -1    0    0    0    0 -0.00000000000E+00 -0.00000000000E+00 -0.93943460396E+03  0.93943460396E+03  0.00000000000E+00 0.  1.
         24    2    1    2    0    0 -0.79265931659E+02  0.19308548901E+03 -0.66572692328E+03  0.70234838960E+03  0.80844480408E+02 0.  0.
         25    2    1    2    0    0  0.11966119854E+03 -0.16692068845E+03 -0.19321032513E+03  0.30847994076E+03  0.12509326697E+03 0.  0.
        -24    2    1    2    0    0 -0.40395266882E+02 -0.26164800552E+02  0.48182951950E+03  0.49093314865E+03  0.80865914986E+02 0.  0.
        -13    1    3    3    0    0 -0.82666955587E+02  0.19061780804E+03 -0.57266094873E+03  0.60918760369E+03  0.00000000000E+00 0.  1.
         14    1    3    3    0    0  0.34010239283E+01  0.24676809625E+01 -0.93065974548E+02  0.93160785912E+02  0.00000000000E+00 0. -1.
         11    1    5    5    0    0 -0.10446247505E+02 -0.12215698681E+02  0.12291774319E+02  0.20234502641E+02  0.00000000000E+00 0. -1.
        -12    1    5    5    0    0 -0.29949019378E+02 -0.13949101871E+02  0.46953774518E+03  0.47069864601E+03  0.00000000000E+00 0.  1.
          5    1    4    4  501    0  0.92774186278E+02 -0.34656737620E+02 -0.47824194681E+02  0.11005800788E+03  0.41800000000E+01 0. -1.
         -5    1    4    4    0  501  0.26887012263E+02 -0.13226395083E+03 -0.14538613045E+03  0.19842193287E+03  0.41800000000E+01 0. -1.
</event>
<event>
11    1  0.9238666E-009  0.1489422E+03  0.7561462E-02  0.1097965E+00
         22   -1    0    0    0    0  0.00000000000E+00  0.00000000000E+00  0.61084811698E+03  0.61084811698E+03  0.00000000000E+00 0.  1.
         22   -1    0    0    0    0 -0.00000000000E+00 -0.00000000000E+00 -0.90273649887E+03  0.90273649887E+03  0.00000000000E+00 0.  1.
        -24    2    1    2    0    0 -0.34829667979E+00 -0.24914326937E+02 -0.76776931940E+03  0.77244357331E+03  0.81107959841E+02 0.  0.
         25    2    1    2    0    0 -0.76917873817E+02  0.47674820941E+02 -0.79853909275E+02  0.17381942944E+03  0.12508916563E+03 0.  0.
         24    2    1    2    0    0  0.77266170497E+02 -0.22760494004E+02  0.55573484678E+03  0.56732161311E+03  0.80774324985E+02 0.  0.
        -13    1    5    5    0    0  0.36112858028E+02 -0.50755068650E+02  0.36050675080E+03  0.36584878417E+03  0.00000000000E+00 0.  1.
         14    1    5    5    0    0  0.41153312468E+02  0.27994574646E+02  0.19522809599E+03  0.20147282894E+03  0.00000000000E+00 0. -1.
         11    1    3    3    0    0 -0.15370444519E+02  0.26302408204E+02 -0.22424599842E+03  0.22630584405E+03  0.00000000000E+00 0. -1.
        -12    1    3    3    0    0  0.15022147839E+02 -0.51216735141E+02 -0.54352332097E+03  0.54613772926E+03  0.00000000000E+00 0.  1.
          5    1    4    4  501    0  0.11797443560E+02  0.42930802773E+02  0.11652578666E+02  0.46211345910E+02  0.41800000000E+01 0. -1.
         -5    1    4    4    0  501 -0.88715317377E+02  0.47440181689E+01 -0.91506487942E+02  0.12760808353E+03  0.41800000000E+01 0. -1.
</event>
