<event>
11    1  0.8864208E-009  0.1334771E+03  0.7561462E-02  0.1115069E+00
         22   -1    0    0    0    0  0.00000000000E+00  0.00000000000E+00  0.10328174149E+04  0.10328174149E+04  0.00000000000E+00 0.  1.
         22   -1    0    0    0    0 -0.00000000000E+00 -0.00000000000E+00 -0.15737994061E+04  0.15737994061E+04  0.00000000000E+00 0.  1.
        -24    2    1    2    0    0 -0.20856991529E+02 -0.29267894851E+02 -0.14680738378E+04  0.14707491752E+04  0.81059973627E+02 0.  0.
         25    2    1    2    0    0  0.24930335508E+02 -0.17713031226E+02 -0.61615922172E+02  0.14275164656E+03  0.12508492166E+03 0.  0.
         24    2    1    2    0    0 -0.40733439795E+01  0.46980926077E+02  0.98870776880E+03  0.99311599916E+03  0.80700285950E+02 0.  0.
        -11    1    5    5    0    0 -0.25966370404E+01  0.22068656352E+02  0.91553417522E+03  0.91580379673E+03  0.00000000000E+00 0.  1.
         12    1    5    5    0    0 -0.14767069391E+01  0.24912269725E+02  0.73173593582E+02  0.77312202426E+02  0.00000000000E+00 0. -1.
         11    1    3    3    0    0  0.15233969284E+02  0.20815780089E+02 -0.33280117782E+03  0.33379933266E+03  0.00000000000E+00 0. -1.
        -12    1    3    3    0    0 -0.36090960813E+02 -0.50083674940E+02 -0.11352726600E+04  0.11369498426E+04  0.00000000000E+00 0.  1.
          5    1    4    4  501    0  0.17303518891E+02 -0.59142828086E+02 -0.76099531651E+02  0.98009678081E+02  0.41800000000E+01 0. -1.
         -5    1    4    4    0  501  0.76268166172E+01  0.41429796860E+02  0.14483609479E+02  0.44741968476E+02  0.41800000000E+01 0. -1.
</event>
<event>
11    1  0.8864208E-009  0.1533775E+03  0.7561462E-02  0.1093477E+00
         22   -1    0    0    0    0  0.00000000000E+00  0.00000000000E+00  0.17381229047E+03  0.17381229047E+03  0.00000000000E+00 0.  1.
         22   -1    0    0    0    0 -0.00000000000E+00 -0.00000000000E+00 -0.15488607313E+04  0.15488607313E+04  0.00000000000E+00 0.  1.
        -24    2    1    2    0    0 -0.19560506689E+02  0.18167401243E+00 -0.79442690976E+03  0.79880336787E+03  0.81179179268E+02 0.  0.
         25    2    1    2    0    0 -0.56545710960E+02 -0.46763494011E+02 -0.72334836584E+03  0.73774304589E+03  0.12509077347E+03 0.  0.
         24    2    1    2    0    0  0.76106217649E+02  0.46581819998E+02  0.14272683481E+03  0.18612660796E+03  0.79436405366E+02 0.  0.
        -13    1    5    5    0    0  0.27702679218E+02  0.45644070834E+01  0.11121237974E+03  0.11470163754E+03  0.00000000000E+00 0.  1.
         14    1    5    5    0    0  0.48403538431E+02  0.42017412915E+02  0.31514455067E+02  0.71424970416E+02  0.00000000000E+00 0. -1.
         13    1    3    3    0    0 -0.26367473864E+02  0.44042912322E+01 -0.80327153225E+02  0.84658685345E+02  0.00000000000E+00 0. -1.
        -14    1    3    3    0    0  0.68069671751E+01 -0.42226172197E+01 -0.71409975654E+03  0.71414468253E+03  0.00000000000E+00 0.  1.
          5    1    4    4  501    0  0.35125046780E+02  0.72204122472E+01 -0.24825186099E+03  0.25086323395E+03  0.41800000000E+01 0. -1.
         -5    1    4    4    0  501 -0.91670757740E+02 -0.53983906258E+02 -0.47509650485E+03  0.48687981194E+03  0.41800000000E+01 0. -1.
</event>
<event>
11    1  0.8864208E-009  0.1349749E+03  0.7561462E-02  0.1113303E+00
         22   -1    0    0    0    0  0.00000000000E+00  0.00000000000E+00  0.61158541131E+03  0.61158541131E+03  0.00000000000E+00 0.  1.
         22   -1    0    0    0    0 -0.00000000000E+00 -0.00000000000E+00 -0.17883184349E+03  0.17883184349E+03  0.00000000000E+00 0. -1.
         24    2    1    2    0    0  0.30602678579E+02 -0.15190835515E+02 -0.58942516815E+02  0.10522635687E+03  0.80194017681E+02 0.  0.
         25    2    1    2    0    0 -0.79812267657E+02  0.10422516491E+02 -0.32831855249E+02  0.15233140983E+03  0.12509316841E+03 0.  0.
        -24    2    1    2    0    0  0.49209589077E+02  0.47683190239E+01  0.52452793988E+03  0.53285948811E+03  0.79783167531E+02 0.  0.
        -13    1    3    3    0    0 -0.54817765108E+01  0.28797755542E+02 -0.12868296980E+02  0.32014897550E+02  0.00000000000E+00 0.  1.
         14    1    3    3    0    0  0.36084455090E+02 -0.43988591057E+02 -0.46074219836E+02  0.73211459320E+02  0.00000000000E+00 0. -1.
         11    1    5    5    0    0 -0.10472971592E+02 -0.23627265658E+02  0.10364114200E+03  0.10681487317E+03  0.00000000000E+00 0. -1.
        -12    1    5    5    0    0  0.59682560669E+02  0.28395584682E+02  0.42088679789E+03  0.42604461493E+03  0.00000000000E+00 0.  1.
          5    1    4    4  501    0  0.82661988995E+00 -0.48553171401E+02 -0.11941227921E+02  0.50181262218E+02  0.41800000000E+01 0. -1.
         -5    1    4    4    0  501 -0.80638887546E+02  0.58975687892E+02 -0.20890627329E+02  0.10215014761E+03  0.41800000000E+01 0. -1.
</event>
<event>
11    1  0.8864208E-009  0.2075007E+03  0.7561462E-02  0.1049343E+00
         22   -1    0    0    0    0  0.00000000000E+00  0.00000000000E+00  0.56910382104E+03  0.56910382104E+03  0.00000000000E+00 0.  1.
         22   -1    0    0    0    0 -0.00000000000E+00 -0.00000000000E+00 -0.11323282929E+04  0.11323282929E+04  0.00000000000E+00 0.  1.
        -24    2    1    2    0    0 -0.15376594624E+03 -0.59473902673E+02 -0.10316677756E+04  0.10478610998E+04  0.80581474114E+02 0.  0.
         25    2    1    2    0    0  0.18194742731E+03  0.21444533141E+02  0.57589537937E+02  0.22919176430E+03  0.12509026995E+03 0.  0.
         24    2    1    2    0    0 -0.28181481076E+02  0.38029369532E+02  0.41085376582E+03  0.42437924981E+03  0.95165655367E+02 0.  0.
        -13    1    5    5    0    0 -0.57007102494E+02  0.48947604749E+02  0.30588819385E+03  0.31498137228E+03  0.00000000000E+00 0.  1.
         14    1    5    5    0    0  0.28825621418E+02 -0.10918235216E+02  0.10496557197E+03  0.10939787753E+03  0.00000000000E+00 0. -1.
         11    1    3    3    0    0 -0.23958223405E+02  0.17569942216E+02 -0.24931706290E+03  0.25108105701E+03  0.00000000000E+00 0. -1.
        -12    1    3    3    0    0 -0.12980772283E+03 -0.77043844889E+02 -0.78235071272E+03  0.79678004282E+03  0.00000000000E+00 0.  1.
          5    1    4    4  501    0  0.19231918560E+03  0.28056274515E+02  0.74222231890E+02  0.20808708704E+03  0.41800000000E+01 0.  1.
         -5    1    4    4    0  501 -0.10371758285E+02 -0.66117413741E+01 -0.16632693953E+02  0.21104677256E+02  0.41800000000E+01 0.  1.
</event>
<event>
11    1  0.8864208E-009  0.1475577E+03  0.7561462E-02  0.1099401E+00
         22   -1    0    0    0    0  0.00000000000E+00  0.00000000000E+00  0.40642239352E+03  0.40642239352E+03  0.00000000000E+00 0. -1.
         22   -1    0    0    0    0 -0.00000000000E+00 -0.00000000000E+00 -0.31283202161E+03  0.31283202161E+03  0.00000000000E+00 0.  1.
         24    2    1    2    0    0 -0.11343538657E+02  0.26680949332E+02 -0.10505333422E+03  0.13623587593E+03  0.81752442970E+02 0.  0.
         25    2    1    2    0    0  0.77910471289E+02 -0.65809531252E+02 -0.14787436494E+03  0.21888855998E+03  0.12507772760E+03 0.  0.
        -24    2    1    2    0    0 -0.66566932632E+02  0.39128581919E+02  0.34651807107E+03  0.36412997922E+03  0.80954714179E+02 0.  0.
        -13    1    3    3    0    0 -0.30632408845E+02  0.48525210670E+02 -0.65061351436E+02  0.86752636807E+02  0.00000000000E+00 0.  1.
         14    1    3    3    0    0  0.19288870188E+02 -0.21844261338E+02 -0.39991982786E+02  0.49483239118E+02  0.00000000000E+00 0. -1.
         11    1    5    5    0    0 -0.21593867207E+02  0.37150722979E+02  0.28319403314E+03  0.28643556295E+03  0.00000000000E+00 0. -1.
        -12    1    5    5    0    0 -0.44973065425E+02  0.19778589403E+01  0.63324037935E+02  0.77694416273E+02  0.00000000000E+00 0.  1.
          5    1    4    4  501    0  0.51133014883E+02  0.30925658702E+02 -0.67377978308E+02  0.90156785313E+02  0.41800000000E+01 0.  1.
         -5    1    4    4    0  501  0.26777456406E+02 -0.96735189954E+02 -0.80496386635E+02  0.12873177466E+03  0.41800000000E+01 0.  1.
</event>
<event>
11    1  0.8864208E-009  0.5956974E+03  0.7561462E-02  0.9201923E-01
         22   -1    0    0    0    0  0.00000000000E+00  0.00000000000E+00  0.15793224371E+04  0.15793224371E+04  0.00000000000E+00 0.  1.
         22   -1    0    0    0    0 -0.00000000000E+00 -0.00000000000E+00 -0.31218115007E+03  0.31218115007E+03  0.00000000000E+00 0. -1.
        -24    2    1    2    0    0  0.59049253372E+02 -0.15544753437E+02 -0.17462101564E+02  0.10354243164E+03  0.81778092881E+02 0.  0.
         25    2    1    2    0    0  0.53676227812E+03 -0.80020752788E+02  0.30635937515E+03  0.63562728112E+03  0.12509560213E+03 0.  0.
         24    2    1    2    0    0 -0.59581153150E+03  0.95565506224E+02  0.97824401344E+03  0.11523338744E+04  0.82388477418E+02 0.  0.
        -13    1    5    5    0    0 -0.59174322288E+03  0.10205189674E+03  0.95739958257E+03  0.11301276884E+04  0.00000000000E+00 0.  1.
         14    1    5    5    0    0 -0.40683086196E+01 -0.64863905196E+01  0.20844430871E+02  0.22206185970E+02  0.00000000000E+00 0. -1.
         13    1    3    3    0    0 -0.55310801584E+01 -0.33159699667E+02  0.24418242490E+01  0.33706394577E+02  0.00000000000E+00 0. -1.
        -14    1    3    3    0    0  0.64580333531E+02  0.17614946230E+02 -0.19903925813E+02  0.69836037061E+02  0.00000000000E+00 0.  1.
          5    1    4    4  501    0  0.15681515738E+03 -0.81797190584E+02  0.94002536909E+02  0.20033902096E+03  0.41800000000E+01 0. -1.
         -5    1    4    4    0  501  0.37994712074E+03  0.17764377966E+01  0.21235683824E+03  0.43528826016E+03  0.41800000000E+01 0. -1.
</event>
<event>
11    1  0.8864208E-009  0.1620313E+03  0.7561462E-02  0.1085182E+00
         22   -1    0    0    0    0  0.00000000000E+00  0.00000000000E+00  0.34743098425E+03  0.34743098425E+03  0.00000000000E+00 0.  1.
         22   -1    0    0    0    0 -0.00000000000E+00 -0.00000000000E+00 -0.53491045089E+03  0.53491045089E+03  0.00000000000E+00 0.  1.
         24    2    1    2    0    0 -0.51139156142E+02  0.31805576789E+02 -0.37354175285E+03  0.38990827425E+03  0.94171190903E+02 0.  0.
         25    2    1    2    0    0  0.14800520423E+03 -0.13651005309E+02 -0.69837976075E+02  0.20643635168E+03  0.12508690566E+03 0.  0.
        -24    2    1    2    0    0 -0.96866048088E+02 -0.18154571481E+02  0.25590026229E+03  0.28599680921E+03  0.81219522897E+02 0.  0.
        -11    1    3    3    0    0 -0.51396830129E+02  0.47328147437E+02 -0.36607218958E+03  0.37268007147E+03  0.00000000000E+00 0.  1.
         12    1    3    3    0    0  0.25767398718E+00 -0.15522570648E+02 -0.74695632712E+01  0.17228202775E+02  0.00000000000E+00 0. -1.
         13    1    5    5    0    0 -0.87935299265E+02 -0.31843561463E+02  0.13639517559E+03  0.16537918003E+03  0.00000000000E+00 0. -1.
        -14    1    5    5    0    0 -0.89307488228E+01  0.13688989983E+02  0.11950508670E+03  0.12061762918E+03  0.00000000000E+00 0.  1.
          5    1    4    4  501    0  0.65127093132E+02 -0.18118455473E+02  0.32070777612E+02  0.74938800799E+02  0.41800000000E+01 0.  1.
         -5    1    4    4    0  501  0.82878111098E+02  0.44674501642E+01 -0.10190875369E+03  0.13149755088E+03  0.41800000000E+01 0.  1.
</event>
<event>
11    1  0.8864208E-009  0.1302289E+03  0.7561462E-02  0.1118988E+00
         22   -1    0    0    0    0  0.00000000000E+00  0.00000000000E+00  0.21650614692E+04  0.21650614692E+04  0.00000000000E+00 0.  1.
         22   -1    0    0    0    0 -0.00000000000E+00 -0.00000000000E+00 -0.27601462084E+03  0.27601462084E+03  0.00000000000E+00 0. -1.
        -24    2    1    2    0    0 -0.44567212041E+02 -0.12614163851E+01 -0.10491589197E+03  0.13910005072E+03  0.79709799668E+02 0.  0.
         25    2    1    2    0    0  0.75182377762E+02  0.20140034432E+02 -0.11755235147E+03  0.18847942302E+03  0.12509167299E+03 0.  0.
         24    2    1    2    0    0 -0.30615165721E+02 -0.18878618047E+02  0.21115150918E+04  0.21134966163E+04  0.84132476461E+02 0.  0.
        -13    1    5    5    0    0  0.19757425075E+02 -0.28141444049E+02  0.12409077912E+04  0.12413840836E+04  0.00000000000E+00 0.  1.
         14    1    5    5    0    0 -0.50372590796E+02  0.92628260020E+01  0.87060730062E+03  0.87211253273E+03  0.00000000000E+00 0. -1.
         13    1    3    3    0    0  0.10131059260E+02 -0.86679601009E+01 -0.75276598215E+02  0.76448270961E+02  0.00000000000E+00 0. -1.
        -14    1    3    3    0    0 -0.54698271301E+02  0.74065437158E+01 -0.29639293754E+02  0.62651779762E+02  0.00000000000E+00 0.  1.
          5    1    4    4  501    0 -0.13378854486E+02  0.34032908348E+02 -0.85671107735E+02  0.93242928410E+02  0.41800000000E+01 0.  1.
         -5    1    4    4    0  501  0.88561232248E+02 -0.13892873917E+02 -0.31881243740E+02  0.95236494609E+02  0.41800000000E+01 0.  1.
</event>
<event>
11    1  0.8864208E-009  0.1581886E+03  0.7561462E-02  0.1088793E+00
         22   -1    0    0    0    0  0.00000000000E+00  0.00000000000E+00  0.52995117145E+03  0.52995117145E+03  0.00000000000E+00 0.  1.
         22   -1    0    0    0    0 -0.00000000000E+00 -0.00000000000E+00 -0.14924423246E+04  0.14924423246E+04  0.00000000000E+00 0. -1.
         24    2    1    2    0    0  0.26633713631E+02  0.26544602824E+02 -0.12084615910E+04  0.12117408544E+04  0.80762061180E+02 0.  0.
         25    2    1    2    0    0  0.70984139898E+02 -0.26775455674E+02 -0.25458758172E+03  0.29362383520E+03  0.12507776256E+03 0.  0.
        -24    2    1    2    0    0 -0.97617853529E+02  0.23085285019E+00  0.50055801964E+03  0.51702880643E+03  0.85036210112E+02 0.  0.
        -13    1    3    3    0    0  0.52934293984E+02  0.31387228632E+02 -0.91287848513E+03  0.91495045015E+03  0.00000000000E+00 0.  1.
         14    1    3    3    0    0 -0.26300580354E+02 -0.48426258083E+01 -0.29558310590E+03  0.29679040423E+03  0.00000000000E+00 0. -1.
         11    1    5    5    0    0 -0.47096733544E+02 -0.42260879991E+02  0.25822489709E+03  0.26586496905E+03  0.00000000000E+00 0. -1.
        -12    1    5    5    0    0 -0.50521119986E+02  0.42491732841E+02  0.24233312255E+03  0.25116383738E+03  0.00000000000E+00 0.  1.
          5    1    4    4  501    0  0.35589910018E+02  0.43738791888E+02 -0.54633101369E+02  0.78625516063E+02  0.41800000000E+01 0. -1.
         -5    1    4    4    0  501  0.35394229881E+02 -0.70514247562E+02 -0.19995448035E+03  0.21499831914E+03  0.41800000000E+01 0. -1.
</event>
<event>
11    1  0.8864208E-009  0.3143468E+03  0.7561462E-02  0.9942958E-01
         22   -1    0    0    0    0  0.00000000000E+00  0.00000000000E+00  0.99109912509E+02  0.99109912509E+02  0.00000000000E+00 0. -1.
         22   -1    0    0    0    0 -0.00000000000E+00 -0.00000000000E+00 -0.14995795450E+04  0.14995795450E+04  0.00000000000E+00 0. -1.
         24    2    1    2    0    0 -0.21733053340E+02 -0.52011587149E+02 -0.37571525982E+03  0.38818309394E+03  0.79665721351E+02 0.  0.
         25    2    1    2    0    0  0.17609956457E+03  0.27293870977E+03 -0.69414139482E+03  0.77652232125E+03  0.12509213988E+03 0.  0.
        -24    2    1    2    0    0 -0.15436651122E+03 -0.22092712262E+03 -0.33061297787E+03  0.43398404234E+03  0.79996215969E+02 0.  0.
        -13    1    3    3    0    0  0.30414997442E+02 -0.19058263359E+02 -0.13532455827E+03  0.14000366261E+03  0.00000000000E+00 0.  1.
         14    1    3    3    0    0 -0.52148050782E+02 -0.32953323789E+02 -0.24039070154E+03  0.24817943134E+03  0.00000000000E+00 0. -1.
         11    1    5    5    0    0 -0.15736788910E+03 -0.19629538746E+03 -0.27296742935E+03  0.37122466128E+03  0.00000000000E+00 0. -1.
        -12    1    5    5    0    0  0.30013778744E+01 -0.24631735158E+02 -0.57645548520E+02  0.62759381053E+02  0.00000000000E+00 0.  1.
          5    1    4    4  501    0 -0.55659572806E+01  0.80052212428E+02 -0.20544812334E+03  0.22060312867E+03  0.41800000000E+01 0. -1.
         -5    1    4    4    0  501  0.18166552185E+03  0.19288649734E+03 -0.48869327148E+03  0.55591919257E+03  0.41800000000E+01 0. -1.
</event>
<event>
11    1  0.8864208E-009  0.2533876E+03  0.7561462E-02  0.1022110E+00
         22   -1    0    0    0    0  0.00000000000E+00  0.00000000000E+00  0.12576500636E+04  0.12576500636E+04  0.00000000000E+00 0. -1.
         22   -1    0    0    0    0 -0.00000000000E+00 -0.00000000000E+00 -0.19881422944E+04  0.19881422944E+04  0.00000000000E+00 0. -1.
         24    2    1    2    0    0 -0.99696348902E+02  0.19135476139E+03 -0.15913849045E+04  0.16076960392E+04  0.74997555982E+02 0.  0.
         25    2    1    2    0    0  0.12623459253E+03 -0.21443456220E+03 -0.33691448473E+03  0.43712301449E+03  0.12509119058E+03 0.  0.
        -24    2    1    2    0    0 -0.26538243625E+02  0.23079800803E+02  0.11978071585E+04  0.12009733044E+04  0.79736649693E+02 0.  0.
        -13    1    3    3    0    0 -0.38741781182E+02  0.15301089970E+02 -0.25298029306E+03  0.25638657851E+03  0.00000000000E+00 0.  1.
         14    1    3    3    0    0 -0.60954567720E+02  0.17605367142E+03 -0.13384046115E+04  0.13513094607E+04  0.00000000000E+00 0. -1.
         11    1    5    5    0    0  0.18266337368E+01  0.18331048020E+02  0.10617484170E+04  0.10619082187E+04  0.00000000000E+00 0. -1.
        -12    1    5    5    0    0 -0.28364877361E+02  0.47487527823E+01  0.13605874148E+03  0.13906508567E+03  0.00000000000E+00 0.  1.
          5    1    4    4  501    0  0.99625747195E+02 -0.18216025566E+03 -0.18046114189E+03  0.27512059970E+03  0.41800000000E+01 0.  1.
         -5    1    4    4    0  501  0.26608845331E+02 -0.32274306538E+02 -0.15645334284E+03  0.16200241479E+03  0.41800000000E+01 0.  1.
</event>
<event>
11    1  0.8864208E-009  0.3576967E+03  0.7561462E-02  0.9783545E-01
         22   -1    0    0    0    0  0.00000000000E+00  0.00000000000E+00  0.21939706161E+03  0.21939706161E+03  0.00000000000E+00 0. -1.
         22   -1    0    0    0    0 -0.00000000000E+00 -0.00000000000E+00 -0.17282719697E+04  0.17282719697E+04  0.00000000000E+00 0.  1.
         24    2    1    2    0    0  0.32611386274E+03  0.15078396594E+03 -0.13912096976E+04  0.14393855812E+04  0.85325101853E+02 0.  0.
         25    2    1    2    0    0 -0.87200191111E+02 -0.33115958847E+02 -0.16318984293E+03  0.22578452091E+03  0.12508870847E+03 0.  0.
        -24    2    1    2    0    0 -0.23891367163E+03 -0.11766800710E+03  0.45524632371E+02  0.28249892919E+03  0.82508487179E+02 0.  0.
        -11    1    3    3    0    0  0.32648731415E+03  0.13795388901E+03 -0.13640356358E+04  0.14093326284E+04  0.00000000000E+00 0.  1.
         12    1    3    3    0    0 -0.37345141086E+00  0.12830076937E+02 -0.27174061792E+02  0.30052952841E+02  0.00000000000E+00 0. -1.
         13    1    5    5    0    0 -0.14028024220E+03 -0.86408579742E+02  0.65176921955E+02  0.17718075561E+03  0.00000000000E+00 0. -1.
        -14    1    5    5    0    0 -0.98633429434E+02 -0.31259427353E+02 -0.19652289584E+02  0.10531817358E+03  0.00000000000E+00 0.  1.
          5    1    4    4  501    0 -0.61101596544E+02 -0.33090050146E+02 -0.99945407070E+01  0.70325811498E+02  0.41800000000E+01 0.  1.
         -5    1    4    4    0  501 -0.26098594567E+02 -0.25908700677E-01 -0.15319530222E+03  0.15545870941E+03  0.41800000000E+01 0.  1.
</event>
<event>
11    1  0.8864208E-009  0.1518531E+03  0.7561462E-02  0.1095000E+00
         22   -1    0    0    0    0  0.00000000000E+00  0.00000000000E+00  0.33587196041E+03  0.33587196041E+03  0.00000000000E+00 0.  1.
         22   -1    0    0    0    0 -0.00000000000E+00 -0.00000000000E+00 -0.95720220246E+03  0.95720220246E+03  0.00000000000E+00 0. -1.
         24    2    1    2    0    0  0.58574825787E+02 -0.64705792806E+02 -0.90541795743E+03  0.91321468607E+03  0.81003304770E+02 0.  0.
         25    2    1    2    0    0 -0.62753883296E+02 -0.33025960828E+01  0.12006940711E+03  0.18442276315E+03  0.12508451557E+03 0.  0.
        -24    2    1    2    0    0  0.41790575087E+01  0.68008388889E+02  0.16401830827E+03  0.19543671365E+03  0.81553038652E+02 0.  0.
        -13    1    3    3    0    0  0.17756446589E+02  0.11342632812E+02 -0.63945957574E+02  0.67327796671E+02  0.00000000000E+00 0.  1.
         14    1    3    3    0    0  0.40818379198E+02 -0.76048425619E+02 -0.84147199986E+03  0.84588688940E+03  0.00000000000E+00 0. -1.
         13    1    5    5    0    0 -0.50442765265E+01  0.13052878101E+02 -0.69442081465E+01  0.15621919830E+02  0.00000000000E+00 0. -1.
        -14    1    5    5    0    0  0.92233340352E+01  0.54955510788E+02  0.17096251642E+03  0.17981479382E+03  0.00000000000E+00 0.  1.
          5    1    4    4  501    0 -0.58946983524E+02 -0.58801709272E+02  0.81624588565E+02  0.11667233493E+03  0.41800000000E+01 0. -1.
         -5    1    4    4    0  501 -0.38068997718E+01  0.55499113189E+02  0.38444818541E+02  0.67750428215E+02  0.41800000000E+01 0. -1.
</event>
<event>
11    1  0.8864208E-009  0.1725734E+03  0.7561462E-02  0.1075814E+00
         22   -1    0    0    0    0  0.00000000000E+00  0.00000000000E+00  0.36311913400E+03  0.36311913400E+03  0.00000000000E+00 0.  1.
         22   -1    0    0    0    0 -0.00000000000E+00 -0.00000000000E+00 -0.23741989288E+03  0.23741989288E+03  0.00000000000E+00 0. -1.
         24    2    1    2    0    0  0.25199941298E+02  0.30187572585E+02 -0.88787345794E+02  0.11468289982E+03  0.61013508004E+02 0.  0.
         25    2    1    2    0    0 -0.12091237755E+03 -0.91868523289E+02 -0.35266772162E+02  0.19987729802E+03  0.12509020917E+03 0.  0.
        -24    2    1    2    0    0  0.95712436252E+02  0.61680950704E+02  0.24975335907E+03  0.28597882904E+03  0.80260451997E+02 0.  0.
        -13    1    3    3    0    0 -0.20355983920E+02  0.10606992940E+02 -0.26171901320E+02  0.34811532562E+02  0.00000000000E+00 0.  1.
         14    1    3    3    0    0  0.45555925218E+02  0.19580579644E+02 -0.62615444475E+02  0.79871367263E+02  0.00000000000E+00 0. -1.
         13    1    5    5    0    0  0.28364657007E+02 -0.70971386422E+01  0.16339497696E+02  0.33494810479E+02  0.00000000000E+00 0. -1.
        -14    1    5    5    0    0  0.67347779245E+02  0.68778089346E+02  0.23341386138E+03  0.25248401856E+03  0.00000000000E+00 0.  1.
          5    1    4    4  501    0 -0.82554144227E+02 -0.52296746245E+02  0.40690140893E+02  0.10594006024E+03  0.41800000000E+01 0. -1.
         -5    1    4    4    0  501 -0.38358233322E+02 -0.39571777044E+02 -0.75956913055E+02  0.93937237786E+02  0.41800000000E+01 0. -1.
</event>
<event>
11    1  0.8864208E-009  0.1495642E+03  0.7561462E-02  0.1097325E+00
         22   -1    0    0    0    0  0.00000000000E+00  0.00000000000E+00  0.99143664972E+03  0.99143664972E+03  0.00000000000E+00 0.  1.
         22   -1    0    0    0    0 -0.00000000000E+00 -0.00000000000E+00 -0.10372167647E+03  0.10372167647E+03  0.00000000000E+00 0. -1.
         24    2    1    2    0    0  0.53747180189E+02 -0.15181823314E+02 -0.35522791300E+02  0.10568564596E+03  0.82391382570E+02 0.  0.
         25    2    1    2    0    0 -0.10369248707E+03  0.71908059903E+02  0.24670176219E+03  0.30402485601E+03  0.12508578117E+03 0.  0.
        -24    2    1    2    0    0  0.49945306879E+02 -0.56726236589E+02  0.67653600236E+03  0.68544782422E+03  0.80158328564E+02 0.  0.
        -13    1    3    3    0    0  0.46297689684E+01 -0.34119133222E+02  0.10251858542E+02  0.35925626175E+02  0.00000000000E+00 0.  1.
         14    1    3    3    0    0  0.49117411221E+02  0.18937309908E+02 -0.45774649842E+02  0.69760019780E+02  0.00000000000E+00 0. -1.
         11    1    5    5    0    0  0.30878556858E+02 -0.26053014910E+02  0.10101405433E+03  0.10879376835E+03  0.00000000000E+00 0. -1.
        -12    1    5    5    0    0  0.19066750021E+02 -0.30673221679E+02  0.57552194803E+03  0.57665405587E+03  0.00000000000E+00 0.  1.
          5    1    4    4  501    0 -0.53805442601E+00 -0.18128848752E+02 -0.33481154061E+01  0.18911026847E+02  0.41800000000E+01 0.  1.
         -5    1    4    4    0  501 -0.10315443264E+03  0.90036908655E+02  0.25004987760E+03  0.28511382916E+03  0.41800000000E+01 0.  1.
</event>
<event>
11    1  0.8864208E-009  0.1542149E+03  0.7561462E-02  0.1092648E+00
         22   -1    0    0    0    0  0.00000000000E+00  0.00000000000E+00  0.21526370820E+04  0.21526370820E+04  0.00000000000E+00 0. -1.
         22   -1    0    0    0    0 -0.00000000000E+00 -0.00000000000E+00 -0.22800637031E+03  0.22800637031E+03  0.00000000000E+00 0.  1.
        -24    2    1    2    0    0  0.90335566533E+02 -0.32259589087E+01 -0.19429800622E+03  0.22872654104E+03  0.79957450960E+02 0.  0.
         25    2    1    2    0    0 -0.84927329434E+02  0.23830851927E+02  0.36211062849E+03  0.39313092243E+03  0.12508898480E+03 0.  0.
         24    2    1    2    0    0 -0.54082370994E+01 -0.20604893018E+02  0.17568180894E+04  0.17587859888E+04  0.80402391553E+02 0.  0.
        -13    1    5    5    0    0 -0.26714025491E+01  0.31189833763E+02  0.65134056531E+03  0.65209238160E+03  0.00000000000E+00 0.  1.
         14    1    5    5    0    0 -0.27368345504E+01 -0.51794726781E+02  0.11054775241E+04  0.11066936072E+04  0.00000000000E+00 0. -1.
         11    1    3    3    0    0  0.48903398036E+02 -0.23549100174E+02 -0.39320004286E+02  0.67023616700E+02  0.00000000000E+00 0. -1.
        -12    1    3    3    0    0  0.41432168497E+02  0.20323141266E+02 -0.15497800193E+03  0.16170292434E+03  0.00000000000E+00 0.  1.
          5    1    4    4  501    0 -0.75696426656E+02 -0.36805199668E+02  0.14737862481E+03  0.16977191518E+03  0.41800000000E+01 0.  1.
         -5    1    4    4    0  501 -0.92309027773E+01  0.60636051594E+02  0.21473200368E+03  0.22335900726E+03  0.41800000000E+01 0.  1.
</event>
<event>
11    1  0.8864208E-009  0.2941172E+03  0.7561462E-02  0.1002712E+00
         22   -1    0    0    0    0  0.00000000000E+00  0.00000000000E+00  0.13830575485E+04  0.13830575485E+04  0.00000000000E+00 0.  1.
         22   -1    0    0    0    0 -0.00000000000E+00 -0.00000000000E+00 -0.91586228157E+03  0.91586228157E+03  0.00000000000E+00 0. -1.
        -24    2    1    2    0    0 -0.19123797567E+02  0.79590363001E+01 -0.65726207005E+03  0.66249380570E+03  0.80470789571E+02 0.  0.
         25    2    1    2    0    0  0.29152983775E+02 -0.27343550884E+03 -0.14573908290E+03  0.33541674633E+03  0.12509052512E+03 0.  0.
         24    2    1    2    0    0 -0.10029186208E+02  0.26547647254E+03  0.12701964199E+04  0.13010092780E+04  0.92993841021E+02 0.  0.
        -11    1    5    5    0    0  0.32551930929E+02  0.18859878815E+03  0.79130199291E+03  0.81411791227E+03  0.00000000000E+00 0.  1.
         12    1    5    5    0    0 -0.42581117137E+02  0.76877684390E+02  0.47889442695E+03  0.48689136576E+03  0.00000000000E+00 0. -1.
         11    1    3    3    0    0 -0.14428326892E+02  0.23346591902E+02 -0.63166403399E+03  0.63225998751E+03  0.00000000000E+00 0. -1.
        -12    1    3    3    0    0 -0.46954706746E+01 -0.15387555602E+02 -0.25598036059E+02  0.30233818190E+02  0.00000000000E+00 0.  1.
          5    1    4    4  501    0  0.26494172759E+02 -0.12420153262E+03 -0.42921452026E+00  0.12706541040E+03  0.41800000000E+01 0.  1.
         -5    1    4    4    0  501  0.26588110153E+01 -0.14923397622E+03 -0.14530986838E+03  0.20835133592E+03  0.41800000000E+01 0.  1.
</event>
<event>
11    1  0.8864208E-009  0.3715970E+03  0.7561462E-02  0.9737492E-01
         22   -1    0    0    0    0  0.00000000000E+00  0.00000000000E+00  0.25606569808E+04  0.25606569808E+04  0.00000000000E+00 0.  1.
         22   -1    0    0    0    0 -0.00000000000E+00 -0.00000000000E+00 -0.24252865629E+03  0.24252865629E+03  0.00000000000E+00 0. -1.
         24    2    1    2    0    0 -0.27292560341E+03 -0.20418394479E+03  0.54529784439E+02  0.35520539172E+03  0.83772934822E+02 0.  0.
         25    2    1    2    0    0  0.26161384980E+03  0.26331665319E+03  0.33129492364E+03  0.51300996771E+03  0.12508171043E+03 0.  0.
        -24    2    1    2    0    0  0.11311753608E+02 -0.59132708402E+02  0.19323036165E+04  0.19349702777E+04  0.81780660180E+02 0.  0.
        -11    1    3    3    0    0 -0.41562859350E+02 -0.67239894723E+02  0.32438437357E+02  0.85445461775E+02  0.00000000000E+00 0.  1.
         12    1    3    3    0    0 -0.23136274406E+03 -0.13694405007E+03  0.22091347082E+02  0.26975992995E+03  0.00000000000E+00 0. -1.
         13    1    5    5    0    0  0.17730007995E+02 -0.14604886402E+02  0.12415663737E+03  0.12626371804E+03  0.00000000000E+00 0. -1.
        -14    1    5    5    0    0 -0.64182543862E+01 -0.44527822000E+02  0.18081469791E+04  0.18087065596E+04  0.00000000000E+00 0.  1.
          5    1    4    4  501    0  0.19668697898E+02 -0.61208058919E+00 -0.61039035189E+01  0.21022900795E+02  0.41800000000E+01 0.  1.
         -5    1    4    4    0  501  0.24194515190E+03  0.26392873378E+03  0.33739882716E+03  0.49198706692E+03  0.41800000000E+01 0.  1.
</event>
<event>
11    1  0.8864208E-009  0.3022633E+03  0.7561462E-02  0.9992379E-01
         22   -1    0    0    0    0  0.00000000000E+00  0.00000000000E+00  0.56815954581E+03  0.56815954581E+03  0.00000000000E+00 0.  1.
         22   -1    0    0    0    0 -0.00000000000E+00 -0.00000000000E+00 -0.80506617164E+03  0.80506617164E+03  0.00000000000E+00 0.  1.
         24    2    1    2    0    0 -0.27094482272E+03  0.13983936127E+02 -0.67060758983E+03  0.72856723747E+03  0.86539196637E+02 0.  0.
         25    2    1    2    0    0  0.31341050414E+03 -0.57796820552E+02  0.21606839356E+03  0.40486078003E+03  0.12514025709E+03 0.  0.
        -24    2    1    2    0    0 -0.42465681422E+02  0.43812884425E+02  0.21763257044E+03  0.23979769996E+03  0.80100550863E+02 0.  0.
        -11    1    3    3    0    0 -0.23626584922E+03 -0.14451914312E+02 -0.59901573148E+03  0.64408870189E+03  0.00000000000E+00 0.  1.
         12    1    3    3    0    0 -0.34678973500E+02  0.28435850439E+02 -0.71591858340E+02  0.84478535580E+02  0.00000000000E+00 0. -1.
         13    1    5    5    0    0  0.70343135286E+01  0.77325933703E+01  0.14239632537E+03  0.14277950849E+03  0.00000000000E+00 0. -1.
        -14    1    5    5    0    0 -0.49499994951E+02  0.36080291054E+02  0.75236245072E+02  0.97018191465E+02  0.00000000000E+00 0.  1.
          5    1    4    4  501    0  0.23697686551E+02  0.24107804894E+02  0.51442747896E+02  0.61697611913E+02  0.41800000000E+01 0. -1.
         -5    1    4    4    0  501  0.28971281759E+03 -0.81904625446E+02  0.16462564566E+03  0.34316316812E+03  0.41800000000E+01 0. -1.
</event>
<event>
11    1  0.1146182E-008  0.1578511E+03  0.7561462E-02  0.1089116E+00
         22   -1    0    0    0    0  0.00000000000E+00  0.00000000000E+00  0.92042719689E+03  0.92042719689E+03  0.00000000000E+00 0.  1.
         22   -1    0    0    0    0 -0.00000000000E+00 -0.00000000000E+00 -0.30716536244E+03  0.30716536244E+03  0.00000000000E+00 0.  1.
        -24    2    1    2    0    0  0.71490988210E+02  0.55400342792E+02 -0.24796319472E+03  0.27605676899E+03  0.80879134477E+02 0.  0.
         25    2    1    2    0    0  0.33578319615E+02 -0.49698077744E+02  0.81911985484E+02  0.16110556546E+03  0.12509207559E+03 0.  0.
         24    2    1    2    0    0 -0.10506930782E+03 -0.57022650479E+01  0.77931304369E+03  0.79043022488E+03  0.79868924299E+02 0.  0.
        -11    1    5    5    0    0 -0.44374084205E+02 -0.17293075577E+01  0.58813942630E+03  0.58981355921E+03  0.00000000000E+00 0.  1.
         12    1    5    5    0    0 -0.60695223619E+02 -0.39729574902E+01  0.19117361739E+03  0.20061666567E+03  0.00000000000E+00 0. -1.
         11    1    3    3    0    0  0.63528995645E+02  0.11023118056E+02 -0.83336886539E+02  0.10536830205E+03  0.00000000000E+00 0. -1.
        -12    1    3    3    0    0  0.79619925647E+01  0.44377224736E+02 -0.16462630818E+03  0.17068846694E+03  0.00000000000E+00 0.  1.
          5    1    4    4  501    0  0.32388750554E+02 -0.77654854042E+02  0.97459849823E+02  0.12882236703E+03  0.41800000000E+01 0.  1.
         -5    1    4    4    0  501  0.11895690610E+01  0.27956776297E+02 -0.15547864339E+02  0.32283198432E+02  0.41800000000E+01 0.  1.
</event>
<event>
11    1  0.8864208E-009  0.2899174E+03  0.7561462E-02  0.1004551E+00
         22   -1    0    0    0    0  0.00000000000E+00  0.00000000000E+00  0.32186067778E+03  0.32186067778E+03  0.00000000000E+00 0.  1.
         22   -1    0    0    0    0 -0.00000000000E+00 -0.00000000000E+00 -0.15080417848E+04  0.15080417848E+04  0.00000000000E+00 0.  1.
        -24    2    1    2    0    0 -0.15324669259E+03  0.21389026737E+03 -0.13051649263E+04  0.13337201817E+04  0.78233259678E+02 0.  0.
         25    2    1    2    0    0  0.25994863286E+03 -0.10322081988E+03  0.10150985569E+03  0.32276882813E+03  0.12509051214E+03 0.  0.
         24    2    1    2    0    0 -0.10670194027E+03 -0.11066944750E+03  0.17473963571E+02  0.17341345278E+03  0.78318934713E+02 0.  0.
        -11    1    5    5    0    0 -0.13236516428E+02  0.12026373274E+02 -0.17966095455E+01  0.17974059840E+02  0.00000000000E+00 0.  1.
         12    1    5    5    0    0 -0.93465423843E+02 -0.12269582077E+03  0.19270573116E+02  0.15543939294E+03  0.00000000000E+00 0. -1.
         11    1    3    3    0    0 -0.12479552217E+03  0.20661486014E+03 -0.10798038607E+04  0.11064537949E+04  0.00000000000E+00 0. -1.
        -12    1    3    3    0    0 -0.28451170417E+02  0.72754072267E+01 -0.22536106559E+03  0.22726638672E+03  0.00000000000E+00 0.  1.
          5    1    4    4  501    0  0.49403496003E+02 -0.31010988607E+02  0.80019581955E+02  0.99111012142E+02  0.41800000000E+01 0.  1.
         -5    1    4    4    0  501  0.21054513686E+03 -0.72209831268E+02  0.21490273737E+02  0.22365781598E+03  0.41800000000E+01 0.  1.
</event>
<event>
11    1  0.8864208E-009  0.1585243E+03  0.7561462E-02  0.1088473E+00
         22   -1    0    0    0    0  0.00000000000E+00  0.00000000000E+00  0.34009143294E+03  0.34009143294E+03  0.00000000000E+00 0. -1.
         22   -1    0    0    0    0 -0.00000000000E+00 -0.00000000000E+00 -0.13536807293E+04  0.13536807293E+04  0.00000000000E+00 0.  1.
        -24    2    1    2    0    0 -0.62373727747E+01 -0.53793884864E+01 -0.10275825477E+04  0.10308414013E+04  0.81487788232E+02 0.  0.
         25    2    1    2    0    0 -0.81706353154E+02 -0.37159041911E+02 -0.29270949044E+03  0.33073083733E+03  0.12508924184E+03 0.  0.
         24    2    1    2    0    0  0.87943725929E+02  0.42538430397E+02  0.30670274177E+03  0.33219992364E+03  0.82137692136E+02 0.  0.
        -13    1    5    5    0    0  0.35864290213E+00 -0.20005385602E+02  0.48500987955E+02  0.52466083429E+02  0.00000000000E+00 0.  1.
         14    1    5    5    0    0  0.87585083026E+02  0.62543815999E+02  0.25820175381E+03  0.27973384021E+03  0.00000000000E+00 0. -1.
         13    1    3    3    0    0  0.34687310598E+02 -0.17830833685E+02 -0.51848358279E+03  0.51994843376E+03  0.00000000000E+00 0. -1.
        -14    1    3    3    0    0 -0.40924683373E+02  0.12451445199E+02 -0.50909896488E+03  0.51089296750E+03  0.00000000000E+00 0.  1.
          5    1    4    4  501    0 -0.32165779103E+02  0.46335223876E+02 -0.99170349222E+02  0.11416576055E+03  0.41800000000E+01 0.  1.
         -5    1    4    4    0  501 -0.49540574051E+02 -0.83494265787E+02 -0.19353914122E+03  0.21656507678E+03  0.41800000000E+01 0.  1.
</event>
<event>
11    1  0.8864208E-009  0.1643812E+03  0.7561462E-02  0.1083028E+00
         22   -1    0    0    0    0  0.00000000000E+00  0.00000000000E+00  0.83374341198E+02  0.83374341198E+02  0.00000000000E+00 0. -1.
         22   -1    0    0    0    0 -0.00000000000E+00 -0.00000000000E+00 -0.19096971647E+04  0.19096971647E+04  0.00000000000E+00 0. -1.
        -24    2    1    2    0    0  0.10046843819E+03 -0.34581051452E+02 -0.13486925927E+04  0.13552352044E+04  0.80006209007E+02 0.  0.
         25    2    1    2    0    0 -0.12329781705E+03 -0.39457657307E+02 -0.49365795813E+03  0.52545702524E+03  0.12509055656E+03 0.  0.
         24    2    1    2    0    0  0.22829378860E+02  0.74038708760E+02  0.16027727257E+02  0.11237927631E+03  0.79807911700E+02 0.  0.
        -11    1    5    5    0    0  0.46155425002E+02  0.16469902346E+02  0.95459970078E+01  0.49927016727E+02  0.00000000000E+00 0.  1.
         12    1    5    5    0    0 -0.23326046142E+02  0.57568806414E+02  0.64817302494E+01  0.62452259587E+02  0.00000000000E+00 0. -1.
         13    1    3    3    0    0  0.54407974810E+02  0.22063631109E+00 -0.10244263965E+04  0.10258702249E+04  0.00000000000E+00 0. -1.
        -14    1    3    3    0    0  0.46060463384E+02 -0.34801687763E+02 -0.32426619616E+03  0.32936497952E+03  0.00000000000E+00 0.  1.
          5    1    4    4  501    0  0.51669782727E+01  0.32754108089E+01  0.48628578112E+01  0.88626049516E+01  0.41800000000E+01 0. -1.
         -5    1    4    4    0  501 -0.12846479533E+03 -0.42733068116E+02 -0.49852081594E+03  0.51659442029E+03  0.41800000000E+01 0. -1.
</event>
<event>
11    1  0.8864208E-009  0.1403335E+03  0.7561462E-02  0.1107187E+00
         22   -1    0    0    0    0  0.00000000000E+00  0.00000000000E+00  0.12223022833E+03  0.12223022833E+03  0.00000000000E+00 0.  1.
         22   -1    0    0    0    0 -0.00000000000E+00 -0.00000000000E+00 -0.75525455913E+03  0.75525455913E+03  0.00000000000E+00 0.  1.
         24    2    1    2    0    0  0.15676600285E+02 -0.59256589364E+02 -0.60614653791E+03  0.61432824954E+03  0.78920679098E+02 0.  0.
         25    2    1    2    0    0 -0.92043469045E+01  0.93998960108E+02 -0.64192581986E+02  0.16937702984E+03  0.12508943262E+03 0.  0.
        -24    2    1    2    0    0 -0.64722533801E+01 -0.34742370744E+02  0.37314789092E+02  0.93779508079E+02  0.78442847104E+02 0.  0.
        -11    1    3    3    0    0  0.10669770708E+02 -0.38580900364E+02 -0.57623302681E+03  0.57762170239E+03  0.00000000000E+00 0.  1.
         12    1    3    3    0    0  0.50068295762E+01 -0.20675688999E+02 -0.29913511096E+02  0.36706547156E+02  0.00000000000E+00 0. -1.
         13    1    5    5    0    0  0.63707245855E+00  0.20427021957E+02 -0.80856878896E+01  0.21978340156E+02  0.00000000000E+00 0. -1.
        -14    1    5    5    0    0 -0.71093258387E+01 -0.55169392701E+02  0.45400476982E+02  0.71801167923E+02  0.00000000000E+00 0.  1.
          5    1    4    4  501    0  0.49876819450E+02  0.47226932507E+02 -0.63897741126E+02  0.93906730288E+02  0.41800000000E+01 0. -1.
         -5    1    4    4    0  501 -0.59081166354E+02  0.46772027600E+02 -0.29484086009E+00  0.75470299554E+02  0.41800000000E+01 0. -1.
</event>
<event>
11    1  0.8864208E-009  0.1677814E+03  0.7561462E-02  0.1079979E+00
         22   -1    0    0    0    0  0.00000000000E+00  0.00000000000E+00  0.81613475470E+03  0.81613475470E+03  0.00000000000E+00 0.  1.
         22   -1    0    0    0    0 -0.00000000000E+00 -0.00000000000E+00 -0.51100111891E+03  0.51100111891E+03  0.00000000000E+00 0.  1.
        -24    2    1    2    0    0 -0.13717781412E+02 -0.58119637648E+02 -0.46474764772E+03  0.47612573660E+03  0.84494207986E+02 0.  0.
         25    2    1    2    0    0 -0.95620968042E+02  0.12908330054E+02  0.15999439370E+03  0.22487738316E+03  0.12514646189E+03 0.  0.
         24    2    1    2    0    0  0.10933874945E+03  0.45211307593E+02  0.60988688982E+03  0.62613275386E+03  0.77981937768E+02 0.  0.
        -13    1    5    5    0    0  0.35553108059E+01 -0.16716725508E+02  0.11651597911E+03  0.11776273831E+03  0.00000000000E+00 0.  1.
         14    1    5    5    0    0  0.10578343865E+03  0.61928033102E+02  0.49337091070E+03  0.50837001554E+03  0.00000000000E+00 0. -1.
         13    1    3    3    0    0 -0.12506391494E+02 -0.78437224236E+01 -0.35607265620E+03  0.35637854916E+03  0.00000000000E+00 0. -1.
        -14    1    3    3    0    0 -0.12113899173E+01 -0.50275915224E+02 -0.10867499153E+03  0.11974718744E+03  0.00000000000E+00 0.  1.
          5    1    4    4  501    0  0.24787434111E+02 -0.15282658265E+02  0.55947836640E+02  0.63210832601E+02  0.41800000000E+01 0. -1.
         -5    1    4    4    0  501 -0.12040840215E+03  0.28190988319E+02  0.10404655706E+03  0.16166655055E+03  0.41800000000E+01 0. -1.
</event>
<event>
11    1  0.8864208E-009  0.1943193E+03  0.7561462E-02  0.1058615E+00
         22   -1    0    0    0    0  0.00000000000E+00  0.00000000000E+00  0.19666578224E+04  0.19666578224E+04  0.00000000000E+00 0. -1.
         22   -1    0    0    0    0 -0.00000000000E+00 -0.00000000000E+00 -0.34196664998E+03  0.34196664998E+03  0.00000000000E+00 0. -1.
        -24    2    1    2    0    0 -0.13674917618E+03  0.63012811060E+02 -0.29191892505E+03  0.33842416021E+03  0.81506452945E+02 0.  0.
         25    2    1    2    0    0  0.56310142460E+02 -0.14627773700E+03  0.40388860176E+03  0.45093351916E+03  0.12508807930E+03 0.  0.
         24    2    1    2    0    0  0.80439033715E+02  0.83264925937E+02  0.15127214958E+04  0.15192667931E+04  0.80260692313E+02 0.  0.
        -13    1    5    5    0    0 -0.66835844687E+01  0.27371328098E+02  0.15025037139E+03  0.15286933638E+03  0.00000000000E+00 0.  1.
         14    1    5    5    0    0  0.87122618184E+02  0.55893597839E+02  0.13624711244E+04  0.13663974567E+04  0.00000000000E+00 0. -1.
         11    1    3    3    0    0 -0.13497047803E+03  0.66634961154E+02 -0.29637745564E+03  0.33241065596E+03  0.00000000000E+00 0. -1.
        -12    1    3    3    0    0 -0.17786981444E+01 -0.36221500943E+01  0.44585305861E+01  0.60135042514E+01  0.00000000000E+00 0.  1.
          5    1    4    4  501    0  0.60640602225E+02 -0.59585835714E+02  0.31628886806E+03  0.32754217273E+03  0.41800000000E+01 0.  1.
         -5    1    4    4    0  501 -0.43304597654E+01 -0.86691901283E+02  0.87599733704E+02  0.12339134643E+03  0.41800000000E+01 0.  1.
</event>
<event>
11    1  0.8864208E-009  0.1430009E+03  0.7561462E-02  0.1104253E+00
         22   -1    0    0    0    0  0.00000000000E+00  0.00000000000E+00  0.56715181023E+03  0.56715181023E+03  0.00000000000E+00 0.  1.
         22   -1    0    0    0    0 -0.00000000000E+00 -0.00000000000E+00 -0.86814456686E+03  0.86814456686E+03  0.00000000000E+00 0.  1.
        -24    2    1    2    0    0  0.39185926892E+02 -0.36360732274E+02 -0.77850273330E+03  0.78416487262E+03  0.77397687134E+02 0.  0.
         25    2    1    2    0    0  0.57580503043E+01  0.88807287309E+02 -0.88996780800E+01  0.15377913960E+03  0.12509568372E+03 0.  0.
         24    2    1    2    0    0 -0.44943977197E+02 -0.52446555034E+02  0.48640965475E+03  0.49735236488E+03  0.77423642349E+02 0.  0.
        -13    1    5    5    0    0 -0.55701813979E+02 -0.64727480769E+02  0.43848736961E+03  0.44672532071E+03  0.00000000000E+00 0.  1.
         14    1    5    5    0    0  0.10757836782E+02  0.12280925734E+02  0.47922285132E+02  0.50627044171E+02  0.00000000000E+00 0. -1.
         11    1    3    3    0    0 -0.69019799495E+01 -0.45137561809E+02 -0.31474118677E+03  0.31803624237E+03  0.00000000000E+00 0. -1.
        -12    1    3    3    0    0  0.46087906842E+02  0.87768295349E+01 -0.46376154653E+03  0.46612863025E+03  0.00000000000E+00 0.  1.
          5    1    4    4  501    0 -0.30419612458E+02  0.72723241888E+02  0.41794098673E+02  0.89321004342E+02  0.41800000000E+01 0.  1.
         -5    1    4    4    0  501  0.36177662762E+02  0.16084045421E+02 -0.50693776753E+02  0.64458135263E+02  0.41800000000E+01 0.  1.
</event>
<event>
11    1  0.8864208E-009  0.1712892E+03  0.7561462E-02  0.1076915E+00
         22   -1    0    0    0    0  0.00000000000E+00  0.00000000000E+00  0.36875221745E+03  0.36875221745E+03  0.00000000000E+00 0. -1.
         22   -1    0    0    0    0 -0.00000000000E+00 -0.00000000000E+00 -0.29601041647E+03  0.29601041647E+03  0.00000000000E+00 0.  1.
         24    2    1    2    0    0  0.57536671757E+02 -0.19995368044E+02 -0.19113990886E+03  0.21565510989E+03  0.79135190159E+02 0.  0.
         25    2    1    2    0    0 -0.12104064729E+03 -0.73387893193E+02  0.50003606632E+02  0.19540748995E+03  0.12508838991E+03 0.  0.
        -24    2    1    2    0    0  0.63503975534E+02  0.93383261238E+02  0.21387810321E+03  0.25370003407E+03  0.76594228691E+02 0.  0.
        -13    1    3    3    0    0  0.31498188513E+02 -0.19441732954E+00 -0.17739980972E+03  0.18017454361E+03  0.00000000000E+00 0.  1.
         14    1    3    3    0    0  0.26038483244E+02 -0.19800950715E+02 -0.13740099143E+02  0.35480566277E+02  0.00000000000E+00 0. -1.
         13    1    5    5    0    0  0.58840504780E+02  0.26210325837E+02  0.71711080849E+02  0.96393284516E+02  0.00000000000E+00 0. -1.
        -14    1    5    5    0    0  0.46634707544E+01  0.67172935401E+02  0.14216702236E+03  0.15730674956E+03  0.00000000000E+00 0.  1.
          5    1    4    4  501    0 -0.57925499070E+02  0.23230014424E+02 -0.12957269257E+02  0.63877697510E+02  0.41800000000E+01 0.  1.
         -5    1    4    4    0  501 -0.63115148221E+02 -0.96617907617E+02  0.62960875889E+02  0.13152979244E+03  0.41800000000E+01 0.  1.
</event>
<event>
11    1  0.8864208E-009  0.1468712E+03  0.7561462E-02  0.1100119E+00
         22   -1    0    0    0    0  0.00000000000E+00  0.00000000000E+00  0.14103825463E+04  0.14103825463E+04  0.00000000000E+00 0.  1.
         22   -1    0    0    0    0 -0.00000000000E+00 -0.00000000000E+00 -0.11923727452E+03  0.11923727452E+03  0.00000000000E+00 0. -1.
        -24    2    1    2    0    0 -0.38636989464E+02 -0.47827001137E+02 -0.59619288537E+02  0.11930643409E+03  0.83062185489E+02 0.  0.
         25    2    1    2    0    0  0.54957053624E+01  0.11457370502E+03  0.23883696063E+03  0.29298506659E+03  0.12505926125E+03 0.  0.
         24    2    1    2    0    0  0.33141284102E+02 -0.66746703888E+02  0.11119275997E+04  0.11173283201E+04  0.80536456415E+02 0.  0.
        -13    1    5    5    0    0  0.88608581155E+01 -0.77601252868E+02  0.95255109436E+03  0.95574790433E+03  0.00000000000E+00 0.  1.
         14    1    5    5    0    0  0.24280425986E+02  0.10854548980E+02  0.15937650533E+03  0.16158041580E+03  0.00000000000E+00 0. -1.
         13    1    3    3    0    0 -0.15135139236E+02 -0.11201128964E+01 -0.64995948634E+02  0.66744291377E+02  0.00000000000E+00 0. -1.
        -14    1    3    3    0    0 -0.23501850228E+02 -0.46706888240E+02  0.53766600972E+01  0.52562142717E+02  0.00000000000E+00 0.  1.
          5    1    4    4  501    0 -0.17039201246E+02  0.12536519749E+03  0.13082588036E+03  0.18204299078E+03  0.41800000000E+01 0. -1.
         -5    1    4    4    0  501  0.22534906608E+02 -0.10791492461E+02  0.10801108027E+03  0.11094207582E+03  0.41800000000E+01 0. -1.
</event>
<event>
11    1  0.8864208E-009  0.1821962E+03  0.7561462E-02  0.1067880E+00
         22   -1    0    0    0    0  0.00000000000E+00  0.00000000000E+00  0.15982803126E+03  0.15982803126E+03  0.00000000000E+00 0.  1.
         22   -1    0    0    0    0 -0.00000000000E+00 -0.00000000000E+00 -0.20488562251E+04  0.20488562251E+04  0.00000000000E+00 0. -1.
         24    2    1    2    0    0 -0.11973751825E+03  0.99965801489E+02 -0.15251980948E+04  0.15352332294E+04  0.79884952382E+02 0.  0.
         25    2    1    2    0    0  0.96632312421E+02  0.12652404368E+02 -0.47041939031E+03  0.49642934335E+03  0.12509917275E+03 0.  0.
        -24    2    1    2    0    0  0.23105205832E+02 -0.11261820586E+03  0.10658929127E+03  0.17702168359E+03  0.82211243876E+02 0.  0.
        -11    1    3    3    0    0 -0.27238568623E+02  0.60899148056E+02 -0.84946254838E+03  0.85207820471E+03  0.00000000000E+00 0.  1.
         12    1    3    3    0    0 -0.92498949630E+02  0.39066653433E+02 -0.67573554644E+03  0.68315502473E+03  0.00000000000E+00 0. -1.
         13    1    5    5    0    0  0.95792712127E+01 -0.11438173884E+03  0.62133234755E+02  0.13052005010E+03  0.00000000000E+00 0. -1.
        -14    1    5    5    0    0  0.13525934620E+02  0.17635329850E+01  0.44456056515E+02  0.46501633486E+02  0.00000000000E+00 0.  1.
          5    1    4    4  501    0  0.71011687658E+02 -0.51546102111E+02 -0.22888624792E+03  0.24516534688E+03  0.41800000000E+01 0.  1.
         -5    1    4    4    0  501  0.25620624763E+02  0.64198506479E+02 -0.24153314239E+03  0.25126399647E+03  0.41800000000E+01 0.  1.
</event>
<event>
11    1  0.8864208E-009  0.1907257E+03  0.7561462E-02  0.1061283E+00
         22   -1    0    0    0    0  0.00000000000E+00  0.00000000000E+00  0.25269316594E+03  0.25269316594E+03  0.00000000000E+00 0. -1.
         22   -1    0    0    0    0 -0.00000000000E+00 -0.00000000000E+00 -0.19162712331E+04  0.19162712331E+04  0.00000000000E+00 0.  1.
         24    2    1    2    0    0  0.86925910216E+02  0.11175463884E+03 -0.15349350451E+04  0.15435840527E+04  0.81122881320E+02 0.  0.
         25    2    1    2    0    0 -0.11325684696E+03 -0.11373613298E+03 -0.34033021703E+03  0.39653091584E+03  0.12509631996E+03 0.  0.
        -24    2    1    2    0    0  0.26330936743E+02  0.19814941400E+01  0.21168719497E+03  0.22884943050E+03  0.82845330433E+02 0.  0.
        -11    1    3    3    0    0  0.91431981422E+02  0.10173509537E+03 -0.15117748606E+04  0.15179502844E+04  0.00000000000E+00 0.  1.
         12    1    3    3    0    0 -0.45060712059E+01  0.10019543475E+02 -0.23160184494E+02  0.25633768256E+02  0.00000000000E+00 0. -1.
         13    1    5    5    0    0  0.25322874171E+02  0.23126911347E+02  0.20314844887E+03  0.20602280035E+03  0.00000000000E+00 0. -1.
        -14    1    5    5    0    0  0.10080625719E+01 -0.21145417207E+02  0.85387461047E+01  0.22826630151E+02  0.00000000000E+00 0.  1.
          5    1    4    4  501    0 -0.18094471831E+02  0.10280948051E+02  0.82587958088E+00  0.21242934844E+02  0.41800000000E+01 0. -1.
         -5    1    4    4    0  501 -0.95162375127E+02 -0.12401708103E+03 -0.34115609661E+03  0.37528798100E+03  0.41800000000E+01 0. -1.
</event>
<event>
11    1  0.8864208E-009  0.1404097E+03  0.7561462E-02  0.1107102E+00
         22   -1    0    0    0    0  0.00000000000E+00  0.00000000000E+00  0.12670736484E+04  0.12670736484E+04  0.00000000000E+00 0. -1.
         22   -1    0    0    0    0 -0.00000000000E+00 -0.00000000000E+00 -0.84298719389E+02  0.84298719389E+02  0.00000000000E+00 0. -1.
        -24    2    1    2    0    0  0.17538936973E+02  0.17369343862E+02 -0.37504835660E+02  0.91003963081E+02  0.79156807554E+02 0.  0.
         25    2    1    2    0    0 -0.12716621459E+02 -0.78743287192E+02  0.30035351498E+03  0.33499452136E+03  0.12508747995E+03 0.  0.
         24    2    1    2    0    0 -0.48223155139E+01  0.61373943329E+02  0.91992624974E+03  0.92537388340E+03  0.79135980862E+02 0.  0.
        -13    1    5    5    0    0  0.26179271487E+02  0.20704083945E+02  0.14628706064E+03  0.15004638436E+03  0.00000000000E+00 0.  1.
         14    1    5    5    0    0 -0.31001587001E+02  0.40669859384E+02  0.77363918910E+03  0.77532749904E+03  0.00000000000E+00 0. -1.
         13    1    3    3    0    0  0.34586552564E+02  0.97761787236E+01 -0.54816391426E+02  0.65548760917E+02  0.00000000000E+00 0. -1.
        -14    1    3    3    0    0 -0.17047615591E+02  0.75931651384E+01  0.17311555766E+02  0.25455202164E+02  0.00000000000E+00 0.  1.
          5    1    4    4  501    0 -0.42304830180E+02  0.18561485568E+02  0.86541483549E+02  0.98189246753E+02  0.41800000000E+01 0.  1.
         -5    1    4    4    0  501  0.29588208721E+02 -0.97304772760E+02  0.21381203143E+03  0.23680527460E+03  0.41800000000E+01 0.  1.
</event>
<event>
11    1  0.8864208E-009  0.1407305E+03  0.7561462E-02  0.1106745E+00
         22   -1    0    0    0    0  0.00000000000E+00  0.00000000000E+00  0.31641934825E+04  0.31641934825E+04  0.00000000000E+00 0. -1.
         22   -1    0    0    0    0 -0.00000000000E+00 -0.00000000000E+00 -0.64499018249E+03  0.64499018249E+03  0.00000000000E+00 0.  1.
         24    2    1    2    0    0  0.60793015138E+02 -0.16984560970E+02 -0.58217807936E+03  0.59101316700E+03  0.79881045783E+02 0.  0.
         25    2    1    2    0    0 -0.10245678536E+03  0.17815360086E+01  0.55643661026E+02  0.17100919352E+03  0.12508941011E+03 0.  0.
        -24    2    1    2    0    0  0.41663770217E+02  0.15203024962E+02  0.30457377183E+04  0.30471613044E+04  0.81894839527E+02 0.  0.
        -11    1    3    3    0    0  0.12086317022E+02  0.10947986817E+02 -0.40106501853E+03  0.40139642071E+03  0.00000000000E+00 0.  1.
         12    1    3    3    0    0  0.48706698116E+02 -0.27932547787E+02 -0.18111306083E+03  0.18961674628E+03  0.00000000000E+00 0. -1.
         13    1    5    5    0    0  0.44690474784E+02  0.16295588676E+02  0.30413402638E+04  0.30417122456E+04  0.00000000000E+00 0. -1.
        -14    1    5    5    0    0 -0.30267045668E+01 -0.10925637147E+01  0.43974544834E+01  0.54490588122E+01  0.00000000000E+00 0.  1.
          5    1    4    4  501    0 -0.48957796318E+02  0.15207922208E+01 -0.38637413245E+02  0.62526000444E+02  0.41800000000E+01 0.  1.
         -5    1    4    4    0  501 -0.53498989037E+02  0.26074378782E+00  0.94281074271E+02  0.10848319308E+03  0.41800000000E+01 0.  1.
</event>
<event>
11    1  0.8864208E-009  0.1963439E+03  0.7561462E-02  0.1057140E+00
         22   -1    0    0    0    0  0.00000000000E+00  0.00000000000E+00  0.23313637802E+04  0.23313637802E+04  0.00000000000E+00 0.  1.
         22   -1    0    0    0    0 -0.00000000000E+00 -0.00000000000E+00 -0.40783374358E+03  0.40783374358E+03  0.00000000000E+00 0. -1.
         24    2    1    2    0    0  0.12240874611E+03  0.88050451726E+02 -0.36129172513E+03  0.40020189095E+03  0.83024452434E+02 0.  0.
         25    2    1    2    0    0 -0.16306928868E+03 -0.52850001950E+02  0.41139705494E+03  0.46290509553E+03  0.12509546369E+03 0.  0.
        -24    2    1    2    0    0  0.40660542571E+02 -0.35200449777E+02  0.18734247068E+04  0.18760905373E+04  0.84280606556E+02 0.  0.
        -11    1    3    3    0    0  0.90426044026E+02  0.51745103765E+02 -0.14489924394E+03  0.17846628840E+03  0.00000000000E+00 0.  1.
         12    1    3    3    0    0  0.31982702088E+02  0.36305347961E+02 -0.21639248119E+03  0.22173560255E+03  0.00000000000E+00 0. -1.
         11    1    5    5    0    0  0.48729596515E+01  0.14008859946E+01  0.55608818314E+01  0.75253985993E+01  0.00000000000E+00 0. -1.
        -12    1    5    5    0    0  0.35787582919E+02 -0.36601335771E+02  0.18678638250E+04  0.18685651387E+04  0.00000000000E+00 0.  1.
          5    1    4    4  501    0 -0.16910363129E+03 -0.27906032604E+02  0.39864004669E+03  0.43394255840E+03  0.41800000000E+01 0.  1.
         -5    1    4    4    0  501  0.60343426003E+01 -0.24943969346E+02  0.12757008255E+02  0.28962537129E+02  0.41800000000E+01 0.  1.
</event>
<event>
11    1  0.8864208E-009  0.1632073E+03  0.7561462E-02  0.1084099E+00
         22   -1    0    0    0    0  0.00000000000E+00  0.00000000000E+00  0.48582280142E+03  0.48582280142E+03  0.00000000000E+00 0.  1.
         22   -1    0    0    0    0 -0.00000000000E+00 -0.00000000000E+00 -0.54591347741E+03  0.54591347741E+03  0.00000000000E+00 0.  1.
        -24    2    1    2    0    0 -0.50985954832E+02 -0.88720911112E+02 -0.42020769478E+03  0.43976410365E+03  0.79668013952E+02 0.  0.
         25    2    1    2    0    0  0.60742831989E+02  0.10620545173E+03 -0.43540379883E+02  0.18031043218E+03  0.12508716025E+03 0.  0.
         24    2    1    2    0    0 -0.97568771568E+01 -0.17484540615E+02  0.40365739867E+03  0.41166174301E+03  0.78263588847E+02 0.  0.
        -11    1    5    5    0    0 -0.37356590494E+02 -0.63675785315E+01  0.33078872864E+03  0.33295231476E+03  0.00000000000E+00 0.  1.
         12    1    5    5    0    0  0.27599713337E+02 -0.11116962083E+02  0.72868670031E+02  0.78709428243E+02  0.00000000000E+00 0. -1.
         13    1    3    3    0    0  0.97432750460E+01  0.28546646987E+01 -0.73503192008E+01  0.12534261507E+02  0.00000000000E+00 0. -1.
        -14    1    3    3    0    0 -0.60729229878E+02 -0.91575575811E+02 -0.41285737558E+03  0.42722984214E+03  0.00000000000E+00 0.  1.
          5    1    4    4  501    0 -0.18616973612E+02  0.33729969261E+02  0.30852297114E+02  0.49534222211E+02  0.41800000000E+01 0. -1.
         -5    1    4    4    0  501  0.79359805600E+02  0.72475482466E+02 -0.74392676997E+02  0.13077620997E+03  0.41800000000E+01 0. -1.
</event>
<event>
11    1  0.8864208E-009  0.2684120E+03  0.7561462E-02  0.1014524E+00
         22   -1    0    0    0    0  0.00000000000E+00  0.00000000000E+00  0.13847573172E+04  0.13847573172E+04  0.00000000000E+00 0. -1.
         22   -1    0    0    0    0 -0.00000000000E+00 -0.00000000000E+00 -0.20016059061E+03  0.20016059061E+03  0.00000000000E+00 0. -1.
        -24    2    1    2    0    0 -0.58668420235E+01  0.23436863376E+02 -0.55332966139E+02  0.99901755571E+02  0.79592193236E+02 0.  0.
         25    2    1    2    0    0 -0.95805997219E+02  0.19397985349E+03  0.33445718876E+02  0.25215409967E+03  0.12512434297E+03 0.  0.
         24    2    1    2    0    0  0.10167283924E+03 -0.21741671687E+03  0.12064839739E+04  0.12328620526E+04  0.82084508236E+02 0.  0.
        -13    1    5    5    0    0  0.46473555052E+02 -0.27642413685E+02  0.20153508441E+03  0.20866308873E+03  0.00000000000E+00 0.  1.
         14    1    5    5    0    0  0.55199284190E+02 -0.18977430319E+03  0.10049488895E+04  0.10241989639E+04  0.00000000000E+00 0. -1.
         13    1    3    3    0    0 -0.14537962085E+02 -0.16391263415E+02 -0.54930457511E+02  0.59138659270E+02  0.00000000000E+00 0. -1.
        -14    1    3    3    0    0  0.86711200613E+01  0.39828126791E+02 -0.40250862724E+00  0.40763096300E+02  0.00000000000E+00 0.  1.
          5    1    4    4  501    0 -0.79135812715E+02  0.35324092365E+02 -0.84195091553E+01  0.87170114661E+02  0.41800000000E+01 0. -1.
         -5    1    4    4    0  501 -0.16670184503E+02  0.15865576113E+03  0.41865228032E+02  0.16498398501E+03  0.41800000000E+01 0. -1.
</event>
<event>
11    1  0.8864208E-009  0.1409035E+03  0.7561462E-02  0.1106554E+00
         22   -1    0    0    0    0  0.00000000000E+00  0.00000000000E+00  0.82279383010E+03  0.82279383010E+03  0.00000000000E+00 0.  1.
         22   -1    0    0    0    0 -0.00000000000E+00 -0.00000000000E+00 -0.89309842637E+03  0.89309842637E+03  0.00000000000E+00 0. -1.
         24    2    1    2    0    0  0.59165348706E+02  0.21878805645E+02 -0.76721013240E+03  0.77383726875E+03  0.78952584705E+02 0.  0.
         25    2    1    2    0    0 -0.82315284730E+02 -0.41892144912E+02 -0.69891475248E+02  0.17047906836E+03  0.12509011364E+03 0.  0.
        -24    2    1    2    0    0  0.23149936024E+02  0.20013339267E+02  0.76679701137E+03  0.77157591937E+03  0.80095501807E+02 0.  0.
        -13    1    3    3    0    0  0.38303758985E+02 -0.27006265543E+02 -0.41527858946E+03  0.41791485161E+03  0.00000000000E+00 0.  1.
         14    1    3    3    0    0  0.20861589721E+02  0.48885071188E+02 -0.35193154294E+03  0.35592241714E+03  0.00000000000E+00 0. -1.
         13    1    5    5    0    0 -0.20294784152E+02 -0.18616233250E+02  0.26098458808E+03  0.26243360612E+03  0.00000000000E+00 0. -1.
        -14    1    5    5    0    0  0.43444720177E+02  0.38629572517E+02  0.50581242329E+03  0.50914231325E+03  0.00000000000E+00 0.  1.
          5    1    4    4  501    0 -0.44726808435E+02 -0.82241108916E+02 -0.66815570638E+02  0.11509074797E+03  0.41800000000E+01 0.  1.
         -5    1    4    4    0  501 -0.37588476296E+02  0.40348964004E+02 -0.30759046101E+01  0.55388320389E+02  0.41800000000E+01 0.  1.
</event>
<event>
11    1  0.8864208E-009  0.1858073E+03  0.7561462E-02  0.1065040E+00
         22   -1    0    0    0    0  0.00000000000E+00  0.00000000000E+00  0.46403811115E+03  0.46403811115E+03  0.00000000000E+00 0.  1.
         22   -1    0    0    0    0 -0.00000000000E+00 -0.00000000000E+00 -0.11351743300E+04  0.11351743300E+04  0.00000000000E+00 0. -1.
        -24    2    1    2    0    0  0.21109154777E+02  0.37715935250E+02 -0.97537435826E+03  0.97952958949E+03  0.79088493220E+02 0.  0.
         25    2    1    2    0    0 -0.12948404571E+03 -0.11552874387E+03 -0.61040082942E+02  0.22245501191E+03  0.12508929548E+03 0.  0.
         24    2    1    2    0    0  0.10837489093E+03  0.77812808619E+02  0.36527822235E+03  0.39722783975E+03  0.81005103441E+02 0.  0.
        -11    1    5    5    0    0  0.54612294720E+02  0.66120233897E+01  0.21972473470E+03  0.22650646928E+03  0.00000000000E+00 0.  1.
         12    1    5    5    0    0  0.53762596213E+02  0.71200785230E+02  0.14555348765E+03  0.17072137047E+03  0.00000000000E+00 0. -1.
         13    1    3    3    0    0  0.35242913454E+01  0.28183467679E+02 -0.92343605435E+03  0.92387275907E+03  0.00000000000E+00 0. -1.
        -14    1    3    3    0    0  0.17584863432E+02  0.95324675711E+01 -0.51938303909E+02  0.55656830424E+02  0.00000000000E+00 0.  1.
          5    1    4    4  501    0 -0.14393142152E+03 -0.61679434262E+02 -0.55848427564E+02  0.16630431736E+03  0.41800000000E+01 0.  1.
         -5    1    4    4    0  501  0.14447375806E+02 -0.53849309608E+02 -0.51916553777E+01  0.56150694550E+02  0.41800000000E+01 0.  1.
</event>
<event>
11    1  0.8864208E-009  0.1580403E+03  0.7561462E-02  0.1088935E+00
         22   -1    0    0    0    0  0.00000000000E+00  0.00000000000E+00  0.22329814026E+03  0.22329814026E+03  0.00000000000E+00 0.  1.
         22   -1    0    0    0    0 -0.00000000000E+00 -0.00000000000E+00 -0.52645027510E+03  0.52645027510E+03  0.00000000000E+00 0.  1.
         24    2    1    2    0    0  0.13156133881E+02 -0.18335960979E+02 -0.37021720084E+03  0.37936376480E+03  0.79666799389E+02 0.  0.
         25    2    1    2    0    0 -0.13176147676E+02 -0.81047934298E+02 -0.84753057789E+02  0.17196760295E+03  0.12508955647E+03 0.  0.
        -24    2    1    2    0    0  0.20013794989E-01  0.99383895277E+02  0.15181812378E+03  0.19841704761E+03  0.80270935150E+02 0.  0.
        -11    1    3    3    0    0 -0.32886620275E+02 -0.53025897864E+01 -0.19020697192E+03  0.19310188870E+03  0.00000000000E+00 0.  1.
         12    1    3    3    0    0  0.46042754156E+02 -0.13033371192E+02 -0.18001022891E+03  0.18626187610E+03  0.00000000000E+00 0. -1.
         13    1    5    5    0    0  0.15647294004E+02  0.27300631006E+02  0.21242608417E+01  0.31538464565E+02  0.00000000000E+00 0. -1.
        -14    1    5    5    0    0 -0.15627280209E+02  0.72083264270E+02  0.14969386294E+03  0.16687858304E+03  0.00000000000E+00 0.  1.
          5    1    4    4  501    0  0.25523439285E+02  0.15737898771E+02 -0.56158954858E+02  0.63799906124E+02  0.41800000000E+01 0.  1.
         -5    1    4    4    0  501 -0.38699586962E+02 -0.96785833069E+02 -0.28594102931E+02  0.10816769682E+03  0.41800000000E+01 0.  1.
</event>
<event>
11    1  0.8864208E-009  0.1705132E+03  0.7561462E-02  0.1077586E+00
         22   -1    0    0    0    0  0.00000000000E+00  0.00000000000E+00  0.55344596268E+03  0.55344596268E+03  0.00000000000E+00 0.  1.
         22   -1    0    0    0    0 -0.00000000000E+00 -0.00000000000E+00 -0.36979024464E+03  0.36979024464E+03  0.00000000000E+00 0.  1.
        -24    2    1    2    0    0 -0.18635884657E+02 -0.10883884337E+03 -0.27444879253E+03  0.30716310983E+03  0.82667081091E+02 0.  0.
         25    2    1    2    0    0 -0.22861247536E+02  0.17894755119E+03  0.10302359756E+03  0.24249628481E+03  0.12508286765E+03 0.  0.
         24    2    1    2    0    0  0.41497132193E+02 -0.70108707813E+02  0.35508091301E+03  0.37357681269E+03  0.82703913475E+02 0.  0.
        -13    1    5    5    0    0  0.53118595443E+02 -0.36242345831E+02  0.30680936966E+03  0.31347580788E+03  0.00000000000E+00 0.  1.
         14    1    5    5    0    0 -0.11621463250E+02 -0.33866361982E+02  0.48271543344E+02  0.60101004807E+02  0.00000000000E+00 0. -1.
         11    1    3    3    0    0 -0.32623655769E+02 -0.40225029290E+02 -0.49785758581E+02  0.71839944701E+02  0.00000000000E+00 0. -1.
        -12    1    3    3    0    0  0.13987771113E+02 -0.68613814082E+02 -0.22466303394E+03  0.23532316513E+03  0.00000000000E+00 0.  1.
          5    1    4    4  501    0 -0.72022820580E+02  0.13484397030E+03  0.78682236970E+02  0.17198415574E+03  0.41800000000E+01 0. -1.
         -5    1    4    4    0  501  0.49161573044E+02  0.44103580882E+02  0.24341360592E+02  0.70512129072E+02  0.41800000000E+01 0. -1.
</event>
<event>
11    1  0.8864208E-009  0.1772405E+03  0.7561462E-02  0.1071897E+00
         22   -1    0    0    0    0  0.00000000000E+00  0.00000000000E+00  0.12925316297E+04  0.12925316297E+04  0.00000000000E+00 0.  1.
         22   -1    0    0    0    0 -0.00000000000E+00 -0.00000000000E+00 -0.47604001827E+03  0.47604001827E+03  0.00000000000E+00 0.  1.
         24    2    1    2    0    0 -0.11718367532E+03 -0.34419563315E+02 -0.39805068571E+03  0.42410957884E+03  0.80671347873E+02 0.  0.
         25    2    1    2    0    0  0.16100443969E+03  0.69973756727E+02  0.12252912282E+03  0.24795185432E+03  0.12509188580E+03 0.  0.
        -24    2    1    2    0    0 -0.43820764374E+02 -0.35554193412E+02  0.10920131743E+04  0.10965102148E+04  0.81593616310E+02 0.  0.
        -11    1    3    3    0    0 -0.76100254852E+02 -0.18271889444E+02 -0.35089370318E+03  0.35951564871E+03  0.00000000000E+00 0.  1.
         12    1    3    3    0    0 -0.41083420465E+02 -0.16147673871E+02 -0.47156982529E+02  0.64593930131E+02  0.00000000000E+00 0. -1.
         13    1    5    5    0    0  0.10682840812E+02  0.16659723148E+02  0.37824410099E+03  0.37876149408E+03  0.00000000000E+00 0. -1.
        -14    1    5    5    0    0 -0.54503605185E+02 -0.52213916560E+02  0.71376907335E+03  0.71774872074E+03  0.00000000000E+00 0.  1.
          5    1    4    4  501    0  0.88628216912E+02  0.22172652699E+02  0.13201385569E+03  0.16059800078E+03  0.41800000000E+01 0. -1.
         -5    1    4    4    0  501  0.72376222779E+02  0.47801104028E+02 -0.94847328758E+01  0.87353853537E+02  0.41800000000E+01 0. -1.
</event>
<event>
11    1  0.8864208E-009  0.1342979E+03  0.7561462E-02  0.1114098E+00
         22   -1    0    0    0    0  0.00000000000E+00  0.00000000000E+00  0.14353177029E+03  0.14353177029E+03  0.00000000000E+00 0. -1.
         22   -1    0    0    0    0 -0.00000000000E+00 -0.00000000000E+00 -0.29588887356E+03  0.29588887356E+03  0.00000000000E+00 0.  1.
        -24    2    1    2    0    0  0.11669180898E+02  0.51236612752E+01 -0.17380319015E+03  0.19214601026E+03  0.80932803388E+02 0.  0.
         25    2    1    2    0    0 -0.31206883327E+02  0.39542194460E+02 -0.32239335596E+02  0.13866074132E+03  0.12509984698E+03 0.  0.
         24    2    1    2    0    0  0.19537702429E+02 -0.44665855735E+02  0.53685422474E+02  0.10861389228E+03  0.80858472190E+02 0.  0.
        -13    1    5    5    0    0  0.24994985612E+02 -0.39469684790E+02 -0.71947748839E+01  0.47269124265E+02  0.00000000000E+00 0.  1.
         14    1    5    5    0    0 -0.54572831831E+01 -0.51961709451E+01  0.60880197358E+02  0.61344768013E+02  0.00000000000E+00 0. -1.
         13    1    3    3    0    0  0.53950675283E+01 -0.94069969121E+01  0.54905638075E+01  0.12155025112E+02  0.00000000000E+00 0. -1.
        -14    1    3    3    0    0  0.62741133702E+01  0.14530658187E+02 -0.17929375396E+03  0.17999098515E+03  0.00000000000E+00 0.  1.
          5    1    4    4  501    0  0.40949899160E+02 -0.11654983455E+02 -0.25562430272E+02  0.49836162793E+02  0.41800000000E+01 0.  1.
         -5    1    4    4    0  501 -0.72156782487E+02  0.51197177915E+02 -0.66769053238E+01  0.88824578524E+02  0.41800000000E+01 0.  1.
</event>
<event>
11    1  0.8864208E-009  0.2348416E+03  0.7561462E-02  0.1032299E+00
         22   -1    0    0    0    0  0.00000000000E+00  0.00000000000E+00  0.24180938607E+03  0.24180938607E+03  0.00000000000E+00 0. -1.
         22   -1    0    0    0    0 -0.00000000000E+00 -0.00000000000E+00 -0.68573016943E+03  0.68573016943E+03  0.00000000000E+00 0.  1.
        -24    2    1    2    0    0 -0.75531738667E+01  0.43019923642E+02 -0.41009954919E+03  0.42077372287E+03  0.83433334760E+02 0.  0.
         25    2    1    2    0    0 -0.10505378127E+03  0.13300520562E+03 -0.14650578222E+03  0.25658785246E+03  0.12508677039E+03 0.  0.
         24    2    1    2    0    0  0.11260695514E+03 -0.17602512926E+03  0.11268454804E+03  0.25017798017E+03  0.78905271803E+02 0.  0.
        -11    1    5    5    0    0  0.20291057060E+02 -0.50534447737E+02 -0.53581666089E+01  0.54718985317E+02  0.00000000000E+00 0.  1.
         12    1    5    5    0    0  0.92315898078E+02 -0.12549068152E+03  0.11804271465E+03  0.19545899485E+03  0.00000000000E+00 0. -1.
         11    1    3    3    0    0 -0.35295090215E+02  0.52698743390E+02 -0.24480458065E+03  0.25288768981E+03  0.00000000000E+00 0. -1.
        -12    1    3    3    0    0  0.27741916349E+02 -0.96788197484E+01 -0.16529496854E+03  0.16788603306E+03  0.00000000000E+00 0.  1.
          5    1    4    4  501    0 -0.10026221267E+03  0.63473403100E+02 -0.14410858716E+03  0.18672477469E+03  0.41800000000E+01 0. -1.
         -5    1    4    4    0  501 -0.47915685971E+01  0.69531802520E+02 -0.23971950604E+01  0.69863077770E+02  0.41800000000E+01 0. -1.
</event>
<event>
11    1  0.8864208E-009  0.1332016E+03  0.7561462E-02  0.1115397E+00
         22   -1    0    0    0    0  0.00000000000E+00  0.00000000000E+00  0.15712625990E+04  0.15712625990E+04  0.00000000000E+00 0.  1.
         22   -1    0    0    0    0 -0.00000000000E+00 -0.00000000000E+00 -0.16845903074E+03  0.16845903074E+03  0.00000000000E+00 0.  1.
        -24    2    1    2    0    0 -0.11671520732E+02  0.46091322671E+01 -0.85385774786E+02  0.11793257626E+03  0.80373462728E+02 0.  0.
         25    2    1    2    0    0  0.54948643431E+02 -0.18674148122E+02  0.73508341570E+01  0.13809270672E+03  0.12508990232E+03 0.  0.
         24    2    1    2    0    0 -0.43277122699E+02  0.14065015855E+02  0.14808385088E+04  0.14836963467E+04  0.80008911731E+02 0.  0.
        -11    1    5    5    0    0 -0.45813791226E+02 -0.54715058982E+01  0.13891145261E+04  0.13898805731E+04  0.00000000000E+00 0.  1.
         12    1    5    5    0    0  0.25366685265E+01  0.19536521753E+02  0.91723982755E+02  0.93815773630E+02  0.00000000000E+00 0. -1.
         13    1    3    3    0    0  0.56842668908E+01 -0.10959922952E+02  0.12344824302E+02  0.17459252225E+02  0.00000000000E+00 0. -1.
        -14    1    3    3    0    0 -0.17355787622E+02  0.15569055219E+02 -0.97730599089E+02  0.10047332403E+03  0.00000000000E+00 0.  1.
          5    1    4    4  501    0  0.66328438515E+02 -0.19550602541E+02  0.55291087527E+02  0.88635571727E+02  0.41800000000E+01 0.  1.
         -5    1    4    4    0  501 -0.11379795084E+02  0.87645441932E+00 -0.47940253370E+02  0.49457134992E+02  0.41800000000E+01 0.  1.
</event>
<event>
11    1  0.8864208E-009  0.1659352E+03  0.7561462E-02  0.1081624E+00
         22   -1    0    0    0    0  0.00000000000E+00  0.00000000000E+00  0.51523787591E+03  0.51523787591E+03  0.00000000000E+00 0. -1.
         22   -1    0    0    0    0 -0.00000000000E+00 -0.00000000000E+00 -0.18504366257E+03  0.18504366257E+03  0.00000000000E+00 0. -1.
         24    2    1    2    0    0  0.10559789544E+03 -0.12542393066E+02 -0.77642720583E+02  0.15657172360E+03  0.84723582461E+02 0.  0.
         25    2    1    2    0    0 -0.11993953462E+03 -0.33200465279E+02  0.64414885168E+02  0.18784141844E+03  0.12508940079E+03 0.  0.
        -24    2    1    2    0    0  0.14341639179E+02  0.45742858344E+02  0.34342204875E+03  0.35586839645E+03  0.80034494555E+02 0.  0.
        -11    1    3    3    0    0  0.67492689698E+02  0.31771909622E+02 -0.59364883473E+02  0.95335758210E+02  0.00000000000E+00 0.  1.
         12    1    3    3    0    0  0.38105205741E+02 -0.44314302687E+02 -0.18277837110E+02  0.61235965385E+02  0.00000000000E+00 0. -1.
         11    1    5    5    0    0  0.24211440236E+02  0.39744504274E+02  0.34088027865E+03  0.34404241574E+03  0.00000000000E+00 0. -1.
        -12    1    5    5    0    0 -0.98698010573E+01  0.59983540701E+01  0.25417701054E+01  0.11825980709E+02  0.00000000000E+00 0.  1.
          5    1    4    4  501    0 -0.41130751161E+02  0.43010995893E+02 -0.18211327843E+01  0.59686458962E+02  0.41800000000E+01 0. -1.
         -5    1    4    4    0  501 -0.78808783457E+02 -0.76211461172E+02  0.66236017952E+02  0.12815495948E+03  0.41800000000E+01 0. -1.
</event>
<event>
11    1  0.8864208E-009  0.1392626E+03  0.7561462E-02  0.1108385E+00
         22   -1    0    0    0    0  0.00000000000E+00  0.00000000000E+00  0.32308108893E+03  0.32308108893E+03  0.00000000000E+00 0. -1.
         22   -1    0    0    0    0 -0.00000000000E+00 -0.00000000000E+00 -0.34954201501E+03  0.34954201501E+03  0.00000000000E+00 0. -1.
         24    2    1    2    0    0 -0.35705468992E+02  0.27635325599E+02 -0.22847259509E+03  0.24687769897E+03  0.81916297563E+02 0.  0.
         25    2    1    2    0    0  0.71418309202E+01 -0.80863011652E+02 -0.47838783285E+02  0.15662232858E+03  0.12510864167E+03 0.  0.
        -24    2    1    2    0    0  0.28563638071E+02  0.53227686054E+02  0.24985045229E+03  0.26912307638E+03  0.79705167654E+02 0.  0.
        -11    1    3    3    0    0 -0.34531101742E+02 -0.12715751133E+02 -0.40929316304E+02  0.55039042938E+02  0.00000000000E+00 0.  1.
         12    1    3    3    0    0 -0.11743672495E+01  0.40351076732E+02 -0.18754327878E+03  0.19183865603E+03  0.00000000000E+00 0. -1.
         13    1    5    5    0    0  0.54260415723E+02  0.21129108064E+02  0.16140258305E+03  0.17158503938E+03  0.00000000000E+00 0. -1.
        -14    1    5    5    0    0 -0.25696777651E+02  0.32098577990E+02  0.88447869235E+02  0.97538037006E+02  0.00000000000E+00 0.  1.
          5    1    4    4  501    0  0.43597006093E+02  0.65270888283E+01  0.10257032010E+02  0.45453062983E+02  0.41800000000E+01 0.  1.
         -5    1    4    4    0  501 -0.36455175173E+02 -0.87390100481E+02 -0.58095815295E+02  0.11116926560E+03  0.41800000000E+01 0.  1.
</event>
<event>
11    1  0.8864208E-009  0.1401953E+03  0.7561462E-02  0.1107340E+00
         22   -1    0    0    0    0  0.00000000000E+00  0.00000000000E+00  0.21927753030E+03  0.21927753030E+03  0.00000000000E+00 0.  1.
         22   -1    0    0    0    0 -0.00000000000E+00 -0.00000000000E+00 -0.25954160303E+04  0.25954160303E+04  0.00000000000E+00 0.  1.
         24    2    1    2    0    0 -0.61567139992E+02 -0.17606389765E+02 -0.24074346638E+04  0.24095275102E+04  0.77334755292E+02 0.  0.
         25    2    1    2    0    0  0.45223193701E+02  0.83184522874E+01 -0.15193713174E+03  0.20210536546E+03  0.12508937944E+03 0.  0.
        -24    2    1    2    0    0  0.16343946291E+02  0.92879374776E+01  0.18323329554E+03  0.20306068493E+03  0.85474035867E+02 0.  0.
        -11    1    3    3    0    0 -0.75742218872E+02  0.16991801408E+01 -0.19416033742E+04  0.19430809128E+04  0.00000000000E+00 0.  1.
         12    1    3    3    0    0  0.14175078880E+02 -0.19305569906E+02 -0.46583128959E+03  0.46644659742E+03  0.00000000000E+00 0. -1.
         11    1    5    5    0    0  0.41106672858E+01  0.35210343759E+02  0.27919190860E+02  0.45123686811E+02  0.00000000000E+00 0. -1.
        -12    1    5    5    0    0  0.12233279005E+02 -0.25922406281E+02  0.15531410468E+03  0.15793699812E+03  0.00000000000E+00 0.  1.
          5    1    4    4  501    0  0.44808029783E+02  0.27544698586E+02 -0.16838448769E+03  0.17645758144E+03  0.41800000000E+01 0.  1.
         -5    1    4    4    0  501  0.41516391798E+00 -0.19226246299E+02  0.16447355941E+02  0.25647784023E+02  0.41800000000E+01 0.  1.
</event>
<event>
11    1  0.8864208E-009  0.1276672E+03  0.7561462E-02  0.1122169E+00
         22   -1    0    0    0    0  0.00000000000E+00  0.00000000000E+00  0.12489575956E+03  0.12489575956E+03  0.00000000000E+00 0.  1.
         22   -1    0    0    0    0 -0.00000000000E+00 -0.00000000000E+00 -0.23321607450E+04  0.23321607450E+04  0.00000000000E+00 0. -1.
        -24    2    1    2    0    0 -0.13638386215E+02  0.21647055615E+02 -0.19065617359E+04  0.19083198054E+04  0.77796057437E+02 0.  0.
         25    2    1    2    0    0  0.19707325918E+02 -0.16491940797E+02 -0.40025662957E+03  0.42013606535E+03  0.12509428882E+03 0.  0.
         24    2    1    2    0    0 -0.60689397033E+01 -0.51551148183E+01  0.99553379990E+02  0.12860063376E+03  0.81017530812E+02 0.  0.
        -11    1    5    5    0    0 -0.38569566369E+02 -0.22382414807E+02  0.56294887250E+02  0.71817116852E+02  0.00000000000E+00 0.  1.
         12    1    5    5    0    0  0.32500626666E+02  0.17227299989E+02  0.43258492740E+02  0.56783516910E+02  0.00000000000E+00 0. -1.
         11    1    3    3    0    0 -0.36353133309E+01  0.43813824205E+02 -0.63255799500E+03  0.63408397215E+03  0.00000000000E+00 0. -1.
        -12    1    3    3    0    0 -0.10003072884E+02 -0.22166768590E+02 -0.12740037408E+04  0.12742358333E+04  0.00000000000E+00 0.  1.
          5    1    4    4  501    0  0.19322648364E+01 -0.13926137101E+02  0.42016380879E+01  0.15257690014E+02  0.41800000000E+01 0. -1.
         -5    1    4    4    0  501  0.17775061082E+02 -0.25658036960E+01 -0.40445826765E+03  0.40487837534E+03  0.41800000000E+01 0. -1.
</event>
<event>
11    1  0.8864208E-009  0.1390791E+03  0.7561462E-02  0.1108591E+00
         22   -1    0    0    0    0  0.00000000000E+00  0.00000000000E+00  0.13997451567E+04  0.13997451567E+04  0.00000000000E+00 0.  1.
         22   -1    0    0    0    0 -0.00000000000E+00 -0.00000000000E+00 -0.31839354663E+03  0.31839354663E+03  0.00000000000E+00 0. -1.
        -24    2    1    2    0    0  0.25948179651E+02 -0.86911074430E+01 -0.30111549799E+03  0.31266844863E+03  0.79637756527E+02 0.  0.
         25    2    1    2    0    0 -0.17050794310E+01 -0.52264866833E+02  0.55404541354E+03  0.57039316377E+03  0.12509003721E+03 0.  0.
         24    2    1    2    0    0 -0.24243100220E+02  0.60955974276E+02  0.82842169456E+03  0.83507709098E+03  0.82267157159E+02 0.  0.
        -13    1    5    5    0    0 -0.19389572062E+02  0.33863891487E+02  0.76433056682E+03  0.76532603120E+03  0.00000000000E+00 0.  1.
         14    1    5    5    0    0 -0.48535281587E+01  0.27092082789E+02  0.64091127744E+02  0.69751059783E+02  0.00000000000E+00 0. -1.
         13    1    3    3    0    0  0.21542975021E+02  0.59760784053E+00 -0.30160732860E+03  0.30237631781E+03  0.00000000000E+00 0. -1.
        -14    1    3    3    0    0  0.44052046307E+01 -0.92887152835E+01  0.49183061167E+00  0.10292130820E+02  0.00000000000E+00 0.  1.
          5    1    4    4  501    0  0.19762757268E+01 -0.87516275847E+02  0.48301287720E+03  0.49089908958E+03  0.41800000000E+01 0. -1.
         -5    1    4    4    0  501 -0.36813551578E+01  0.35251409014E+02  0.71032536334E+02  0.79494074190E+02  0.41800000000E+01 0. -1.
</event>
<event>
11    1  0.8864208E-009  0.1365790E+03  0.7561462E-02  0.1111440E+00
         22   -1    0    0    0    0  0.00000000000E+00  0.00000000000E+00  0.83906319958E+02  0.83906319958E+02  0.00000000000E+00 0. -1.
         22   -1    0    0    0    0 -0.00000000000E+00 -0.00000000000E+00 -0.18426389710E+04  0.18426389710E+04  0.00000000000E+00 0. -1.
         24    2    1    2    0    0 -0.20460444124E+01 -0.68013557868E+01 -0.15606466807E+04  0.15627109535E+04  0.79981356435E+02 0.  0.
         25    2    1    2    0    0 -0.21798603428E+02 -0.43590593525E+02 -0.22581668927E+03  0.26270861461E+03  0.12508924847E+03 0.  0.
        -24    2    1    2    0    0  0.23844647840E+02  0.50391949312E+02  0.27730719001E+02  0.10112572280E+03  0.79683770306E+02 0.  0.
        -11    1    3    3    0    0  0.86044203150E+01  0.35376123606E+02 -0.78805627201E+03  0.78889682090E+03  0.00000000000E+00 0.  1.
         12    1    3    3    0    0 -0.10650464727E+02 -0.42177479393E+02 -0.77259040871E+03  0.77381413259E+03  0.00000000000E+00 0. -1.
         11    1    5    5    0    0 -0.10034559476E+02  0.22026359519E+02  0.47042236806E+02  0.52903921795E+02  0.00000000000E+00 0. -1.
        -12    1    5    5    0    0  0.33879207316E+02  0.28365589793E+02 -0.19311517805E+02  0.48221801009E+02  0.00000000000E+00 0.  1.
          5    1    4    4  501    0 -0.32526628037E+02  0.21785440379E+02 -0.15752327791E+02  0.42405131468E+02  0.41800000000E+01 0.  1.
         -5    1    4    4    0  501  0.10728024610E+02 -0.65376033904E+02 -0.21006436148E+03  0.22030348314E+03  0.41800000000E+01 0.  1.
</event>
<event>
11    1  0.8864208E-009  0.1329326E+03  0.7561462E-02  0.1115717E+00
         22   -1    0    0    0    0  0.00000000000E+00  0.00000000000E+00  0.69176172688E+03  0.69176172688E+03  0.00000000000E+00 0. -1.
         22   -1    0    0    0    0 -0.00000000000E+00 -0.00000000000E+00 -0.49766985432E+03  0.49766985432E+03  0.00000000000E+00 0. -1.
         24    2    1    2    0    0  0.30836273629E+02 -0.14546622870E+02 -0.43843952308E+03  0.44691603119E+03  0.79638203932E+02 0.  0.
         25    2    1    2    0    0 -0.63840138039E+02  0.41410820477E+02  0.54195730602E+02  0.15612559403E+03  0.12509038580E+03 0.  0.
        -24    2    1    2    0    0  0.33003864410E+02 -0.26864197607E+02  0.57833566504E+03  0.58638995598E+03  0.87006314988E+02 0.  0.
        -13    1    3    3    0    0  0.25840089177E+02  0.31156649817E+02 -0.21956495763E+03  0.22326490467E+03  0.00000000000E+00 0.  1.
         14    1    3    3    0    0  0.49961844524E+01 -0.45703272687E+02 -0.21887456545E+03  0.22365112652E+03  0.00000000000E+00 0. -1.
         11    1    5    5    0    0  0.63565360844E+01 -0.59539058801E+01  0.51043835511E+03  0.51051265304E+03  0.00000000000E+00 0. -1.
        -12    1    5    5    0    0  0.26647328325E+02 -0.20910291727E+02  0.67897309924E+02  0.75877302943E+02  0.00000000000E+00 0.  1.
          5    1    4    4  501    0 -0.87744923456E+01 -0.39526946471E+02  0.40091480549E+02  0.57132918934E+02  0.41800000000E+01 0.  1.
         -5    1    4    4    0  501 -0.55065645693E+02  0.80937766948E+02  0.14104250053E+02  0.98992675101E+02  0.41800000000E+01 0.  1.
</event>
<event>
11    1  0.8864208E-009  0.1345314E+03  0.7561462E-02  0.1113823E+00
         22   -1    0    0    0    0  0.00000000000E+00  0.00000000000E+00  0.39684922214E+03  0.39684922214E+03  0.00000000000E+00 0. -1.
         22   -1    0    0    0    0 -0.00000000000E+00 -0.00000000000E+00 -0.15224520658E+03  0.15224520658E+03  0.00000000000E+00 0. -1.
         24    2    1    2    0    0  0.32767909618E+01 -0.10332616122E+02 -0.84898864776E+02  0.11657985995E+03  0.79155203184E+02 0.  0.
         25    2    1    2    0    0  0.45714619223E+02 -0.14256438761E+01  0.59174683727E+02  0.14574233261E+03  0.12508926992E+03 0.  0.
        -24    2    1    2    0    0 -0.48991410184E+02  0.11758259998E+02  0.27032819661E+03  0.28677223616E+03  0.81379153370E+02 0.  0.
        -13    1    3    3    0    0  0.23937508496E+02  0.26883998831E+02 -0.28458963756E+02  0.45887539967E+02  0.00000000000E+00 0.  1.
         14    1    3    3    0    0 -0.20660717534E+02 -0.37216614953E+02 -0.56439901020E+02  0.70692319984E+02  0.00000000000E+00 0. -1.
         13    1    5    5    0    0 -0.56039340614E+02  0.33849894188E+02  0.23894329395E+03  0.24775011757E+03  0.00000000000E+00 0. -1.
        -14    1    5    5    0    0  0.70479304294E+01 -0.22091634191E+02  0.31384902654E+02  0.39022118589E+02  0.00000000000E+00 0.  1.
          5    1    4    4  501    0  0.72598597637E+02  0.40417712025E+02  0.34509637327E+02  0.90069613592E+02  0.41800000000E+01 0.  1.
         -5    1    4    4    0  501 -0.26883978414E+02 -0.41843355901E+02  0.24665046400E+02  0.55672719013E+02  0.41800000000E+01 0.  1.
</event>
<event>
11    1  0.8864208E-009  0.1357511E+03  0.7561462E-02  0.1112398E+00
         22   -1    0    0    0    0  0.00000000000E+00  0.00000000000E+00  0.13400212658E+04  0.13400212658E+04  0.00000000000E+00 0. -1.
         22   -1    0    0    0    0 -0.00000000000E+00 -0.00000000000E+00 -0.65432140689E+02  0.65432140689E+02  0.00000000000E+00 0. -1.
        -24    2    1    2    0    0 -0.55204143796E+02 -0.10969170518E+02 -0.10849297306E+02  0.97883387173E+02  0.79345006386E+02 0.  0.
         25    2    1    2    0    0  0.14538651455E+02  0.52435627176E+01  0.45018542979E+03  0.46749704381E+03  0.12509075681E+03 0.  0.
         24    2    1    2    0    0  0.40665492341E+02  0.57256078005E+01  0.83525299262E+03  0.84007297550E+03  0.79928578342E+02 0.  0.
        -11    1    5    5    0    0  0.16315169327E+02  0.39125211053E+02  0.26965163926E+03  0.27296331886E+03  0.00000000000E+00 0.  1.
         12    1    5    5    0    0  0.24350323015E+02 -0.33399603252E+02  0.56560135336E+03  0.56710965664E+03  0.00000000000E+00 0. -1.
         11    1    3    3    0    0 -0.62261983716E+02 -0.30914051368E+02 -0.23323748334E+02  0.73322782439E+02  0.00000000000E+00 0. -1.
        -12    1    3    3    0    0  0.70578399203E+01  0.19944880850E+02  0.12474451028E+02  0.24560604734E+02  0.00000000000E+00 0.  1.
          5    1    4    4  501    0 -0.13289366780E+02  0.61062307663E+02  0.19742656050E+03  0.20712298733E+03  0.41800000000E+01 0.  1.
         -5    1    4    4    0  501  0.27828018234E+02 -0.55818744945E+02  0.25275886929E+03  0.26037405648E+03  0.41800000000E+01 0.  1.
</event>
<event>
11    1  0.8864208E-009  0.1307661E+03  0.7561462E-02  0.1118331E+00
         22   -1    0    0    0    0  0.00000000000E+00  0.00000000000E+00  0.72356859813E+03  0.72356859813E+03  0.00000000000E+00 0.  1.
         22   -1    0    0    0    0 -0.00000000000E+00 -0.00000000000E+00 -0.74095345546E+03  0.74095345546E+03  0.00000000000E+00 0. -1.
         24    2    1    2    0    0  0.14852496820E+02 -0.24085837654E+02 -0.70768298427E+03  0.71282793588E+03  0.80670538063E+02 0.  0.
         25    2    1    2    0    0  0.20414380943E+02  0.39339769358E+02  0.13549524387E+03  0.18966387880E+03  0.12509620860E+03 0.  0.
        -24    2    1    2    0    0 -0.35266877763E+02 -0.15253931704E+02  0.55480288307E+03  0.56203023891E+03  0.81211546506E+02 0.  0.
        -13    1    3    3    0    0  0.62551054556E+01 -0.38561967391E+02 -0.15362939184E+03  0.15851858475E+03  0.00000000000E+00 0.  1.
         14    1    3    3    0    0  0.85973913641E+01  0.14476129737E+02 -0.55405359243E+03  0.55430935113E+03  0.00000000000E+00 0. -1.
         11    1    5    5    0    0 -0.39256622400E+02 -0.65182994247E+01  0.10757725740E+03  0.11470151237E+03  0.00000000000E+00 0. -1.
        -12    1    5    5    0    0  0.39897446371E+01 -0.87356322789E+01  0.44722562567E+03  0.44732872654E+03  0.00000000000E+00 0.  1.
          5    1    4    4  501    0  0.59273096537E+01  0.83089933697E+02  0.10562507453E+03  0.13458528468E+03  0.41800000000E+01 0.  1.
         -5    1    4    4    0  501  0.14487071289E+02 -0.43750164339E+02  0.29870169341E+02  0.55078594124E+02  0.41800000000E+01 0.  1.
</event>
<event>
11    1  0.8864208E-009  0.1448619E+03  0.7561462E-02  0.1102248E+00
         22   -1    0    0    0    0  0.00000000000E+00  0.00000000000E+00  0.20887157616E+04  0.20887157616E+04  0.00000000000E+00 0.  1.
         22   -1    0    0    0    0 -0.00000000000E+00 -0.00000000000E+00 -0.15770066702E+03  0.15770066702E+03  0.00000000000E+00 0. -1.
         24    2    1    2    0    0 -0.49062182048E+02  0.55981365659E+02 -0.12251876025E+03  0.16378301472E+03  0.79202388152E+02 0.  0.
         25    2    1    2    0    0  0.53729283865E+02 -0.18004207313E+02  0.33830329104E+03  0.36511614034E+03  0.12509872813E+03 0.  0.
        -24    2    1    2    0    0 -0.46671018174E+01 -0.37977158347E+02  0.17152305638E+04  0.17175172736E+04  0.79910272497E+02 0.  0.
        -13    1    3    3    0    0 -0.10033055394E+02 -0.70014195916E+01  0.73436950177E+01  0.14269265340E+02  0.00000000000E+00 0.  1.
         14    1    3    3    0    0 -0.39029126654E+02  0.62982785251E+02 -0.12986245526E+03  0.14951374938E+03  0.00000000000E+00 0. -1.
         11    1    5    5    0    0  0.31055466345E+02 -0.80352579807E+00  0.37099080721E+03  0.37228922450E+03  0.00000000000E+00 0. -1.
        -12    1    5    5    0    0 -0.35722568162E+02 -0.37173632548E+02  0.13442397566E+04  0.13452280491E+04  0.00000000000E+00 0.  1.
          5    1    4    4  501    0 -0.24778410797E+02 -0.45830593281E+02  0.10364114067E+03  0.11607485241E+03  0.41800000000E+01 0.  1.
         -5    1    4    4    0  501  0.78507694662E+02  0.27826385969E+02  0.23466215037E+03  0.24904128793E+03  0.41800000000E+01 0.  1.
</event>
<event>
11    1  0.8864208E-009  0.1317483E+03  0.7561462E-02  0.1117139E+00
         22   -1    0    0    0    0  0.00000000000E+00  0.00000000000E+00  0.80646376982E+03  0.80646376982E+03  0.00000000000E+00 0.  1.
         22   -1    0    0    0    0 -0.00000000000E+00 -0.00000000000E+00 -0.57345557888E+03  0.57345557888E+03  0.00000000000E+00 0.  1.
         24    2    1    2    0    0 -0.38730764104E+01 -0.44836123740E+02 -0.41352395115E+03  0.42354565396E+03  0.79772075958E+02 0.  0.
         25    2    1    2    0    0 -0.32556497377E+02  0.22029467129E+02 -0.12405427096E+03  0.18048813923E+03  0.12506511631E+03 0.  0.
        -24    2    1    2    0    0  0.36429573788E+02  0.22806656611E+02  0.77058641304E+03  0.77588555551E+03  0.79672566443E+02 0.  0.
        -11    1    3    3    0    0  0.18354229577E+02 -0.58500563527E+02 -0.34106662142E+03  0.34653374139E+03  0.00000000000E+00 0.  1.
         12    1    3    3    0    0 -0.22227305987E+02  0.13664439787E+02 -0.72457329736E+02  0.77011912576E+02  0.00000000000E+00 0. -1.
         13    1    5    5    0    0 -0.62705827814E+01 -0.65893002919E+01  0.99366516379E+01  0.13471307751E+02  0.00000000000E+00 0. -1.
        -14    1    5    5    0    0  0.42700156569E+02  0.29395956903E+02  0.76064976141E+03  0.76241424776E+03  0.00000000000E+00 0.  1.
          5    1    4    4  501    0  0.35699703792E+02  0.45930381799E+02 -0.48963981799E+02  0.76151249082E+02  0.41800000000E+01 0.  1.
         -5    1    4    4    0  501 -0.68256201169E+02 -0.23900914670E+02 -0.75090289159E+02  0.10433689015E+03  0.41800000000E+01 0.  1.
</event>
<event>
11    1  0.8864208E-009  0.1492124E+03  0.7561462E-02  0.1097686E+00
         22   -1    0    0    0    0  0.00000000000E+00  0.00000000000E+00  0.14571969573E+03  0.14571969573E+03  0.00000000000E+00 0. -1.
         22   -1    0    0    0    0 -0.00000000000E+00 -0.00000000000E+00 -0.60354883167E+03  0.60354883167E+03  0.00000000000E+00 0. -1.
        -24    2    1    2    0    0 -0.50485203166E+02  0.63007876409E+02 -0.34517913699E+03  0.36277353810E+03  0.77053585902E+02 0.  0.
         25    2    1    2    0    0  0.83474557321E+02 -0.35964102667E+02 -0.20489895855E+03  0.25669658120E+03  0.12509249851E+03 0.  0.
         24    2    1    2    0    0 -0.32989354154E+02 -0.27043773743E+02  0.92248959599E+02  0.12979840811E+03  0.80734707628E+02 0.  0.
        -11    1    5    5    0    0  0.26461258195E+02 -0.15298305570E+02  0.34444971134E+02  0.46050975831E+02  0.00000000000E+00 0.  1.
         12    1    5    5    0    0 -0.59450612349E+02 -0.11745468172E+02  0.57803988465E+02  0.83747432281E+02  0.00000000000E+00 0. -1.
         11    1    3    3    0    0 -0.62336472910E+02  0.69367768065E+02 -0.25346038158E+03  0.27007385680E+03  0.00000000000E+00 0. -1.
        -12    1    3    3    0    0  0.11851269744E+02 -0.63598916559E+01 -0.91718755417E+02  0.92699681292E+02  0.00000000000E+00 0.  1.
          5    1    4    4  501    0  0.10118924385E+03 -0.53458664168E+02 -0.20074314778E+03  0.23111117590E+03  0.41800000000E+01 0. -1.
         -5    1    4    4    0  501 -0.17714686532E+02  0.17494561502E+02 -0.41558107710E+01  0.25585405298E+02  0.41800000000E+01 0. -1.
</event>
<event>
11    1  0.8864208E-009  0.1619509E+03  0.7561462E-02  0.1085257E+00
         22   -1    0    0    0    0  0.00000000000E+00  0.00000000000E+00  0.15524000424E+04  0.15524000424E+04  0.00000000000E+00 0. -1.
         22   -1    0    0    0    0 -0.00000000000E+00 -0.00000000000E+00 -0.19854259847E+03  0.19854259847E+03  0.00000000000E+00 0. -1.
        -24    2    1    2    0    0  0.67049085184E+02 -0.86710472929E+02 -0.11603555075E+03  0.17905099463E+03  0.81121659885E+02 0.  0.
         25    2    1    2    0    0 -0.64638373896E+02  0.48985264480E+02  0.63029441247E+02  0.16185939887E+03  0.12509228203E+03 0.  0.
         24    2    1    2    0    0 -0.24107112877E+01  0.37725208450E+02  0.14068635535E+04  0.14100322474E+04  0.86584512261E+02 0.  0.
        -11    1    5    5    0    0  0.13337085058E+02 -0.25084773850E+02  0.54470336288E+03  0.54544374344E+03  0.00000000000E+00 0.  1.
         12    1    5    5    0    0 -0.15747796346E+02  0.62809982300E+02  0.86216019058E+03  0.86458850396E+03  0.00000000000E+00 0. -1.
         13    1    3    3    0    0  0.37181501909E+02 -0.66581375994E+02 -0.12065905491E+03  0.14273805115E+03  0.00000000000E+00 0. -1.
        -14    1    3    3    0    0  0.29867583275E+02 -0.20129096935E+02  0.46235041598E+01  0.36312943489E+02  0.00000000000E+00 0.  1.
          5    1    4    4  501    0 -0.35592866811E+02 -0.11835961064E+02  0.83217627266E+02  0.91376080185E+02  0.41800000000E+01 0. -1.
         -5    1    4    4    0  501 -0.29045507085E+02  0.60821225544E+02 -0.20188186019E+02  0.70483318687E+02  0.41800000000E+01 0. -1.
</event>
<event>
11    1  0.8864208E-009  0.1451582E+03  0.7561462E-02  0.1101931E+00
         22   -1    0    0    0    0  0.00000000000E+00  0.00000000000E+00  0.12390397921E+04  0.12390397921E+04  0.00000000000E+00 0. -1.
         22   -1    0    0    0    0 -0.00000000000E+00 -0.00000000000E+00 -0.48547936564E+03  0.48547936564E+03  0.00000000000E+00 0. -1.
         24    2    1    2    0    0  0.71747020440E+02  0.10653679606E+02 -0.42726265333E+03  0.44071642529E+03  0.80102788674E+02 0.  0.
         25    2    1    2    0    0 -0.92858092301E+02 -0.15070861104E+02  0.72852441878E+02  0.17263680444E+03  0.12508489837E+03 0.  0.
        -24    2    1    2    0    0  0.21111071860E+02  0.44171814982E+01  0.11079706379E+04  0.11111659280E+04  0.81397765560E+02 0.  0.
        -13    1    3    3    0    0 -0.16430155627E+01  0.16385136285E+02 -0.22276519902E+03  0.22337302005E+03  0.00000000000E+00 0.  1.
         14    1    3    3    0    0  0.73390036003E+02 -0.57314566796E+01 -0.20449745432E+03  0.21734340524E+03  0.00000000000E+00 0. -1.
         11    1    5    5    0    0 -0.27774172440E+02  0.81841516681E+01  0.22812339870E+03  0.22995362582E+03  0.00000000000E+00 0. -1.
        -12    1    5    5    0    0  0.48885244300E+02 -0.37669701699E+01  0.87984723924E+03  0.88121230221E+03  0.00000000000E+00 0.  1.
          5    1    4    4  501    0 -0.10247324105E+03 -0.42955297296E+02  0.85510066306E+02  0.14026890795E+03  0.41800000000E+01 0. -1.
         -5    1    4    4    0  501  0.96151487537E+01  0.27884436192E+02 -0.12657624427E+02  0.32367896494E+02  0.41800000000E+01 0. -1.
</event>
<event>
11    1  0.8864208E-009  0.1432696E+03  0.7561462E-02  0.1103961E+00
         22   -1    0    0    0    0  0.00000000000E+00  0.00000000000E+00  0.36098283559E+04  0.36098283559E+04  0.00000000000E+00 0.  1.
         22   -1    0    0    0    0 -0.00000000000E+00 -0.00000000000E+00 -0.21444545134E+03  0.21444545134E+03  0.00000000000E+00 0. -1.
        -24    2    1    2    0    0  0.32557535326E+02 -0.62172014323E+02 -0.19166657999E+03  0.21914886238E+03  0.79779656079E+02 0.  0.
         25    2    1    2    0    0 -0.27354888740E+02  0.49801696997E+02  0.54675311412E+03  0.56374950851E+03  0.12508413803E+03 0.  0.
         24    2    1    2    0    0 -0.52026465862E+01  0.12370317326E+02  0.30402963705E+04  0.30413754364E+04  0.79890127852E+02 0.  0.
        -11    1    5    5    0    0  0.28104772163E+02 -0.15021626009E+02  0.18941807289E+04  0.18944487750E+04  0.00000000000E+00 0.  1.
         12    1    5    5    0    0 -0.33307418749E+02  0.27391943335E+02  0.11461156416E+04  0.11469266614E+04  0.00000000000E+00 0. -1.
         11    1    3    3    0    0 -0.55716136865E+01 -0.38574433422E+01 -0.11635178410E+03  0.11654896144E+03  0.00000000000E+00 0. -1.
        -12    1    3    3    0    0  0.38129149012E+02 -0.58314570981E+02 -0.75314795888E+02  0.10259990094E+03  0.00000000000E+00 0.  1.
          5    1    4    4  501    0 -0.47938194465E+02 -0.27494724708E+02  0.27046305602E+03  0.27608289959E+03  0.41800000000E+01 0. -1.
         -5    1    4    4    0  501  0.20583305725E+02  0.77296421705E+02  0.27629005810E+03  0.28766660892E+03  0.41800000000E+01 0. -1.
</event>
<event>
11    1  0.8864208E-009  0.1548474E+03  0.7561462E-02  0.1092026E+00
         22   -1    0    0    0    0  0.00000000000E+00  0.00000000000E+00  0.98083112157E+03  0.98083112157E+03  0.00000000000E+00 0. -1.
         22   -1    0    0    0    0 -0.00000000000E+00 -0.00000000000E+00 -0.14101817434E+04  0.14101817434E+04  0.00000000000E+00 0.  1.
        -24    2    1    2    0    0 -0.84889979613E+02  0.26081121564E+02 -0.12329688776E+04  0.12387932070E+04  0.80683475317E+02 0.  0.
         25    2    1    2    0    0  0.15580199788E+03  0.28922345163E+02 -0.11061570506E+03  0.23020542319E+03  0.12509171861E+03 0.  0.
         24    2    1    2    0    0 -0.70912018270E+02 -0.55003466728E+02  0.91423396081E+03  0.92201423474E+03  0.78946933314E+02 0.  0.
        -13    1    5    5    0    0 -0.38755366925E+02  0.63111909029E+01  0.54028234526E+03  0.54170732153E+03  0.00000000000E+00 0.  1.
         14    1    5    5    0    0 -0.32156651346E+02 -0.61314657631E+02  0.37395161555E+03  0.38030691321E+03  0.00000000000E+00 0. -1.
         11    1    3    3    0    0 -0.51564209244E+02  0.76986658111E+01 -0.26519312457E+03  0.27026936647E+03  0.00000000000E+00 0. -1.
        -12    1    3    3    0    0 -0.33325770369E+02  0.18382455753E+02 -0.96777575298E+03  0.96852384055E+03  0.00000000000E+00 0.  1.
          5    1    4    4  501    0  0.46724990097E+02  0.98549643485E+01 -0.10934225833E+03  0.11938821917E+03  0.41800000000E+01 0.  1.
         -5    1    4    4    0  501  0.10907700779E+03  0.19067380815E+02 -0.12734467365E+01  0.11081720401E+03  0.41800000000E+01 0.  1.
</event>
<event>
11    1  0.8864208E-009  0.2224374E+03  0.7561462E-02  0.1039701E+00
         22   -1    0    0    0    0  0.00000000000E+00  0.00000000000E+00  0.11543744840E+04  0.11543744840E+04  0.00000000000E+00 0.  1.
         22   -1    0    0    0    0 -0.00000000000E+00 -0.00000000000E+00 -0.40953188909E+03  0.40953188909E+03  0.00000000000E+00 0. -1.
        -24    2    1    2    0    0  0.53089932563E+02 -0.17941464070E+03 -0.29413958217E+03  0.35777735082E+03  0.80488413596E+02 0.  0.
         25    2    1    2    0    0 -0.12548600154E+03  0.13528496802E+03  0.75188055910E+02  0.23526641698E+03  0.12509310153E+03 0.  0.
         24    2    1    2    0    0  0.72396068982E+02  0.44129672683E+02  0.96379412114E+03  0.97086260526E+03  0.80538633809E+02 0.  0.
        -13    1    5    5    0    0  0.90145317638E+02  0.33045173415E+02  0.79404792413E+03  0.79983139948E+03  0.00000000000E+00 0.  1.
         14    1    5    5    0    0 -0.17749248656E+02  0.11084499268E+02  0.16974619701E+03  0.17103120579E+03  0.00000000000E+00 0. -1.
         13    1    3    3    0    0  0.65957585142E+02 -0.11029606975E+03 -0.15085805301E+03  0.19817612923E+03  0.00000000000E+00 0. -1.
        -14    1    3    3    0    0 -0.12867652579E+02 -0.69118570951E+02 -0.14328152917E+03  0.15960122159E+03  0.00000000000E+00 0.  1.
          5    1    4    4  501    0 -0.59765141153E+02  0.32013766779E+02  0.89052994562E+02  0.11200295354E+03  0.41800000000E+01 0.  1.
         -5    1    4    4    0  501 -0.65720860391E+02  0.10327120124E+03 -0.13864938652E+02  0.12326346344E+03  0.41800000000E+01 0.  1.
</event>
<event>
11    1  0.8864208E-009  0.1502532E+03  0.7561462E-02  0.1096620E+00
         22   -1    0    0    0    0  0.00000000000E+00  0.00000000000E+00  0.20851430924E+03  0.20851430924E+03  0.00000000000E+00 0. -1.
         22   -1    0    0    0    0 -0.00000000000E+00 -0.00000000000E+00 -0.20166521607E+04  0.20166521607E+04  0.00000000000E+00 0. -1.
        -24    2    1    2    0    0 -0.65808081749E+02  0.52382497756E+02 -0.18824507989E+04  0.18861827561E+04  0.83604720876E+02 0.  0.
         25    2    1    2    0    0 -0.25987348453E+02 -0.20446780536E+02 -0.70249725460E+02  0.14725132190E+03  0.12511800334E+03 0.  0.
         24    2    1    2    0    0  0.91795430202E+02 -0.31935717220E+02  0.14456267293E+03  0.19173239193E+03  0.80104011565E+02 0.  0.
        -11    1    5    5    0    0  0.40753629434E+02 -0.56020030582E+02  0.73824207198E+02  0.10123791635E+03  0.00000000000E+00 0.  1.
         12    1    5    5    0    0  0.51041800767E+02  0.24084313362E+02  0.70738465736E+02  0.90494475580E+02  0.00000000000E+00 0. -1.
         11    1    3    3    0    0 -0.85966672424E+02  0.43175241050E+02 -0.15737403163E+04  0.15766778216E+04  0.00000000000E+00 0. -1.
        -12    1    3    3    0    0  0.20158590675E+02  0.92072567056E+01 -0.30871048263E+03  0.30950493443E+03  0.00000000000E+00 0.  1.
          5    1    4    4  501    0 -0.41870097268E+02  0.34928210600E+02 -0.70836092890E+02  0.89489157985E+02  0.41800000000E+01 0. -1.
         -5    1    4    4    0  501  0.15882748815E+02 -0.55374991136E+02  0.58636742977E+00  0.57762163914E+02  0.41800000000E+01 0. -1.
</event>
<event>
11    1  0.8864208E-009  0.1999255E+03  0.7561462E-02  0.1054576E+00
         22   -1    0    0    0    0  0.00000000000E+00  0.00000000000E+00  0.83389312537E+03  0.83389312537E+03  0.00000000000E+00 0. -1.
         22   -1    0    0    0    0 -0.00000000000E+00 -0.00000000000E+00 -0.18969877647E+04  0.18969877647E+04  0.00000000000E+00 0. -1.
         24    2    1    2    0    0  0.12984114130E+03  0.81363995651E+02 -0.16217457238E+04  0.16309194680E+04  0.79751467182E+02 0.  0.
         25    2    1    2    0    0 -0.94411934575E+02 -0.20957418286E+03 -0.19759303382E+03  0.32791128676E+03  0.12509138045E+03 0.  0.
        -24    2    1    2    0    0 -0.35429206724E+02  0.12821018721E+03  0.75624411826E+03  0.77205013538E+03  0.80393807893E+02 0.  0.
        -13    1    3    3    0    0  0.59065224996E+02  0.57380638157E+02 -0.50442941859E+03  0.51110691325E+03  0.00000000000E+00 0.  1.
         14    1    3    3    0    0  0.70775916302E+02  0.23983357494E+02 -0.11173163052E+04  0.11198125547E+04  0.00000000000E+00 0. -1.
         11    1    5    5    0    0  0.24325945153E+01  0.72673260326E+02  0.22225628134E+03  0.23384861530E+03  0.00000000000E+00 0. -1.
        -12    1    5    5    0    0 -0.37861801239E+02  0.55536926883E+02  0.53398783692E+03  0.53820152008E+03  0.00000000000E+00 0.  1.
          5    1    4    4  501    0  0.25796683287E+02 -0.10481074194E+02 -0.30502454193E+02  0.41511370692E+02  0.41800000000E+01 0.  1.
         -5    1    4    4    0  501 -0.12020861786E+03 -0.19909310867E+03 -0.16709057962E+03  0.28639991607E+03  0.41800000000E+01 0.  1.
</event>
<event>
11    1  0.8864208E-009  0.1401063E+03  0.7561462E-02  0.1107440E+00
         22   -1    0    0    0    0  0.00000000000E+00  0.00000000000E+00  0.55544165939E+03  0.55544165939E+03  0.00000000000E+00 0. -1.
         22   -1    0    0    0    0 -0.00000000000E+00 -0.00000000000E+00 -0.70850367178E+03  0.70850367178E+03  0.00000000000E+00 0.  1.
        -24    2    1    2    0    0  0.36627245661E+02 -0.23373712867E+02 -0.67488347404E+03  0.68108264248E+03  0.80733987769E+02 0.  0.
         25    2    1    2    0    0 -0.75933579831E+02 -0.21354184007E+02  0.24079944033E+03  0.28258426645E+03  0.12509031722E+03 0.  0.
         24    2    1    2    0    0  0.39306334170E+02  0.44727896874E+02  0.28102202132E+03  0.30027842223E+03  0.87453883425E+02 0.  0.
        -11    1    5    5    0    0 -0.10215470511E+02  0.23561755843E+02  0.16949343454E+02  0.30769992195E+02  0.00000000000E+00 0.  1.
         12    1    5    5    0    0  0.49521804681E+02  0.21166141030E+02  0.26407267787E+03  0.26950843003E+03  0.00000000000E+00 0. -1.
         13    1    3    3    0    0  0.36517308605E+01  0.19792075917E+01  0.70662383418E+00  0.42132787959E+01  0.00000000000E+00 0. -1.
        -14    1    3    3    0    0  0.32975514801E+02 -0.25352920459E+02 -0.67559009787E+03  0.67686936369E+03  0.00000000000E+00 0.  1.
          5    1    4    4  501    0 -0.34828592078E+02 -0.56339842633E+02  0.21012893709E+03  0.22036072994E+03  0.41800000000E+01 0.  1.
         -5    1    4    4    0  501 -0.41104987753E+02  0.34985658626E+02  0.30670503240E+02  0.62223536517E+02  0.41800000000E+01 0.  1.
</event>
<event>
11    1  0.8864208E-009  0.1318729E+03  0.7561462E-02  0.1116989E+00
         22   -1    0    0    0    0  0.00000000000E+00  0.00000000000E+00  0.63432650462E+03  0.63432650462E+03  0.00000000000E+00 0.  1.
         22   -1    0    0    0    0 -0.00000000000E+00 -0.00000000000E+00 -0.16079050005E+04  0.16079050005E+04  0.00000000000E+00 0.  1.
         24    2    1    2    0    0  0.11854842818E+01 -0.28187401485E+02 -0.13435944596E+04  0.13462884771E+04  0.80315981382E+02 0.  0.
         25    2    1    2    0    0  0.80236556510E+01 -0.12915262657E+02 -0.24423553416E+03  0.27482502887E+03  0.12508643926E+03 0.  0.
        -24    2    1    2    0    0 -0.92091399328E+01  0.41102664142E+02  0.61425149784E+03  0.62111799914E+03  0.81904999861E+02 0.  0.
        -11    1    3    3    0    0  0.17509061493E+02 -0.49183999861E+02 -0.11017114470E+04  0.11029477528E+04  0.00000000000E+00 0.  1.
         12    1    3    3    0    0 -0.16323577211E+02  0.20996598376E+02 -0.24188301259E+03  0.24334072428E+03  0.00000000000E+00 0. -1.
         11    1    5    5    0    0 -0.43089058069E+02  0.63735467210E+01  0.29794233088E+03  0.30110948433E+03  0.00000000000E+00 0. -1.
        -12    1    5    5    0    0  0.33879918136E+02  0.34729117421E+02  0.31630916696E+03  0.32000851481E+03  0.00000000000E+00 0.  1.
          5    1    4    4  501    0 -0.17484154437E+02 -0.20556999871E+01 -0.24606447507E+03  0.24672883871E+03  0.41800000000E+01 0.  1.
         -5    1    4    4    0  501  0.25507810088E+02 -0.10859562670E+02  0.18289409084E+01  0.28096190164E+02  0.41800000000E+01 0.  1.
</event>
<event>
11    1  0.8864208E-009  0.2157602E+03  0.7561462E-02  0.1043906E+00
         22   -1    0    0    0    0  0.00000000000E+00  0.00000000000E+00  0.38054757940E+03  0.38054757940E+03  0.00000000000E+00 0.  1.
         22   -1    0    0    0    0 -0.00000000000E+00 -0.00000000000E+00 -0.24379182654E+03  0.24379182654E+03  0.00000000000E+00 0. -1.
         24    2    1    2    0    0  0.22471773153E+02  0.14616297216E+02 -0.10821509393E+03  0.13624257362E+03  0.78312933663E+02 0.  0.
         25    2    1    2    0    0  0.42124862799E+02 -0.17583502784E+03  0.77137885934E+02  0.23299973436E+03  0.12508461809E+03 0.  0.
        -24    2    1    2    0    0 -0.64596635951E+02  0.16121873062E+03  0.16783296085E+03  0.25509709796E+03  0.82112253408E+02 0.  0.
        -13    1    3    3    0    0  0.36056235433E+02  0.48230544993E+01 -0.11593029164E+02  0.38179998605E+02  0.00000000000E+00 0.  1.
         14    1    3    3    0    0 -0.13584462281E+02  0.97932427169E+01 -0.96622064769E+02  0.98062575015E+02  0.00000000000E+00 0. -1.
         11    1    5    5    0    0 -0.72067695282E+01 -0.95457634214E+01  0.10456905561E+02  0.15887290525E+02  0.00000000000E+00 0. -1.
        -12    1    5    5    0    0 -0.57389866423E+02  0.17076449404E+03  0.15737605529E+03  0.23920980744E+03  0.00000000000E+00 0.  1.
          5    1    4    4  501    0  0.14548274673E+02 -0.15787256857E+03  0.10963402321E+02  0.15897505714E+03  0.41800000000E+01 0. -1.
         -5    1    4    4    0  501  0.27576588125E+02 -0.17962459271E+02  0.66174483613E+02  0.74024677218E+02  0.41800000000E+01 0. -1.
</event>
<event>
11    1  0.8864208E-009  0.1550295E+03  0.7561462E-02  0.1091848E+00
         22   -1    0    0    0    0  0.00000000000E+00  0.00000000000E+00  0.15192094476E+03  0.15192094476E+03  0.00000000000E+00 0.  1.
         22   -1    0    0    0    0 -0.00000000000E+00 -0.00000000000E+00 -0.64223598559E+03  0.64223598559E+03  0.00000000000E+00 0. -1.
        -24    2    1    2    0    0 -0.85803713637E+01  0.94830973156E+01 -0.45676264214E+03  0.46385196488E+03  0.79768303018E+02 0.  0.
         25    2    1    2    0    0 -0.13809595889E+02 -0.96848775938E+02 -0.10376426458E+03  0.18969742672E+03  0.12509077008E+03 0.  0.
         24    2    1    2    0    0  0.22389967253E+02  0.87365678622E+02  0.70211865894E+02  0.14060753875E+03  0.81894452837E+02 0.  0.
        -13    1    5    5    0    0  0.53048058301E+02  0.49244921382E+02  0.35463279951E+02  0.80602748069E+02  0.00000000000E+00 0.  1.
         14    1    5    5    0    0 -0.30658091048E+02  0.38120757240E+02  0.34748585943E+02  0.60004790678E+02  0.00000000000E+00 0. -1.
         11    1    3    3    0    0  0.31897057605E+02 -0.85468017535E+00 -0.10856278598E+03  0.11315489941E+03  0.00000000000E+00 0. -1.
        -12    1    3    3    0    0 -0.40477428969E+02  0.10337777491E+02 -0.34819985616E+03  0.35069706547E+03  0.00000000000E+00 0.  1.
          5    1    4    4  501    0 -0.39894228462E+02  0.13163210900E+02 -0.46795848926E+02  0.63024943177E+02  0.41800000000E+01 0.  1.
         -5    1    4    4    0  501  0.26084632573E+02 -0.11001198684E+03 -0.56968415658E+02  0.12667248354E+03  0.41800000000E+01 0.  1.
</event>
<event>
11    1  0.8864208E-009  0.1710755E+03  0.7561462E-02  0.1077099E+00
         22   -1    0    0    0    0  0.00000000000E+00  0.00000000000E+00  0.11396176230E+04  0.11396176230E+04  0.00000000000E+00 0.  1.
         22   -1    0    0    0    0 -0.00000000000E+00 -0.00000000000E+00 -0.18820887926E+03  0.18820887926E+03  0.00000000000E+00 0.  1.
         24    2    1    2    0    0 -0.38644926894E+02  0.80962516875E+02 -0.13927391086E+03  0.18286085144E+03  0.77411299110E+02 0.  0.
         25    2    1    2    0    0  0.32424953340E+02 -0.17478537031E+03  0.58616441518E+03  0.62516999640E+03  0.12508996559E+03 0.  0.
        -24    2    1    2    0    0  0.62199735535E+01  0.93822853438E+02  0.50451823940E+03  0.51979565442E+03  0.82507287939E+02 0.  0.
        -13    1    3    3    0    0 -0.32255459419E+02  0.96463651485E+02 -0.11856437816E+03  0.15621511607E+03  0.00000000000E+00 0.  1.
         14    1    3    3    0    0 -0.63894674750E+01 -0.15501134610E+02 -0.20709532697E+02  0.26645735369E+02  0.00000000000E+00 0. -1.
         13    1    5    5    0    0  0.11716425108E+02 -0.12440380212E+02  0.45434893277E+02  0.48542426847E+02  0.00000000000E+00 0. -1.
        -14    1    5    5    0    0 -0.54964515542E+01  0.10626323365E+03  0.45908334613E+03  0.47125322757E+03  0.00000000000E+00 0.  1.
          5    1    4    4  501    0  0.24996299252E+01  0.18995154315E+02  0.79218143914E+02  0.81609134062E+02  0.41800000000E+01 0. -1.
         -5    1    4    4    0  501  0.29925323415E+02 -0.19378052463E+03  0.50694627127E+03  0.54356086233E+03  0.41800000000E+01 0. -1.
</event>
<event>
11    1  0.8864208E-009  0.1343515E+03  0.7561462E-02  0.1114035E+00
         22   -1    0    0    0    0  0.00000000000E+00  0.00000000000E+00  0.11007741405E+03  0.11007741405E+03  0.00000000000E+00 0.  1.
         22   -1    0    0    0    0 -0.00000000000E+00 -0.00000000000E+00 -0.18249986617E+04  0.18249986617E+04  0.00000000000E+00 0. -1.
        -24    2    1    2    0    0 -0.36253558444E+02  0.30129532193E+02 -0.16523923735E+04  0.16549213037E+04  0.78369996645E+02 0.  0.
         25    2    1    2    0    0  0.14251154052E+02  0.21813419279E+02 -0.11142473687E+03  0.16953343673E+03  0.12508874262E+03 0.  0.
         24    2    1    2    0    0  0.22002404393E+02 -0.51942951472E+02  0.48895862672E+02  0.11062133532E+03  0.81633929436E+02 0.  0.
        -13    1    5    5    0    0 -0.27243313943E+01 -0.13972171817E+02  0.61871437296E+02  0.63487938381E+02  0.00000000000E+00 0.  1.
         14    1    5    5    0    0  0.24726735787E+02 -0.37970779655E+02 -0.12975574624E+02  0.47133396940E+02  0.00000000000E+00 0. -1.
         11    1    3    3    0    0  0.41717970774E+00 -0.19171438328E+02 -0.83603707618E+03  0.83625696460E+03  0.00000000000E+00 0. -1.
        -12    1    3    3    0    0 -0.36670738152E+02  0.49300970522E+02 -0.81635529728E+03  0.81866433911E+03  0.00000000000E+00 0.  1.
          5    1    4    4  501    0  0.49132295945E+02  0.47184783468E+02 -0.10570535184E+03  0.12582320971E+03  0.41800000000E+01 0.  1.
         -5    1    4    4    0  501 -0.34881141894E+02 -0.25371364189E+02 -0.57193850311E+01  0.43710227015E+02  0.41800000000E+01 0.  1.
</event>
<event>
11    1  0.8864208E-009  0.1854783E+03  0.7561462E-02  0.1065296E+00
         22   -1    0    0    0    0  0.00000000000E+00  0.00000000000E+00  0.17039386792E+04  0.17039386792E+04  0.00000000000E+00 0.  1.
         22   -1    0    0    0    0 -0.00000000000E+00 -0.00000000000E+00 -0.36906131290E+03  0.36906131290E+03  0.00000000000E+00 0.  1.
        -24    2    1    2    0    0 -0.17815608328E+02  0.23754004569E+02 -0.32873911032E+03  0.33954095677E+03  0.79605339234E+02 0.  0.
         25    2    1    2    0    0 -0.24670299828E+02  0.11013284514E+03  0.20184914827E+03  0.26292085449E+03  0.12508568982E+03 0.  0.
         24    2    1    2    0    0  0.42485908156E+02 -0.13388684971E+03  0.14617673283E+04  0.14705381808E+04  0.77382673497E+02 0.  0.
        -11    1    5    5    0    0  0.28725342546E+02 -0.49632780798E+02  0.28700729323E+03  0.29268027710E+03  0.00000000000E+00 0.  1.
         12    1    5    5    0    0  0.13760565610E+02 -0.84254068911E+02  0.11747600351E+04  0.11778579037E+04  0.00000000000E+00 0. -1.
         13    1    3    3    0    0 -0.34142279210E+01  0.46697568008E+02 -0.11614128960E+03  0.12522427464E+03  0.00000000000E+00 0. -1.
        -14    1    3    3    0    0 -0.14401380407E+02 -0.22943563439E+02 -0.21259782072E+03  0.21431668212E+03  0.00000000000E+00 0.  1.
          5    1    4    4  501    0 -0.39059811433E+02  0.12454888678E+03  0.11628023107E+03  0.17486182717E+03  0.41800000000E+01 0. -1.
         -5    1    4    4    0  501  0.14389511605E+02 -0.14416041636E+02  0.85568917206E+02  0.88059027319E+02  0.41800000000E+01 0. -1.
</event>
<event>
11    1  0.8864208E-009  0.1461145E+03  0.7561462E-02  0.1100916E+00
         22   -1    0    0    0    0  0.00000000000E+00  0.00000000000E+00  0.18657737386E+03  0.18657737386E+03  0.00000000000E+00 0. -1.
         22   -1    0    0    0    0 -0.00000000000E+00 -0.00000000000E+00 -0.16420651326E+04  0.16420651326E+04  0.00000000000E+00 0.  1.
        -24    2    1    2    0    0  0.33372022615E+02  0.14685872486E+02 -0.13976849934E+04  0.14004199432E+04  0.79519241952E+02 0.  0.
         25    2    1    2    0    0 -0.83326983167E+01 -0.85655884974E+02 -0.19896217638E+03  0.25027817234E+03  0.12508737517E+03 0.  0.
         24    2    1    2    0    0 -0.25039324298E+02  0.70970012488E+02  0.14115941101E+03  0.17794439093E+03  0.77939184714E+02 0.  0.
        -11    1    5    5    0    0 -0.72028094919E+01 -0.12114546996E+02  0.11194145626E+01  0.14138451205E+02  0.00000000000E+00 0.  1.
         12    1    5    5    0    0 -0.17836514806E+02  0.83084559485E+02  0.14003999645E+03  0.16380593973E+03  0.00000000000E+00 0. -1.
         13    1    3    3    0    0  0.26921115807E+02  0.25725199712E+02 -0.25898476511E+03  0.26164793318E+03  0.00000000000E+00 0. -1.
        -14    1    3    3    0    0  0.64509068077E+01 -0.11039327226E+02 -0.11387002282E+04  0.11387720100E+04  0.00000000000E+00 0.  1.
          5    1    4    4  501    0  0.36130286613E+02 -0.16449903868E+02 -0.14830317161E+03  0.15358157460E+03  0.41800000000E+01 0.  1.
         -5    1    4    4    0  501 -0.44462984929E+02 -0.69205981106E+02 -0.50659004774E+02  0.96696597739E+02  0.41800000000E+01 0.  1.
</event>
<event>
11    1  0.8864208E-009  0.1734892E+03  0.7561462E-02  0.1075035E+00
         22   -1    0    0    0    0  0.00000000000E+00  0.00000000000E+00  0.14326206670E+03  0.14326206670E+03  0.00000000000E+00 0. -1.
         22   -1    0    0    0    0 -0.00000000000E+00 -0.00000000000E+00 -0.68443576840E+03  0.68443576840E+03  0.00000000000E+00 0.  1.
         24    2    1    2    0    0  0.81428002230E+02  0.81347592805E+02 -0.45309829605E+03  0.47389289857E+03  0.77643177644E+02 0.  0.
         25    2    1    2    0    0 -0.94106288057E+02 -0.10700355050E+03 -0.15520719538E+03  0.24503861223E+03  0.12509554235E+03 0.  0.
        -24    2    1    2    0    0  0.12678285827E+02  0.25655957699E+02  0.67131789726E+02  0.10876632430E+03  0.80650288360E+02 0.  0.
        -13    1    3    3    0    0  0.80364350253E+02  0.93104761161E+02 -0.36869787227E+03  0.38867087151E+03  0.00000000000E+00 0.  1.
         14    1    3    3    0    0  0.10636519767E+01 -0.11757168356E+02 -0.84400423775E+02  0.85222027062E+02  0.00000000000E+00 0. -1.
         11    1    5    5    0    0  0.37261763286E+02 -0.28722674361E+01  0.59620552952E+02  0.70365469214E+02  0.00000000000E+00 0. -1.
        -12    1    5    5    0    0 -0.24583477459E+02  0.28528225135E+02  0.75112367747E+01  0.38400855085E+02  0.00000000000E+00 0.  1.
          5    1    4    4  501    0 -0.90045853587E+02 -0.37948152635E+02 -0.30640262724E+02  0.10249202962E+03  0.41800000000E+01 0. -1.
         -5    1    4    4    0  501 -0.40604344698E+01 -0.69055397869E+02 -0.12456693265E+03  0.14254658261E+03  0.41800000000E+01 0. -1.
</event>
<event>
11    1  0.8864208E-009  0.2229169E+03  0.7561462E-02  0.1039405E+00
         22   -1    0    0    0    0  0.00000000000E+00  0.00000000000E+00  0.22389353014E+04  0.22389353014E+04  0.00000000000E+00 0.  1.
         22   -1    0    0    0    0 -0.00000000000E+00 -0.00000000000E+00 -0.11030072800E+04  0.11030072800E+04  0.00000000000E+00 0.  1.
        -24    2    1    2    0    0 -0.74733434466E+02 -0.19804231767E+02 -0.10242630674E+04  0.10306276803E+04  0.84269153951E+02 0.  0.
         25    2    1    2    0    0  0.25371270356E+03  0.38006351271E+01  0.21299076713E+03  0.35411525279E+03  0.12509182468E+03 0.  0.
         24    2    1    2    0    0 -0.17897926909E+03  0.16003596640E+02  0.19472003217E+04  0.19571996483E+04  0.82168585952E+02 0.  0.
        -13    1    5    5    0    0 -0.16536234463E+03  0.81850056373E+01  0.19048580826E+04  0.19120397523E+04  0.00000000000E+00 0.  1.
         14    1    5    5    0    0 -0.13616924463E+02  0.78185910031E+01  0.42342239090E+02  0.45159896017E+02  0.00000000000E+00 0. -1.
         13    1    3    3    0    0  0.48037288934E+01 -0.16687396677E+02 -0.50506686278E+03  0.50536529451E+03  0.00000000000E+00 0. -1.
        -14    1    3    3    0    0 -0.79537163359E+02 -0.31168350908E+01 -0.51919620464E+03  0.52526238579E+03  0.00000000000E+00 0.  1.
          5    1    4    4  501    0  0.16131491750E+03 -0.55053428209E+02  0.15331908183E+03  0.22929805018E+03  0.41800000000E+01 0. -1.
         -5    1    4    4    0  501  0.92397786060E+02  0.58854063336E+02  0.59671685300E+02  0.12481720261E+03  0.41800000000E+01 0. -1.
</event>
<event>
11    1  0.8864208E-009  0.2076250E+03  0.7561462E-02  0.1049259E+00
         22   -1    0    0    0    0  0.00000000000E+00  0.00000000000E+00  0.81822272306E+03  0.81822272306E+03  0.00000000000E+00 0.  1.
         22   -1    0    0    0    0 -0.00000000000E+00 -0.00000000000E+00 -0.27780338619E+03  0.27780338619E+03  0.00000000000E+00 0. -1.
        -24    2    1    2    0    0 -0.46326409061E+02 -0.15018965554E+03 -0.13737840018E+03  0.22448632223E+03  0.82572484681E+02 0.  0.
         25    2    1    2    0    0  0.12178234927E+03  0.16493108662E+03  0.65244765190E+02  0.24887219012E+03  0.12508910306E+03 0.  0.
         24    2    1    2    0    0 -0.75455940207E+02 -0.14741431088E+02  0.61255297186E+03  0.62266759689E+03  0.81134975091E+02 0.  0.
        -11    1    5    5    0    0 -0.66538564929E+02  0.24947662644E+02  0.38196466079E+03  0.38851868499E+03  0.00000000000E+00 0.  1.
         12    1    5    5    0    0 -0.89173752778E+01 -0.39689093732E+02  0.23058831107E+03  0.23414891190E+03  0.00000000000E+00 0. -1.
         13    1    3    3    0    0 -0.45332149838E+02 -0.11659704631E+03 -0.14344891537E+03  0.19033514215E+03  0.00000000000E+00 0. -1.
        -14    1    3    3    0    0 -0.99425922359E+00 -0.33592609228E+02  0.60705151921E+01  0.34151180080E+02  0.00000000000E+00 0.  1.
          5    1    4    4  501    0  0.13096703642E+03  0.12272253565E+03  0.87926511296E+02  0.19990430004E+03  0.41800000000E+01 0.  1.
         -5    1    4    4    0  501 -0.91846871482E+01  0.42208550972E+02 -0.22681746106E+02  0.48967890087E+02  0.41800000000E+01 0.  1.
</event>
<event>
11    1  0.8864208E-009  0.4097563E+03  0.7561462E-02  0.9621402E-01
         22   -1    0    0    0    0  0.00000000000E+00  0.00000000000E+00  0.60853430650E+03  0.60853430650E+03  0.00000000000E+00 0. -1.
         22   -1    0    0    0    0 -0.00000000000E+00 -0.00000000000E+00 -0.97383877000E+03  0.97383877000E+03  0.00000000000E+00 0. -1.
         24    2    1    2    0    0  0.19048979773E+03  0.17232026674E+03 -0.63134313528E+03  0.68637758860E+03  0.80866570939E+02 0.  0.
         25    2    1    2    0    0 -0.28988527073E+03 -0.44566371619E+03  0.22849877016E+03  0.59203792117E+03  0.12509034345E+03 0.  0.
        -24    2    1    2    0    0  0.99395473005E+02  0.27334344945E+03  0.37539901616E+02  0.30395756674E+03  0.79905298655E+02 0.  0.
        -13    1    3    3    0    0  0.22990636325E+01  0.32549332062E+02 -0.11040697658E+03  0.11512795138E+03  0.00000000000E+00 0.  1.
         14    1    3    3    0    0  0.18819073409E+03  0.13977093468E+03 -0.52093615870E+03  0.57124963722E+03  0.00000000000E+00 0. -1.
         13    1    5    5    0    0  0.32814284647E+00  0.10818374067E+03  0.25652685868E+01  0.10821464793E+03  0.00000000000E+00 0. -1.
        -14    1    5    5    0    0  0.99067330158E+02  0.16515970877E+03  0.34974633029E+02  0.19574291881E+03  0.00000000000E+00 0.  1.
          5    1    4    4  501    0 -0.13969595648E+03 -0.26941494349E+03  0.18774095431E+03  0.35688024652E+03  0.41800000000E+01 0. -1.
         -5    1    4    4    0  501 -0.15018931425E+03 -0.17624877270E+03  0.40757815855E+02  0.23515767465E+03  0.41800000000E+01 0. -1.
</event>
<event>
11    1  0.8864208E-009  0.1781054E+03  0.7561462E-02  0.1071186E+00
         22   -1    0    0    0    0  0.00000000000E+00  0.00000000000E+00  0.11903354639E+04  0.11903354639E+04  0.00000000000E+00 0. -1.
         22   -1    0    0    0    0 -0.00000000000E+00 -0.00000000000E+00 -0.31892054256E+03  0.31892054256E+03  0.00000000000E+00 0. -1.
         24    2    1    2    0    0 -0.55367038390E+02  0.45834385418E+02 -0.26801924023E+03  0.28885618406E+03  0.80232674819E+02 0.  0.
         25    2    1    2    0    0  0.15285455715E+03 -0.10692984063E+03  0.33906372962E+03  0.40670616745E+03  0.12508871825E+03 0.  0.
        -24    2    1    2    0    0 -0.97487518764E+02  0.61095455211E+02  0.80037043195E+03  0.81369365495E+03  0.90928899728E+02 0.  0.
        -11    1    3    3    0    0  0.92648176100E+01  0.16050838642E+02 -0.97082563938E+01  0.20921675570E+02  0.00000000000E+00 0.  1.
         12    1    3    3    0    0 -0.64631856000E+02  0.29783546776E+02 -0.25831098384E+03  0.26793450849E+03  0.00000000000E+00 0. -1.
         13    1    5    5    0    0 -0.10384408622E+03  0.53343244067E+02  0.79221382900E+03  0.80076953412E+03  0.00000000000E+00 0. -1.
        -14    1    5    5    0    0  0.63565674540E+01  0.77522111433E+01  0.81566029569E+01  0.12924120829E+02  0.00000000000E+00 0.  1.
          5    1    4    4  501    0  0.15753130374E+03 -0.61598917858E+02  0.30794244571E+03  0.35136385786E+03  0.41800000000E+01 0.  1.
         -5    1    4    4    0  501 -0.46767465877E+01 -0.45330922770E+02  0.31121283908E+02  0.55342309583E+02  0.41800000000E+01 0.  1.
</event>
<event>
11    1  0.8864208E-009  0.1392159E+03  0.7561462E-02  0.1108437E+00
         22   -1    0    0    0    0  0.00000000000E+00  0.00000000000E+00  0.10775006244E+03  0.10775006244E+03  0.00000000000E+00 0.  1.
         22   -1    0    0    0    0 -0.00000000000E+00 -0.00000000000E+00 -0.50541403429E+03  0.50541403429E+03  0.00000000000E+00 0. -1.
        -24    2    1    2    0    0  0.23387938622E+02  0.11720153401E+02 -0.18051931152E+03  0.20071000604E+03  0.83743220774E+02 0.  0.
         25    2    1    2    0    0 -0.68728629780E+02  0.27592772861E+02 -0.26388913800E+03  0.30128451120E+03  0.12509953583E+03 0.  0.
         24    2    1    2    0    0  0.45340691158E+02 -0.39312926262E+02  0.46744477674E+02  0.11116957950E+03  0.81069999181E+02 0.  0.
        -13    1    5    5    0    0  0.65050576848E+02 -0.46335863677E+02  0.38755123491E+02  0.88772458611E+02  0.00000000000E+00 0.  1.
         14    1    5    5    0    0 -0.19709885690E+02  0.70229374152E+01  0.79893541831E+01  0.22397120889E+02  0.00000000000E+00 0. -1.
         11    1    3    3    0    0  0.79093382948E+01  0.35948743050E+02 -0.16286239070E+03  0.16697014123E+03  0.00000000000E+00 0. -1.
        -12    1    3    3    0    0  0.15478600327E+02 -0.24228589649E+02 -0.17656920816E+02  0.33739864807E+02  0.00000000000E+00 0.  1.
          5    1    4    4  501    0 -0.12785275253E+02  0.26584157293E+01  0.12260305932E+02  0.18393421080E+02  0.41800000000E+01 0.  1.
         -5    1    4    4    0  501 -0.55943354527E+02  0.24934357132E+02 -0.27614944394E+03  0.28289109012E+03  0.41800000000E+01 0.  1.
</event>
<event>
11    1  0.8864208E-009  0.1570697E+03  0.7561462E-02  0.1089866E+00
         22   -1    0    0    0    0  0.00000000000E+00  0.00000000000E+00  0.27266496592E+03  0.27266496592E+03  0.00000000000E+00 0.  1.
         22   -1    0    0    0    0 -0.00000000000E+00 -0.00000000000E+00 -0.60204053002E+03  0.60204053002E+03  0.00000000000E+00 0.  1.
        -24    2    1    2    0    0 -0.53215636921E+02 -0.79898575898E+02 -0.44821369163E+03  0.46533717744E+03  0.80171621541E+02 0.  0.
         25    2    1    2    0    0  0.93074704681E+02  0.42659109732E+02 -0.89099900134E+02  0.18457438373E+03  0.12508481375E+03 0.  0.
         24    2    1    2    0    0 -0.39859067760E+02  0.37239466166E+02  0.20793802767E+03  0.22479393477E+03  0.65715802042E+02 0.  0.
        -13    1    5    5    0    0 -0.49466664396E+02  0.29100210274E+02  0.20350782973E+03  0.21144552463E+03  0.00000000000E+00 0.  1.
         14    1    5    5    0    0  0.96075966366E+01  0.81392558913E+01  0.44301979360E+01  0.13348410143E+02  0.00000000000E+00 0. -1.
         13    1    3    3    0    0  0.17014667347E+02 -0.12975512907E+02 -0.15553532454E+03  0.15700031854E+03  0.00000000000E+00 0. -1.
        -14    1    3    3    0    0 -0.70230304269E+02 -0.66923062991E+02 -0.29267836709E+03  0.30833685890E+03  0.00000000000E+00 0.  1.
          5    1    4    4  501    0  0.35149947739E+02  0.47199916420E+02 -0.10822563997E+03  0.12326237254E+03  0.41800000000E+01 0.  1.
         -5    1    4    4    0  501  0.57924756942E+02 -0.45408066879E+01  0.19125739836E+02  0.61312011193E+02  0.41800000000E+01 0.  1.
</event>
<event>
11    1  0.8864208E-009  0.2413547E+03  0.7561462E-02  0.1028608E+00
         22   -1    0    0    0    0  0.00000000000E+00  0.00000000000E+00  0.90104684665E+03  0.90104684665E+03  0.00000000000E+00 0.  1.
         22   -1    0    0    0    0 -0.00000000000E+00 -0.00000000000E+00 -0.43496751609E+03  0.43496751609E+03  0.00000000000E+00 0.  1.
        -24    2    1    2    0    0  0.41259377931E+02 -0.43837832232E+02 -0.21121982898E+03  0.23362295130E+03  0.79635264908E+02 0.  0.
         25    2    1    2    0    0 -0.23347406156E+03 -0.26525456743E+02 -0.10772373431E+03  0.28716880791E+03  0.12509110291E+03 0.  0.
         24    2    1    2    0    0  0.19221468363E+03  0.70363288975E+02  0.78502289385E+03  0.81522260353E+03  0.80183990902E+02 0.  0.
        -11    1    5    5    0    0  0.80318666510E+02  0.69047850778E+02  0.43692104643E+03  0.44957612781E+03  0.00000000000E+00 0.  1.
         12    1    5    5    0    0  0.11189601712E+03  0.13154381967E+01  0.34810184742E+03  0.36564647571E+03  0.00000000000E+00 0. -1.
         11    1    3    3    0    0  0.88401065889E+01 -0.45585643269E+02 -0.18814872660E+03  0.19379407029E+03  0.00000000000E+00 0. -1.
        -12    1    3    3    0    0  0.32419271342E+02  0.17478110370E+01 -0.23071102383E+02  0.39828881015E+02  0.00000000000E+00 0.  1.
          5    1    4    4  501    0 -0.13181977207E+03 -0.27905959791E+02  0.55320792855E+01  0.13491949897E+03  0.41800000000E+01 0. -1.
         -5    1    4    4    0  501 -0.10165428949E+03  0.13805030478E+01 -0.11325581360E+03  0.15224930894E+03  0.41800000000E+01 0. -1.
</event>
<event>
11    1  0.8864208E-009  0.1579630E+03  0.7561462E-02  0.1089009E+00
         22   -1    0    0    0    0  0.00000000000E+00  0.00000000000E+00  0.98482791792E+02  0.98482791792E+02  0.00000000000E+00 0. -1.
         22   -1    0    0    0    0 -0.00000000000E+00 -0.00000000000E+00 -0.71065962585E+03  0.71065962585E+03  0.00000000000E+00 0.  1.
         24    2    1    2    0    0 -0.56124129137E+02  0.12597586181E+02 -0.46485913752E+03  0.47641146563E+03  0.86978444465E+02 0.  0.
         25    2    1    2    0    0  0.88765417180E+02  0.73591908823E+02 -0.11935681349E+03  0.20781860691E+03  0.12508979223E+03 0.  0.
        -24    2    1    2    0    0 -0.32641288043E+02 -0.86189495004E+02 -0.27960883058E+02  0.12491234511E+03  0.79543700223E+02 0.  0.
        -13    1    3    3    0    0 -0.28079435189E+02 -0.69285640950E+01 -0.41476167681E+03  0.41576881585E+03  0.00000000000E+00 0.  1.
         14    1    3    3    0    0 -0.28044693948E+02  0.19526150276E+02 -0.50097460703E+02  0.60642649778E+02  0.00000000000E+00 0. -1.
         11    1    5    5    0    0 -0.17033941066E+02 -0.68755976590E+02  0.18221275836E+02  0.73140647783E+02  0.00000000000E+00 0. -1.
        -12    1    5    5    0    0 -0.15607346977E+02 -0.17433518414E+02 -0.46182158893E+02  0.51771697326E+02  0.00000000000E+00 0.  1.
          5    1    4    4  501    0  0.11133350033E+03  0.73934219155E+02 -0.64711451275E+02  0.14854784207E+03  0.41800000000E+01 0.  1.
         -5    1    4    4    0  501 -0.22568083146E+02 -0.34231033147E+00 -0.54645362211E+02  0.59270764837E+02  0.41800000000E+01 0.  1.
</event>
<event>
11    1  0.8864208E-009  0.1273925E+03  0.7561462E-02  0.1122515E+00
         22   -1    0    0    0    0  0.00000000000E+00  0.00000000000E+00  0.33839972056E+03  0.33839972056E+03  0.00000000000E+00 0.  1.
         22   -1    0    0    0    0 -0.00000000000E+00 -0.00000000000E+00 -0.10683706150E+04  0.10683706150E+04  0.00000000000E+00 0. -1.
         24    2    1    2    0    0  0.18344463558E+02 -0.16932271642E+02 -0.90629694491E+03  0.91037375003E+03  0.82358917144E+02 0.  0.
         25    2    1    2    0    0  0.68236929599E+00  0.19838668298E+02 -0.12887151341E+03  0.18069114700E+03  0.12508950893E+03 0.  0.
        -24    2    1    2    0    0 -0.19026832854E+02 -0.29063966560E+01  0.30519756390E+03  0.31570543851E+03  0.78446818811E+02 0.  0.
        -13    1    3    3    0    0 -0.18251560405E+02  0.61090459013E+01 -0.60846230825E+02  0.63817738166E+02  0.00000000000E+00 0.  1.
         14    1    3    3    0    0  0.36596023963E+02 -0.23041317543E+02 -0.84545071408E+03  0.84655601187E+03  0.00000000000E+00 0. -1.
         13    1    5    5    0    0 -0.26479683246E+02 -0.27317000542E+01  0.28841322266E+02  0.39248664691E+02  0.00000000000E+00 0. -1.
        -14    1    5    5    0    0  0.74528503917E+01 -0.17469660179E+00  0.27635624164E+03  0.27645677382E+03  0.00000000000E+00 0.  1.
          5    1    4    4  501    0 -0.33161648360E+01  0.24963219106E+02 -0.15312398138E+03  0.15523719055E+03  0.41800000000E+01 0. -1.
         -5    1    4    4    0  501  0.39985341320E+01 -0.51245508077E+01  0.24252467965E+02  0.25453956443E+02  0.41800000000E+01 0. -1.
</event>
<event>
11    1  0.1134344E-008  0.1643086E+03  0.7561462E-02  0.1083094E+00
         22   -1    0    0    0    0  0.00000000000E+00  0.00000000000E+00  0.22848124676E+04  0.22848124676E+04  0.00000000000E+00 0. -1.
         22   -1    0    0    0    0 -0.00000000000E+00 -0.00000000000E+00 -0.26905620956E+03  0.26905620956E+03  0.00000000000E+00 0. -1.
        -24    2    1    2    0    0 -0.33991085983E+02 -0.96003298107E+01 -0.14091369919E+03  0.16631722661E+03  0.80976471833E+02 0.  0.
         25    2    1    2    0    0  0.13507662801E+03 -0.22322939606E+02 -0.37571475257E+02  0.18922019585E+03  0.12509459500E+03 0.  0.
         24    2    1    2    0    0 -0.10108554203E+03  0.31923269417E+02  0.21942414325E+04  0.21983312547E+04  0.82021090992E+02 0.  0.
        -13    1    5    5    0    0 -0.14870954233E+02  0.38291885529E+01  0.53235803201E+02  0.55406305663E+02  0.00000000000E+00 0.  1.
         14    1    5    5    0    0 -0.86214587799E+02  0.28094080864E+02  0.21410056293E+04  0.21429249490E+04  0.00000000000E+00 0. -1.
         13    1    3    3    0    0 -0.17138541270E+02  0.33458990516E+02 -0.90022522063E+02  0.97556589331E+02  0.00000000000E+00 0. -1.
        -14    1    3    3    0    0 -0.16852544713E+02 -0.43059320327E+02 -0.50891177127E+02  0.68760637284E+02  0.00000000000E+00 0.  1.
          5    1    4    4  501    0  0.47657828411E+02  0.48279121177E+02  0.68618526047E+01  0.68313245946E+02  0.41800000000E+01 0.  1.
         -5    1    4    4    0  501  0.87418799603E+02 -0.70602060783E+02 -0.44433327862E+02  0.12090694991E+03  0.41800000000E+01 0.  1.
</event>
<event>
11    1  0.8864208E-009  0.1400156E+03  0.7561462E-02  0.1107541E+00
         22   -1    0    0    0    0  0.00000000000E+00  0.00000000000E+00  0.12875046522E+04  0.12875046522E+04  0.00000000000E+00 0.  1.
         22   -1    0    0    0    0 -0.00000000000E+00 -0.00000000000E+00 -0.13637175889E+03  0.13637175889E+03  0.00000000000E+00 0. -1.
         24    2    1    2    0    0 -0.49167196068E+02  0.34141340748E+02 -0.55136263583E+02  0.11600714878E+03  0.82671680088E+02 0.  0.
         25    2    1    2    0    0  0.31114312234E+02 -0.79568937753E+02  0.68649069466E+02  0.16631051015E+03  0.12508866762E+03 0.  0.
        -24    2    1    2    0    0  0.18052883833E+02  0.45427597004E+02  0.11376200875E+04  0.11415587522E+04  0.81162479679E+02 0.  0.
        -11    1    3    3    0    0 -0.48876228243E+02 -0.15862630134E+02 -0.21273631108E+02  0.55615430436E+02  0.00000000000E+00 0.  1.
         12    1    3    3    0    0 -0.29096782466E+00  0.50003970882E+02 -0.33862632475E+02  0.60391718343E+02  0.00000000000E+00 0. -1.
         11    1    5    5    0    0 -0.18869649196E+02 -0.12755362686E+02  0.17510341852E+03  0.17657850978E+03  0.00000000000E+00 0. -1.
        -12    1    5    5    0    0  0.36922533029E+02  0.58182959691E+02  0.96251666895E+03  0.96498024241E+03  0.00000000000E+00 0.  1.
          5    1    4    4  501    0 -0.19258988484E+02 -0.57531998886E+02 -0.18161479143E+02  0.63467718234E+02  0.41800000000E+01 0.  1.
         -5    1    4    4    0  501  0.50373300718E+02 -0.22036938867E+02  0.86810548609E+02  0.10284279192E+03  0.41800000000E+01 0.  1.
</event>
<event>
11    1  0.8864208E-009  0.1356671E+03  0.7561462E-02  0.1112496E+00
         22   -1    0    0    0    0  0.00000000000E+00  0.00000000000E+00  0.65206944892E+03  0.65206944892E+03  0.00000000000E+00 0. -1.
         22   -1    0    0    0    0 -0.00000000000E+00 -0.00000000000E+00 -0.91106366560E+03  0.91106366560E+03  0.00000000000E+00 0.  1.
        -24    2    1    2    0    0  0.52434711660E+02 -0.19221920431E+02 -0.81909204009E+03  0.82499565027E+03  0.81161392393E+02 0.  0.
         25    2    1    2    0    0  0.30039589938E+01  0.88884163091E+01 -0.38788879907E+02  0.13130278822E+03  0.12509123581E+03 0.  0.
         24    2    1    2    0    0 -0.55438670654E+02  0.10333504122E+02  0.59888670331E+03  0.60683467603E+03  0.80017580058E+02 0.  0.
        -11    1    5    5    0    0 -0.13140129542E+02  0.40493914042E+02  0.19317823485E+03  0.19781367622E+03  0.00000000000E+00 0.  1.
         12    1    5    5    0    0 -0.42298541112E+02 -0.30160409921E+02  0.40570846846E+03  0.40902099981E+03  0.00000000000E+00 0. -1.
         13    1    3    3    0    0 -0.19198766603E+02 -0.13038816601E+02 -0.30769297108E+03  0.30856695842E+03  0.00000000000E+00 0. -1.
        -14    1    3    3    0    0  0.71633478263E+02 -0.61831038298E+01 -0.51139906901E+03  0.51642869185E+03  0.00000000000E+00 0.  1.
          5    1    4    4  501    0 -0.30369714717E+02  0.18784063665E+02  0.34644822295E+02  0.49928916788E+02  0.41800000000E+01 0. -1.
         -5    1    4    4    0  501  0.33373673710E+02 -0.98956473556E+01 -0.73433702202E+02  0.81373871437E+02  0.41800000000E+01 0. -1.
</event>
<event>
11    1  0.8864208E-009  0.1442650E+03  0.7561462E-02  0.1102887E+00
         22   -1    0    0    0    0  0.00000000000E+00  0.00000000000E+00  0.27673071148E+03  0.27673071148E+03  0.00000000000E+00 0.  1.
         22   -1    0    0    0    0 -0.00000000000E+00 -0.00000000000E+00 -0.24844036845E+03  0.24844036845E+03  0.00000000000E+00 0.  1.
        -24    2    1    2    0    0 -0.49008396028E+02  0.58977882727E+02 -0.17363296870E+03  0.20581951436E+03  0.79580469585E+02 0.  0.
         25    2    1    2    0    0  0.16239033965E+02 -0.42866595855E+02  0.47741138049E+02  0.14151867524E+03  0.12508824052E+03 0.  0.
         24    2    1    2    0    0  0.32769362063E+02 -0.16111286872E+02  0.15418217368E+03  0.17783289033E+03  0.80740259777E+02 0.  0.
        -13    1    5    5    0    0  0.51836042396E+01 -0.56625531694E+01  0.14735500144E+03  0.14755483968E+03  0.00000000000E+00 0.  1.
         14    1    5    5    0    0  0.27585757824E+02 -0.10448733703E+02  0.68271722324E+01  0.30278050654E+02  0.00000000000E+00 0. -1.
         13    1    3    3    0    0 -0.51449916672E+02  0.21235188924E+02 -0.44500880652E+02  0.71262581717E+02  0.00000000000E+00 0. -1.
        -14    1    3    3    0    0  0.24415206434E+01  0.37742693803E+02 -0.12913208804E+03  0.13455693264E+03  0.00000000000E+00 0.  1.
          5    1    4    4  501    0  0.64721227358E+02 -0.42766949122E+02  0.69072659842E+01  0.77993794185E+02  0.41800000000E+01 0. -1.
         -5    1    4    4    0  501 -0.48482193393E+02 -0.99646732765E-01  0.40833872065E+02  0.63524881058E+02  0.41800000000E+01 0. -1.
</event>
<event>
11    1  0.8864208E-009  0.1366424E+03  0.7561462E-02  0.1111367E+00
         22   -1    0    0    0    0  0.00000000000E+00  0.00000000000E+00  0.23621371492E+03  0.23621371492E+03  0.00000000000E+00 0. -1.
         22   -1    0    0    0    0 -0.00000000000E+00 -0.00000000000E+00 -0.11842791571E+04  0.11842791571E+04  0.00000000000E+00 0.  1.
        -24    2    1    2    0    0  0.16475918556E+02 -0.51785821744E+02 -0.10595001930E+04  0.10637816655E+04  0.78342488644E+02 0.  0.
         25    2    1    2    0    0 -0.45203834368E+02  0.57544943066E+02 -0.67075742740E+02  0.15969354539E+03  0.12509223023E+03 0.  0.
         24    2    1    2    0    0  0.28727915811E+02 -0.57591213221E+01  0.17851049358E+03  0.19701766116E+03  0.78048074075E+02 0.  0.
        -13    1    5    5    0    0 -0.11578889115E+02 -0.13200969388E+02  0.43381655016E+01  0.18087452718E+02  0.00000000000E+00 0.  1.
         14    1    5    5    0    0  0.40306804927E+02  0.74418480655E+01  0.17417232808E+03  0.17893020844E+03  0.00000000000E+00 0. -1.
         11    1    3    3    0    0  0.25022833053E+02  0.13948995721E+02 -0.27628540710E+03  0.27776670576E+03  0.00000000000E+00 0. -1.
        -12    1    3    3    0    0 -0.85469144962E+01 -0.65734817465E+02 -0.78321478593E+03  0.78601495970E+03  0.00000000000E+00 0.  1.
          5    1    4    4  501    0 -0.65971892246E+02  0.82105034145E+02 -0.28300819917E+02  0.10914181603E+03  0.41800000000E+01 0. -1.
         -5    1    4    4    0  501  0.20768057878E+02 -0.24560091079E+02 -0.38774922823E+02  0.50551729364E+02  0.41800000000E+01 0. -1.
</event>
<event>
11    1  0.8864208E-009  0.2021975E+03  0.7561462E-02  0.1052980E+00
         22   -1    0    0    0    0  0.00000000000E+00  0.00000000000E+00  0.36091087754E+03  0.36091087754E+03  0.00000000000E+00 0.  1.
         22   -1    0    0    0    0 -0.00000000000E+00 -0.00000000000E+00 -0.21112141981E+04  0.21112141981E+04  0.00000000000E+00 0.  1.
         24    2    1    2    0    0 -0.49881582624E+02 -0.14447580288E+03 -0.14673916982E+04  0.14774573199E+04  0.79248383985E+02 0.  0.
         25    2    1    2    0    0  0.21218143521E+02  0.18477137857E+03 -0.61208589616E+03  0.65183390832E+03  0.12509047846E+03 0.  0.
        -24    2    1    2    0    0  0.28663439103E+02 -0.40295575691E+02  0.32917427376E+03  0.34283384744E+03  0.82061064370E+02 0.  0.
        -11    1    3    3    0    0  0.15567650136E+02 -0.66399397831E+02 -0.70438965510E+03  0.70768355780E+03  0.00000000000E+00 0.  1.
         12    1    3    3    0    0 -0.65449232759E+02 -0.78076405050E+02 -0.76300204307E+03  0.76977376210E+03  0.00000000000E+00 0. -1.
         13    1    5    5    0    0  0.79039010752E+01 -0.19190467125E+02  0.11391471775E+02  0.23675120060E+02  0.00000000000E+00 0. -1.
        -14    1    5    5    0    0  0.20759538028E+02 -0.21105108566E+02  0.31778280198E+03  0.31915872738E+03  0.00000000000E+00 0.  1.
          5    1    4    4  501    0  0.12356545516E+02  0.75933622445E+02 -0.44873396816E+03  0.45530017112E+03  0.41800000000E+01 0.  1.
         -5    1    4    4    0  501  0.88615980048E+01  0.10883775613E+03 -0.16335192799E+03  0.19653373720E+03  0.41800000000E+01 0.  1.
</event>
<event>
11    1  0.8864208E-009  0.1349323E+03  0.7561462E-02  0.1113353E+00
         22   -1    0    0    0    0  0.00000000000E+00  0.00000000000E+00  0.11362801235E+04  0.11362801235E+04  0.00000000000E+00 0. -1.
         22   -1    0    0    0    0 -0.00000000000E+00 -0.00000000000E+00 -0.58967352724E+03  0.58967352724E+03  0.00000000000E+00 0. -1.
         24    2    1    2    0    0  0.10717302241E+02  0.49258498068E+02 -0.56793914526E+03  0.57560996193E+03  0.78934753769E+02 0.  0.
         25    2    1    2    0    0  0.27564636151E+02 -0.75046192209E+02  0.34703016488E+03  0.37745051665E+03  0.12508883664E+03 0.  0.
        -24    2    1    2    0    0 -0.38281938392E+02  0.25787694141E+02  0.76751557663E+03  0.77289317215E+03  0.78442228518E+02 0.  0.
        -11    1    3    3    0    0 -0.34387410457E+01 -0.13579006595E+02 -0.23383500055E+02  0.27258071005E+02  0.00000000000E+00 0.  1.
         12    1    3    3    0    0  0.14156043287E+02  0.62837504664E+02 -0.54455564521E+03  0.54835189093E+03  0.00000000000E+00 0. -1.
         11    1    5    5    0    0 -0.52740329710E+02  0.28724693824E+02  0.73166386329E+03  0.73412441674E+03  0.00000000000E+00 0. -1.
        -12    1    5    5    0    0  0.14458391318E+02 -0.29369996833E+01  0.35851713339E+02  0.38768755410E+02  0.00000000000E+00 0.  1.
          5    1    4    4  501    0  0.19359685580E+02  0.28308643668E+02  0.15879342347E+03  0.16250846277E+03  0.41800000000E+01 0. -1.
         -5    1    4    4    0  501  0.82049505711E+01 -0.10335483588E+03  0.18823674141E+03  0.21494205389E+03  0.41800000000E+01 0. -1.
</event>
<event>
11    1  0.9764401E-009  0.1618910E+03  0.7561462E-02  0.1085312E+00
         22   -1    0    0    0    0  0.00000000000E+00  0.00000000000E+00  0.69143618981E+03  0.69143618981E+03  0.00000000000E+00 0.  1.
         22   -1    0    0    0    0 -0.00000000000E+00 -0.00000000000E+00 -0.45399545902E+03  0.45399545902E+03  0.00000000000E+00 0.  1.
         24    2    1    2    0    0 -0.53760854170E+02 -0.62095792574E+01 -0.23158713573E+03  0.25143979147E+03  0.81612370265E+02 0.  0.
         25    2    1    2    0    0  0.14665332775E+03 -0.34416151408E+02 -0.15977444139E+03  0.25272122404E+03  0.12509386452E+03 0.  0.
        -24    2    1    2    0    0 -0.92892473580E+02  0.40625730665E+02  0.62880230791E+03  0.64127063332E+03  0.74540063654E+02 0.  0.
        -11    1    3    3    0    0 -0.21792431029E+02 -0.20177014773E+02 -0.20611523544E+03  0.20824387687E+03  0.00000000000E+00 0.  1.
         12    1    3    3    0    0 -0.31968423141E+02  0.13967435516E+02 -0.25471900296E+02  0.43195914595E+02  0.00000000000E+00 0. -1.
         11    1    5    5    0    0 -0.13629073014E+02 -0.15909335543E+02  0.48109653653E+02  0.52472824998E+02  0.00000000000E+00 0. -1.
        -12    1    5    5    0    0 -0.79263400565E+02  0.56535066208E+02  0.58069265425E+03  0.58879780832E+03  0.00000000000E+00 0.  1.
          5    1    4    4  501    0 -0.21559585978E+02 -0.14115079945E+02 -0.17419584368E+02  0.31384160797E+02  0.41800000000E+01 0. -1.
         -5    1    4    4    0  501  0.16821291373E+03 -0.20301071463E+02 -0.14235485702E+03  0.22133706324E+03  0.41800000000E+01 0. -1.
</event>
<event>
11    1  0.8864208E-009  0.6516675E+03  0.7561462E-02  0.9106727E-01
         22   -1    0    0    0    0  0.00000000000E+00  0.00000000000E+00  0.64687773520E+03  0.64687773520E+03  0.00000000000E+00 0.  1.
         22   -1    0    0    0    0 -0.00000000000E+00 -0.00000000000E+00 -0.28926068775E+04  0.28926068775E+04  0.00000000000E+00 0. -1.
         24    2    1    2    0    0  0.15924204161E+03  0.16301680415E+03 -0.10423810955E+04  0.10700228252E+04  0.80361631612E+02 0.  0.
         25    2    1    2    0    0 -0.48692019982E+03 -0.68598488087E+03 -0.15423315653E+04  0.17612779870E+04  0.12508777873E+03 0.  0.
        -24    2    1    2    0    0  0.32767815821E+03  0.52296807671E+03  0.33898351853E+03  0.70818380051E+03  0.75801615020E+02 0.  0.
        -13    1    3    3    0    0 -0.88920013149E+01  0.14887883176E+02 -0.87547064857E+02  0.89247998958E+02  0.00000000000E+00 0.  1.
         14    1    3    3    0    0  0.16813404293E+03  0.14812892097E+03 -0.95483403067E+03  0.98077482622E+03  0.00000000000E+00 0. -1.
         13    1    5    5    0    0  0.14614928730E+03  0.20813928812E+03  0.10025830801E+03  0.27337393029E+03  0.00000000000E+00 0. -1.
        -14    1    5    5    0    0  0.18152887091E+03  0.31482878860E+03  0.23872521053E+03  0.43480987022E+03  0.00000000000E+00 0.  1.
          5    1    4    4  501    0 -0.13799435148E+03 -0.12850755731E+03 -0.27515554404E+03  0.33359358378E+03  0.41800000000E+01 0. -1.
         -5    1    4    4    0  501 -0.34892584834E+03 -0.55747732355E+03 -0.12671760212E+04  0.14276844032E+04  0.41800000000E+01 0. -1.
</event>
<event>
11    1  0.8864208E-009  0.1296193E+03  0.7561462E-02  0.1119738E+00
         22   -1    0    0    0    0  0.00000000000E+00  0.00000000000E+00  0.37845267208E+03  0.37845267208E+03  0.00000000000E+00 0.  1.
         22   -1    0    0    0    0 -0.00000000000E+00 -0.00000000000E+00 -0.66673798642E+03  0.66673798642E+03  0.00000000000E+00 0. -1.
         24    2    1    2    0    0 -0.79282219443E+01 -0.34920440900E+02 -0.45045934560E+03  0.45944401416E+03  0.83023407667E+02 0.  0.
         25    2    1    2    0    0 -0.42937650886E+02  0.29176393414E+02 -0.18414873956E+03  0.22859029562E+03  0.12509141127E+03 0.  0.
        -24    2    1    2    0    0  0.50865872830E+02  0.57440474858E+01  0.34632277081E+03  0.35715634872E+03  0.70716792518E+02 0.  0.
        -11    1    3    3    0    0 -0.11585738071E+02  0.24920349591E+02 -0.92401812640E+02  0.96402013099E+02  0.00000000000E+00 0.  1.
         12    1    3    3    0    0  0.36575161271E+01 -0.59840790491E+02 -0.35805753296E+03  0.36304200107E+03  0.00000000000E+00 0. -1.
         11    1    5    5    0    0 -0.62128054741E+01  0.17482416853E+02  0.17934887115E+03  0.18030599389E+03  0.00000000000E+00 0. -1.
        -12    1    5    5    0    0  0.57078678304E+02 -0.11738369368E+02  0.16697389967E+03  0.17685035483E+03  0.00000000000E+00 0.  1.
          5    1    4    4  501    0 -0.19541638208E+02  0.72550481717E+02 -0.15198059004E+03  0.16959074317E+03  0.41800000000E+01 0.  1.
         -5    1    4    4    0  501 -0.23396012678E+02 -0.43374088302E+02 -0.32168149517E+02  0.58999552445E+02  0.41800000000E+01 0.  1.
</event>
<event>
11    1  0.8864208E-009  0.1380736E+03  0.7561462E-02  0.1109729E+00
         22   -1    0    0    0    0  0.00000000000E+00  0.00000000000E+00  0.93222758452E+02  0.93222758452E+02  0.00000000000E+00 0.  1.
         22   -1    0    0    0    0 -0.00000000000E+00 -0.00000000000E+00 -0.19467824374E+04  0.19467824374E+04  0.00000000000E+00 0. -1.
         24    2    1    2    0    0  0.20356978908E+02  0.19724849053E+02 -0.17078215031E+04  0.17101765969E+04  0.85124790874E+02 0.  0.
         25    2    1    2    0    0 -0.22780165421E+02  0.41439406641E+02 -0.17902235538E+03  0.22347073879E+03  0.12511597424E+03 0.  0.
        -24    2    1    2    0    0  0.24231865133E+01 -0.61164255694E+02  0.33284179485E+02  0.10635786017E+03  0.80356828009E+02 0.  0.
        -11    1    3    3    0    0  0.19586867060E+02  0.52965057754E+02 -0.10727763139E+04  0.10742615893E+04  0.00000000000E+00 0.  1.
         12    1    3    3    0    0  0.77011184837E+00 -0.33240208701E+02 -0.63504518924E+03  0.63591500763E+03  0.00000000000E+00 0. -1.
         13    1    5    5    0    0 -0.25442547469E+02  0.11809787571E+01 -0.78309692330E+01  0.26646613512E+02  0.00000000000E+00 0. -1.
        -14    1    5    5    0    0  0.27865733982E+02 -0.62345234451E+02  0.41115148718E+02  0.79711246654E+02  0.00000000000E+00 0.  1.
          5    1    4    4  501    0  0.31352296573E+01 -0.39047457523E+02 -0.10072498139E+03  0.10815511028E+03  0.41800000000E+01 0. -1.
         -5    1    4    4    0  501 -0.25915395079E+02  0.80486864164E+02 -0.78297373996E+02  0.11531562851E+03  0.41800000000E+01 0. -1.
</event>
<event>
11    1  0.8864208E-009  0.1648959E+03  0.7561462E-02  0.1082561E+00
         22   -1    0    0    0    0  0.00000000000E+00  0.00000000000E+00  0.47273113626E+03  0.47273113626E+03  0.00000000000E+00 0. -1.
         22   -1    0    0    0    0 -0.00000000000E+00 -0.00000000000E+00 -0.15395225399E+04  0.15395225399E+04  0.00000000000E+00 0.  1.
         24    2    1    2    0    0 -0.80360206296E+02  0.74220143835E+02 -0.13091149855E+04  0.13159800464E+04  0.77814167368E+02 0.  0.
         25    2    1    2    0    0  0.60409464662E+02 -0.70158597991E+02 -0.19601267086E+03  0.25027849573E+03  0.12508727352E+03 0.  0.
        -24    2    1    2    0    0  0.19950741634E+02 -0.40615458441E+01  0.43833625272E+03  0.44599513406E+03  0.79739958012E+02 0.  0.
        -11    1    3    3    0    0 -0.81866479111E+02  0.83923426551E+02 -0.12776643488E+04  0.12830321314E+04  0.00000000000E+00 0.  1.
         12    1    3    3    0    0  0.15062728147E+01 -0.97032827165E+01 -0.31450636666E+02  0.32947914956E+02  0.00000000000E+00 0. -1.
         11    1    5    5    0    0  0.39303760500E+02  0.14056944008E+02  0.37525593403E+03  0.37757038984E+03  0.00000000000E+00 0. -1.
        -12    1    5    5    0    0 -0.19353018865E+02 -0.18118489852E+02  0.63080318696E+02  0.68424744212E+02  0.00000000000E+00 0.  1.
          5    1    4    4  501    0 -0.33243484498E+02 -0.43333284160E+02 -0.96460586349E+02  0.11092799420E+03  0.41800000000E+01 0. -1.
         -5    1    4    4    0  501  0.93652949160E+02 -0.26825313830E+02 -0.99552084512E+02  0.13935050154E+03  0.41800000000E+01 0. -1.
</event>
<event>
11    1  0.8864208E-009  0.1565948E+03  0.7561462E-02  0.1090324E+00
         22   -1    0    0    0    0  0.00000000000E+00  0.00000000000E+00  0.14345470537E+04  0.14345470537E+04  0.00000000000E+00 0.  1.
         22   -1    0    0    0    0 -0.00000000000E+00 -0.00000000000E+00 -0.23829098380E+03  0.23829098380E+03  0.00000000000E+00 0. -1.
         24    2    1    2    0    0 -0.75751343814E+02 -0.51709659788E+02 -0.19301480291E+03  0.22817599113E+03  0.79983834484E+02 0.  0.
         25    2    1    2    0    0  0.99384494329E+02  0.12977620041E+03  0.41048071332E+03  0.45919541095E+03  0.12508744749E+03 0.  0.
        -24    2    1    2    0    0 -0.23633150515E+02 -0.78066540623E+02  0.97879015947E+03  0.98546663541E+03  0.80382850577E+02 0.  0.
        -13    1    3    3    0    0 -0.48573060902E+02 -0.61647925963E+02 -0.82226369227E+02  0.11367050988E+03  0.00000000000E+00 0.  1.
         14    1    3    3    0    0 -0.27178282913E+02  0.99382661745E+01 -0.11078843368E+03  0.11450548124E+03  0.00000000000E+00 0. -1.
         13    1    5    5    0    0 -0.66764591504E+01 -0.59678503982E+02  0.28654701010E+03  0.29277173351E+03  0.00000000000E+00 0. -1.
        -14    1    5    5    0    0 -0.16956691364E+02 -0.18388036641E+02  0.69224314937E+03  0.69269490190E+03  0.00000000000E+00 0.  1.
          5    1    4    4  501    0  0.12605617915E+03  0.10424343174E+03  0.36810939476E+03  0.40283849404E+03  0.41800000000E+01 0. -1.
         -5    1    4    4    0  501 -0.26671684824E+02  0.25532768670E+02  0.42371318559E+02  0.56356916911E+02  0.41800000000E+01 0. -1.
</event>
<event>
11    1  0.8864208E-009  0.1834172E+03  0.7561462E-02  0.1066912E+00
         22   -1    0    0    0    0  0.00000000000E+00  0.00000000000E+00  0.19818010847E+03  0.19818010847E+03  0.00000000000E+00 0. -1.
         22   -1    0    0    0    0 -0.00000000000E+00 -0.00000000000E+00 -0.42415660403E+04  0.42415660403E+04  0.00000000000E+00 0. -1.
         24    2    1    2    0    0 -0.12934540502E+03  0.32737408076E+02 -0.39931093506E+04  0.39961289644E+04  0.79513789526E+02 0.  0.
         25    2    1    2    0    0  0.14668516378E+03 -0.48575569451E+02 -0.19378837032E+03  0.27762798867E+03  0.12508894595E+03 0.  0.
        -24    2    1    2    0    0 -0.17339758763E+02  0.15838161375E+02  0.14351178908E+03  0.16598919570E+03  0.80032898837E+02 0.  0.
        -11    1    3    3    0    0 -0.43551716629E+02  0.15043375547E+02 -0.55679453714E+03  0.55869778213E+03  0.00000000000E+00 0.  1.
         12    1    3    3    0    0 -0.85793688390E+02  0.17694032529E+02 -0.34363148134E+04  0.34374311823E+04  0.00000000000E+00 0. -1.
         13    1    5    5    0    0 -0.23815767731E+01  0.10363094688E+01  0.14487781425E+03  0.14490109353E+03  0.00000000000E+00 0. -1.
        -14    1    5    5    0    0 -0.14958181990E+02  0.14801851906E+02 -0.13660251739E+01  0.21088102169E+02  0.00000000000E+00 0.  1.
          5    1    4    4  501    0  0.13566463980E+03 -0.10199367991E+02 -0.82127340093E+02  0.15896947503E+03  0.41800000000E+01 0.  1.
         -5    1    4    4    0  501  0.11020523980E+02 -0.38376201461E+02 -0.11166103023E+03  0.11865851364E+03  0.41800000000E+01 0.  1.
</event>
<event>
11    1  0.8864208E-009  0.1441809E+03  0.7561462E-02  0.1102978E+00
         22   -1    0    0    0    0  0.00000000000E+00  0.00000000000E+00  0.45439097433E+03  0.45439097433E+03  0.00000000000E+00 0.  1.
         22   -1    0    0    0    0 -0.00000000000E+00 -0.00000000000E+00 -0.54571804971E+03  0.54571804971E+03  0.00000000000E+00 0.  1.
         24    2    1    2    0    0 -0.12142010483E+02  0.59248628790E+02 -0.47695598377E+03  0.48754141638E+03  0.80943151623E+02 0.  0.
         25    2    1    2    0    0  0.72246340099E+02 -0.87640395596E+02  0.75246509488E+02  0.18495930308E+03  0.12509010356E+03 0.  0.
        -24    2    1    2    0    0 -0.60104329617E+02  0.28391766806E+02  0.31038239891E+03  0.32760830458E+03  0.81063831724E+02 0.  0.
        -13    1    3    3    0    0  0.42556197828E+01  0.62673474406E+02 -0.45781856496E+03  0.46210811843E+03  0.00000000000E+00 0.  1.
         14    1    3    3    0    0 -0.16397630265E+02 -0.34248456161E+01 -0.19137418811E+02  0.25433297949E+02  0.00000000000E+00 0. -1.
         11    1    5    5    0    0 -0.14628666763E+01 -0.25189923855E+02  0.82974508618E+02  0.86726243566E+02  0.00000000000E+00 0. -1.
        -12    1    5    5    0    0 -0.58641462941E+02  0.53581690661E+02  0.22740789030E+03  0.24088206102E+03  0.00000000000E+00 0.  1.
          5    1    4    4  501    0  0.45048739605E+02 -0.75112653446E+02  0.10883754333E+03  0.13976545670E+03  0.41800000000E+01 0. -1.
         -5    1    4    4    0  501  0.27197600495E+02 -0.12527742151E+02 -0.33591033844E+02  0.45193846382E+02  0.41800000000E+01 0. -1.
</event>
<event>
11    1  0.8864208E-009  0.2042709E+03  0.7561462E-02  0.1051544E+00
         22   -1    0    0    0    0  0.00000000000E+00  0.00000000000E+00  0.68322273311E+03  0.68322273311E+03  0.00000000000E+00 0.  1.
         22   -1    0    0    0    0 -0.00000000000E+00 -0.00000000000E+00 -0.12930054766E+04  0.12930054766E+04  0.00000000000E+00 0. -1.
        -24    2    1    2    0    0  0.10323096005E+02 -0.62178311437E+01 -0.11627930839E+04  0.11656860756E+04  0.81185240712E+02 0.  0.
         25    2    1    2    0    0 -0.16300940691E+03  0.54818917545E+02 -0.16760989937E+02  0.21332489571E+03  0.12509756146E+03 0.  0.
         24    2    1    2    0    0  0.15268631090E+03 -0.48601086401E+02  0.56977133035E+03  0.59721723833E+03  0.79711264793E+02 0.  0.
        -11    1    5    5    0    0  0.49682457285E+02 -0.19986394223E+00  0.30503288682E+03  0.30905250128E+03  0.00000000000E+00 0.  1.
         12    1    5    5    0    0  0.10300385362E+03 -0.48401222459E+02  0.26473844353E+03  0.28816473705E+03  0.00000000000E+00 0. -1.
         13    1    3    3    0    0  0.37077707847E+02  0.11771078274E+02 -0.91199248910E+03  0.91282178703E+03  0.00000000000E+00 0. -1.
        -14    1    3    3    0    0 -0.26754611842E+02 -0.17988909418E+02 -0.25080059476E+03  0.25286428859E+03  0.00000000000E+00 0.  1.
          5    1    4    4  501    0 -0.10410663683E+03  0.40716227626E+02 -0.70516748068E+02  0.13223496959E+03  0.41800000000E+01 0.  1.
         -5    1    4    4    0  501 -0.58902770074E+02  0.14102689919E+02  0.53755758131E+02  0.81089926116E+02  0.41800000000E+01 0.  1.
</event>
<event>
11    1  0.8864208E-009  0.1632805E+03  0.7561462E-02  0.1084032E+00
         22   -1    0    0    0    0  0.00000000000E+00  0.00000000000E+00  0.25038751097E+04  0.25038751097E+04  0.00000000000E+00 0.  1.
         22   -1    0    0    0    0 -0.00000000000E+00 -0.00000000000E+00 -0.80887327470E+03  0.80887327470E+03  0.00000000000E+00 0.  1.
        -24    2    1    2    0    0  0.52575247737E+01  0.44033240982E+02 -0.71498048350E+03  0.72088705556E+03  0.80712373358E+02 0.  0.
         25    2    1    2    0    0 -0.65780411691E+01 -0.14808844376E+03  0.16361032808E+02  0.19465558238E+03  0.12509857935E+03 0.  0.
         24    2    1    2    0    0  0.13205163954E+01  0.10405520278E+03  0.23936212857E+04  0.23972057465E+04  0.79644853003E+02 0.  0.
        -13    1    5    5    0    0 -0.25791230860E+01  0.26024889673E+02  0.14854197033E+04  0.14856499055E+04  0.00000000000E+00 0.  1.
         14    1    5    5    0    0  0.38996394814E+01  0.78030313105E+02  0.90820158240E+03  0.91155584099E+03  0.00000000000E+00 0. -1.
         11    1    3    3    0    0 -0.14691881026E+02 -0.12998102940E+02 -0.59990676771E+02  0.63116426924E+02  0.00000000000E+00 0. -1.
        -12    1    3    3    0    0  0.19949405799E+02  0.57031343922E+02 -0.65498980672E+03  0.65777062863E+03  0.00000000000E+00 0.  1.
          5    1    4    4  501    0  0.37617897237E+02 -0.41162599068E+02  0.49018831625E+02  0.74362517497E+02  0.41800000000E+01 0.  1.
         -5    1    4    4    0  501 -0.44195938406E+02 -0.10692584469E+03 -0.32657798817E+02  0.12029306488E+03  0.41800000000E+01 0.  1.
</event>
<event>
11    1  0.8864208E-009  0.1458268E+03  0.7561462E-02  0.1101221E+00
         22   -1    0    0    0    0  0.00000000000E+00  0.00000000000E+00  0.12423194759E+04  0.12423194759E+04  0.00000000000E+00 0.  1.
         22   -1    0    0    0    0 -0.00000000000E+00 -0.00000000000E+00 -0.13642532370E+04  0.13642532370E+04  0.00000000000E+00 0. -1.
         24    2    1    2    0    0  0.71832662188E+02 -0.19017447512E+02 -0.12802106844E+04  0.12848650414E+04  0.80107324571E+02 0.  0.
         25    2    1    2    0    0 -0.11088753863E+03 -0.41228662902E+02  0.14380435991E+02  0.17280897375E+03  0.12514110276E+03 0.  0.
        -24    2    1    2    0    0  0.39054876441E+02  0.60246110414E+02  0.11438964874E+04  0.11488986978E+04  0.79461730831E+02 0.  0.
        -13    1    3    3    0    0 -0.78055448767E+01  0.12489871313E+02 -0.65345247169E+02  0.66984511223E+02  0.00000000000E+00 0.  1.
         14    1    3    3    0    0  0.79638207065E+02 -0.31507318825E+02 -0.12148654373E+04  0.12178805302E+04  0.00000000000E+00 0. -1.
         13    1    5    5    0    0 -0.50734157357E+01  0.33525669490E+02  0.15536250266E+03  0.15901955004E+03  0.00000000000E+00 0. -1.
        -14    1    5    5    0    0  0.44128292177E+02  0.26720440924E+02  0.98853398472E+03  0.98987914772E+03  0.00000000000E+00 0.  1.
          5    1    4    4  501    0 -0.34814741381E+01 -0.47286180848E+02  0.39966728952E+02  0.62152356226E+02  0.41800000000E+01 0.  1.
         -5    1    4    4    0  501 -0.10740606449E+03  0.60575179456E+01 -0.25586292962E+02  0.11065661752E+03  0.41800000000E+01 0.  1.
</event>
<event>
11    1  0.8864208E-009  0.1658260E+03  0.7561462E-02  0.1081722E+00
         22   -1    0    0    0    0  0.00000000000E+00  0.00000000000E+00  0.16310326787E+04  0.16310326787E+04  0.00000000000E+00 0.  1.
         22   -1    0    0    0    0 -0.00000000000E+00 -0.00000000000E+00 -0.27168446638E+03  0.27168446638E+03  0.00000000000E+00 0.  1.
        -24    2    1    2    0    0  0.43289903535E+02 -0.85183621016E+02 -0.14559115832E+03  0.19408559955E+03  0.85686460624E+02 0.  0.
         25    2    1    2    0    0 -0.77395971489E+02  0.15157133412E+03  0.11797628896E+02  0.21154046569E+03  0.12508468669E+03 0.  0.
         24    2    1    2    0    0  0.34106067954E+02 -0.66387713105E+02  0.14931417417E+04  0.14970910798E+04  0.78986632214E+02 0.  0.
        -13    1    5    5    0    0  0.36352469541E+02 -0.80013909907E+02  0.10297157222E+04  0.10334593346E+04  0.00000000000E+00 0.  1.
         14    1    5    5    0    0 -0.22464015868E+01  0.13626196802E+02  0.46342601953E+03  0.46363174518E+03  0.00000000000E+00 0. -1.
         11    1    3    3    0    0  0.54697851911E+02 -0.95261413587E+02 -0.13981298372E+03  0.17780399979E+03  0.00000000000E+00 0. -1.
        -12    1    3    3    0    0 -0.11407948376E+02  0.10077792571E+02 -0.57781745996E+01  0.16281599767E+02  0.00000000000E+00 0.  1.
          5    1    4    4  501    0 -0.82228994540E+02  0.14892421603E+03 -0.26853987653E+02  0.17227489288E+03  0.41800000000E+01 0.  1.
         -5    1    4    4    0  501  0.48330230505E+01  0.26471180882E+01  0.38651616549E+02  0.39265572807E+02  0.41800000000E+01 0.  1.
</event>
<event>
11    1  0.8864208E-009  0.2143632E+03  0.7561462E-02  0.1044807E+00
         22   -1    0    0    0    0  0.00000000000E+00  0.00000000000E+00  0.33802249897E+03  0.33802249897E+03  0.00000000000E+00 0.  1.
         22   -1    0    0    0    0 -0.00000000000E+00 -0.00000000000E+00 -0.98237276148E+03  0.98237276148E+03  0.00000000000E+00 0.  1.
        -24    2    1    2    0    0  0.11984872156E+03 -0.58119234624E+02 -0.68241660121E+03  0.69981398287E+03  0.79408006620E+02 0.  0.
         25    2    1    2    0    0 -0.25247510762E+03 -0.42412856935E+02 -0.17807058317E+03  0.33600570662E+03  0.12509265322E+03 0.  0.
         24    2    1    2    0    0  0.13262638606E+03  0.10053209156E+03  0.21613692187E+03  0.28457557097E+03  0.81065571508E+02 0.  0.
        -13    1    5    5    0    0  0.10903474017E+03  0.10704412571E+03  0.15026846606E+03  0.21430732910E+03  0.00000000000E+00 0.  1.
         14    1    5    5    0    0  0.23591645890E+02 -0.65120341531E+01  0.65868455810E+02  0.70268241870E+02  0.00000000000E+00 0. -1.
         13    1    3    3    0    0  0.90541863357E+01  0.97013974960E+01 -0.15686100767E+02  0.20546268782E+02  0.00000000000E+00 0. -1.
        -14    1    3    3    0    0  0.11079453523E+03 -0.67820632120E+02 -0.66673050045E+03  0.67926771409E+03  0.00000000000E+00 0.  1.
          5    1    4    4  501    0 -0.92399883049E+02  0.42852358463E+02 -0.47345396456E+02  0.11239716179E+03  0.41800000000E+01 0. -1.
         -5    1    4    4    0  501 -0.16007522457E+03 -0.85265215398E+02 -0.13072518671E+03  0.22360854482E+03  0.41800000000E+01 0. -1.
</event>
<event>
11    1  0.8864208E-009  0.1750894E+03  0.7561462E-02  0.1073686E+00
         22   -1    0    0    0    0  0.00000000000E+00  0.00000000000E+00  0.58163596871E+03  0.58163596871E+03  0.00000000000E+00 0. -1.
         22   -1    0    0    0    0 -0.00000000000E+00 -0.00000000000E+00 -0.26158351314E+04  0.26158351314E+04  0.00000000000E+00 0. -1.
        -24    2    1    2    0    0  0.85270712615E+02  0.10458316867E+02 -0.25320269009E+04  0.25347294319E+04  0.79451840722E+02 0.  0.
         25    2    1    2    0    0 -0.17361951291E+03 -0.78584319040E+02  0.11402169062E+03  0.25488828935E+03  0.12509142118E+03 0.  0.
         24    2    1    2    0    0  0.88348800298E+02  0.68126002173E+02  0.38380604758E+03  0.40785337892E+03  0.81182718955E+02 0.  0.
        -13    1    5    5    0    0  0.38980306003E+01 -0.91794765502E+01  0.11822925231E+03  0.11864911940E+03  0.00000000000E+00 0.  1.
         14    1    5    5    0    0  0.84450769698E+02  0.77305478723E+02  0.26557679526E+03  0.28920425952E+03  0.00000000000E+00 0. -1.
         13    1    3    3    0    0  0.38393429969E+02  0.28478299642E+02 -0.55206454071E+03  0.55413024293E+03  0.00000000000E+00 0. -1.
        -14    1    3    3    0    0  0.46877282646E+02 -0.18019982775E+02 -0.19799623602E+04  0.19805991889E+04  0.00000000000E+00 0.  1.
          5    1    4    4  501    0 -0.93418304973E+02 -0.97282921390E+02  0.10684762592E+03  0.17211866274E+03  0.41800000000E+01 0.  1.
         -5    1    4    4    0  501 -0.80201207940E+02  0.18698602350E+02  0.71740646984E+01  0.82769626610E+02  0.41800000000E+01 0.  1.
</event>
<event>
11    1  0.8864208E-009  0.1490381E+03  0.7561462E-02  0.1097866E+00
         22   -1    0    0    0    0  0.00000000000E+00  0.00000000000E+00  0.21748285338E+03  0.21748285338E+03  0.00000000000E+00 0. -1.
         22   -1    0    0    0    0 -0.00000000000E+00 -0.00000000000E+00 -0.35157757375E+04  0.35157757375E+04  0.00000000000E+00 0. -1.
        -24    2    1    2    0    0 -0.38589049619E+02  0.72068403734E+02 -0.31699802785E+04  0.31720561241E+04  0.80511609314E+02 0.  0.
         25    2    1    2    0    0 -0.12176039239E+02 -0.83510591481E+02 -0.31621260501E+03  0.35037573569E+03  0.12510183760E+03 0.  0.
         24    2    1    2    0    0  0.50765088858E+02  0.11442187748E+02  0.18789999940E+03  0.21082673101E+03  0.80208994663E+02 0.  0.
        -13    1    5    5    0    0  0.12128132522E+01  0.17840767953E+01 -0.81242811449E+01  0.84058188250E+01  0.00000000000E+00 0.  1.
         14    1    5    5    0    0  0.49552275606E+02  0.96581109524E+01  0.19602428055E+03  0.20242091218E+03  0.00000000000E+00 0. -1.
         11    1    3    3    0    0  0.13159575717E+02  0.59412827901E+02 -0.18524686067E+04  0.18534678302E+04  0.00000000000E+00 0. -1.
        -12    1    3    3    0    0 -0.51748625336E+02  0.12655575832E+02 -0.13175116717E+04  0.13185882940E+04  0.00000000000E+00 0.  1.
          5    1    4    4  501    0  0.45508435722E+02 -0.75563322189E+02 -0.22890533486E+03  0.24534864603E+03  0.41800000000E+01 0. -1.
         -5    1    4    4    0  501 -0.57684474960E+02 -0.79472692919E+01 -0.87307270153E+02  0.10502708966E+03  0.41800000000E+01 0. -1.
</event>
<event>
11    1  0.8864208E-009  0.1542234E+03  0.7561462E-02  0.1092640E+00
         22   -1    0    0    0    0  0.00000000000E+00  0.00000000000E+00  0.52657744335E+03  0.52657744335E+03  0.00000000000E+00 0.  1.
         22   -1    0    0    0    0 -0.00000000000E+00 -0.00000000000E+00 -0.46376607957E+03  0.46376607957E+03  0.00000000000E+00 0. -1.
         24    2    1    2    0    0 -0.16537727076E+02 -0.26190783503E+01 -0.42288816175E+03  0.43076126878E+03  0.80252833884E+02 0.  0.
         25    2    1    2    0    0 -0.78367401465E+02 -0.13683505755E+02  0.21020454395E+03  0.25722013521E+03  0.12509020631E+03 0.  0.
        -24    2    1    2    0    0  0.94905128541E+02  0.16302584105E+02  0.27549498158E+03  0.30236211894E+03  0.79073436889E+02 0.  0.
        -13    1    3    3    0    0  0.28188360595E+02 -0.18622403311E+02 -0.14879494745E+03  0.15258215480E+03  0.00000000000E+00 0.  1.
         14    1    3    3    0    0 -0.44726087672E+02  0.16003324960E+02 -0.27409321431E+03  0.27817911398E+03  0.00000000000E+00 0. -1.
         13    1    5    5    0    0 -0.36414667061E+01  0.24376852573E+02  0.72323282921E+02  0.76407777573E+02  0.00000000000E+00 0. -1.
        -14    1    5    5    0    0  0.98546595247E+02 -0.80742684675E+01  0.20317169866E+03  0.22595434136E+03  0.00000000000E+00 0.  1.
          5    1    4    4  501    0  0.11027683411E+01  0.46027093187E+02  0.90037092334E+02  0.10121195483E+03  0.41800000000E+01 0.  1.
         -5    1    4    4    0  501 -0.79470169806E+02 -0.59710598942E+02  0.12016745162E+03  0.15600818037E+03  0.41800000000E+01 0.  1.
</event>
<event>
11    1  0.8864208E-009  0.1329376E+03  0.7561462E-02  0.1115711E+00
         22   -1    0    0    0    0  0.00000000000E+00  0.00000000000E+00  0.68432057470E+03  0.68432057470E+03  0.00000000000E+00 0.  1.
         22   -1    0    0    0    0 -0.00000000000E+00 -0.00000000000E+00 -0.10936166058E+04  0.10936166058E+04  0.00000000000E+00 0.  1.
         24    2    1    2    0    0 -0.26056646962E+02  0.38239581038E+02 -0.10397260956E+04  0.10451618044E+04  0.95872984451E+02 0.  0.
         25    2    1    2    0    0 -0.11024014548E+02 -0.14392382882E+02  0.36122790295E+02  0.13145647355E+03  0.12508908377E+03 0.  0.
        -24    2    1    2    0    0  0.37080661511E+02 -0.23847198156E+02  0.59430727419E+03  0.60131890255E+03  0.80247256014E+02 0.  0.
        -11    1    3    3    0    0 -0.41003990291E+01  0.22658038481E+02 -0.97211049524E+03  0.97238316261E+03  0.00000000000E+00 0.  1.
         12    1    3    3    0    0 -0.21956247933E+02  0.15581542557E+02 -0.67615600365E+02  0.72778641815E+02  0.00000000000E+00 0. -1.
         13    1    5    5    0    0 -0.48272185127E+01  0.25786264726E+02  0.19632700210E+03  0.19807202034E+03  0.00000000000E+00 0. -1.
        -14    1    5    5    0    0  0.41907880024E+02 -0.49633462882E+02  0.39798027208E+03  0.40324688221E+03  0.00000000000E+00 0.  1.
          5    1    4    4  501    0 -0.43100704057E+02 -0.57400491053E+02  0.27362373819E+02  0.76932821113E+02  0.41800000000E+01 0. -1.
         -5    1    4    4    0  501  0.32076689509E+02  0.43008108171E+02  0.87604164765E+01  0.54523652438E+02  0.41800000000E+01 0. -1.
</event>
<event>
11    1  0.8864208E-009  0.1530474E+03  0.7561462E-02  0.1093805E+00
         22   -1    0    0    0    0  0.00000000000E+00  0.00000000000E+00  0.33597442048E+03  0.33597442048E+03  0.00000000000E+00 0. -1.
         22   -1    0    0    0    0 -0.00000000000E+00 -0.00000000000E+00 -0.37158038864E+03  0.37158038864E+03  0.00000000000E+00 0.  1.
        -24    2    1    2    0    0  0.28823643886E+02 -0.65616552976E+02 -0.27317639826E+03  0.29379084130E+03  0.80940591775E+02 0.  0.
         25    2    1    2    0    0  0.63104808430E+02  0.68754737432E+02  0.10417889179E+02  0.15642073923E+03  0.12509789958E+03 0.  0.
         24    2    1    2    0    0 -0.91928452315E+02 -0.31381844560E+01  0.22715254092E+03  0.25734322859E+03  0.78527523257E+02 0.  0.
        -11    1    5    5    0    0  0.90106788537E+01 -0.15972514945E+02  0.46839876100E+02  0.50301963780E+02  0.00000000000E+00 0.  1.
         12    1    5    5    0    0 -0.10093913117E+03  0.12834330489E+02  0.18031266482E+03  0.20704126481E+03  0.00000000000E+00 0. -1.
         11    1    3    3    0    0  0.49839438141E+02 -0.58571498277E+02 -0.14926463103E+03  0.16791223923E+03  0.00000000000E+00 0. -1.
        -12    1    3    3    0    0 -0.21015794255E+02 -0.70450546996E+01 -0.12391176723E+03  0.12587860208E+03  0.00000000000E+00 0.  1.
          5    1    4    4  501    0  0.41492531966E+02 -0.16874409527E+02  0.42964004490E+02  0.62207346734E+02  0.41800000000E+01 0.  1.
         -5    1    4    4    0  501  0.21612276463E+02  0.85629146960E+02 -0.32546115311E+02  0.94213392492E+02  0.41800000000E+01 0.  1.
</event>
<event>
11    1  0.8864208E-009  0.1463412E+03  0.7561462E-02  0.1100677E+00
         22   -1    0    0    0    0  0.00000000000E+00  0.00000000000E+00  0.14162302363E+03  0.14162302363E+03  0.00000000000E+00 0. -1.
         22   -1    0    0    0    0 -0.00000000000E+00 -0.00000000000E+00 -0.30170419852E+04  0.30170419852E+04  0.00000000000E+00 0.  1.
         24    2    1    2    0    0  0.47896443757E+02  0.21499021660E+02 -0.24447440101E+04  0.24465816862E+04  0.78945519109E+02 0.  0.
         25    2    1    2    0    0 -0.10648209401E+03  0.25127539013E+02 -0.53386066777E+03  0.55912801515E+03  0.12508834948E+03 0.  0.
        -24    2    1    2    0    0  0.58585650258E+02 -0.46626560673E+02  0.10318571628E+03  0.15295530751E+03  0.84508694677E+02 0.  0.
        -11    1    3    3    0    0  0.38797090130E+02  0.40304718965E+02 -0.22545065498E+04  0.22552005383E+04  0.00000000000E+00 0.  1.
         12    1    3    3    0    0  0.90993536271E+01 -0.18805697305E+02 -0.19023746029E+03  0.19138114793E+03  0.00000000000E+00 0. -1.
         13    1    5    5    0    0  0.13935942903E+02 -0.63559050112E+02  0.62444080758E+02  0.90184403183E+02  0.00000000000E+00 0. -1.
        -14    1    5    5    0    0  0.44649707355E+02  0.16932489439E+02  0.40741635518E+02  0.62770904328E+02  0.00000000000E+00 0.  1.
          5    1    4    4  501    0 -0.10971846047E+03  0.10266184714E+02 -0.23220926201E+03  0.25706448389E+03  0.41800000000E+01 0.  1.
         -5    1    4    4    0  501  0.32363664583E+01  0.14861354299E+02 -0.30165140576E+03  0.30206353126E+03  0.41800000000E+01 0.  1.
</event>
<event>
11    1  0.8864208E-009  0.1596854E+03  0.7561462E-02  0.1087374E+00
         22   -1    0    0    0    0  0.00000000000E+00  0.00000000000E+00  0.21035542610E+04  0.21035542610E+04  0.00000000000E+00 0.  1.
         22   -1    0    0    0    0 -0.00000000000E+00 -0.00000000000E+00 -0.11528889923E+03  0.11528889923E+03  0.00000000000E+00 0.  1.
        -24    2    1    2    0    0 -0.27991823133E+01  0.10114358149E+03 -0.60625784371E+02  0.14322728070E+03  0.81244745716E+02 0.  0.
         25    2    1    2    0    0 -0.46495961657E+02 -0.76450298277E+02  0.48595224713E+03  0.50970935182E+03  0.12509002472E+03 0.  0.
         24    2    1    2    0    0  0.49295143971E+02 -0.24693283217E+02  0.15629388991E+04  0.15659065278E+04  0.79028362218E+02 0.  0.
        -13    1    5    5    0    0  0.20033336334E+02  0.25025912194E+02  0.86260759057E+03  0.86320303878E+03  0.00000000000E+00 0.  1.
         14    1    5    5    0    0  0.29261807636E+02 -0.49719195410E+02  0.70033130849E+03  0.70270348898E+03  0.00000000000E+00 0. -1.
         13    1    3    3    0    0  0.17135527119E+02 -0.11469783399E+01  0.74795602130E+01  0.18731942503E+02  0.00000000000E+00 0. -1.
        -14    1    3    3    0    0 -0.19934709433E+02  0.10229055983E+03 -0.68105344584E+02  0.12449533819E+03  0.00000000000E+00 0.  1.
          5    1    4    4  501    0  0.34260257163E+02 -0.69059089899E+01  0.22605131299E+03  0.22877527250E+03  0.41800000000E+01 0. -1.
         -5    1    4    4    0  501 -0.80756218820E+02 -0.69544389287E+02  0.25990093414E+03  0.28093407932E+03  0.41800000000E+01 0. -1.
</event>
<event>
11    1  0.8864208E-009  0.1590068E+03  0.7561462E-02  0.1088015E+00
         22   -1    0    0    0    0  0.00000000000E+00  0.00000000000E+00  0.19130965040E+04  0.19130965040E+04  0.00000000000E+00 0. -1.
         22   -1    0    0    0    0 -0.00000000000E+00 -0.00000000000E+00 -0.44146434121E+03  0.44146434121E+03  0.00000000000E+00 0. -1.
        -24    2    1    2    0    0 -0.67352794353E+01 -0.79430479323E+01 -0.41326772605E+03  0.42127446754E+03  0.81077170655E+02 0.  0.
         25    2    1    2    0    0  0.98503625774E+02 -0.25831961623E+02  0.27793428671E+03  0.32134976596E+03  0.12509176561E+03 0.  0.
         24    2    1    2    0    0 -0.91768346338E+02  0.33775009556E+02  0.16069656021E+04  0.16119366117E+04  0.80243461352E+02 0.  0.
        -13    1    5    5    0    0  0.14541011474E+02  0.28229426888E+00  0.14465590654E+03  0.14538518495E+03  0.00000000000E+00 0.  1.
         14    1    5    5    0    0 -0.10630935781E+03  0.33492715287E+02  0.14623096956E+04  0.14665514267E+04  0.00000000000E+00 0. -1.
         13    1    3    3    0    0  0.26936327712E+02 -0.26152561230E+01 -0.33259853004E+03  0.33369774872E+03  0.00000000000E+00 0. -1.
        -14    1    3    3    0    0 -0.33671607147E+02 -0.53277918094E+01 -0.80669196011E+02  0.87576718815E+02  0.00000000000E+00 0.  1.
          5    1    4    4  501    0  0.12327880244E+03 -0.42360806747E+02  0.23754845475E+03  0.27099601811E+03  0.41800000000E+01 0. -1.
         -5    1    4    4    0  501 -0.24775176662E+02  0.16528845124E+02  0.40385831964E+02  0.50353747857E+02  0.41800000000E+01 0. -1.
</event>
<event>
11    1  0.8864208E-009  0.1438085E+03  0.7561462E-02  0.1103379E+00
         22   -1    0    0    0    0  0.00000000000E+00  0.00000000000E+00  0.20437882245E+04  0.20437882245E+04  0.00000000000E+00 0.  1.
         22   -1    0    0    0    0 -0.00000000000E+00 -0.00000000000E+00 -0.99918302486E+03  0.99918302486E+03  0.00000000000E+00 0.  1.
        -24    2    1    2    0    0  0.63254686747E+02  0.19846380347E+02 -0.97273098233E+03  0.97825024612E+03  0.79830732546E+02 0.  0.
         25    2    1    2    0    0 -0.24122405764E+02  0.43406200019E+02  0.18340008980E+03  0.22748353690E+03  0.12508868038E+03 0.  0.
         24    2    1    2    0    0 -0.39132280983E+02 -0.63252580366E+02  0.18339360921E+04  0.18372374663E+04  0.81164605923E+02 0.  0.
        -11    1    5    5    0    0 -0.18087774669E+02  0.16181126354E+02  0.65007730657E+03  0.65053016914E+03  0.00000000000E+00 0.  1.
         12    1    5    5    0    0 -0.21044506314E+02 -0.79433706720E+02  0.11838587856E+04  0.11867072972E+04  0.00000000000E+00 0. -1.
         13    1    3    3    0    0  0.41791139260E+02 -0.28318259259E+02 -0.52645286521E+03  0.52886769840E+03  0.00000000000E+00 0. -1.
        -14    1    3    3    0    0  0.21463547487E+02  0.48164639606E+02 -0.44627811712E+03  0.44938254772E+03  0.00000000000E+00 0.  1.
          5    1    4    4  501    0 -0.55559437633E+02  0.20261747987E+02  0.25088395798E+02  0.64376156652E+02  0.41800000000E+01 0. -1.
         -5    1    4    4    0  501  0.31437031869E+02  0.23144452033E+02  0.15831169400E+03  0.16310738024E+03  0.41800000000E+01 0. -1.
</event>
<event>
11    1  0.8864208E-009  0.1271111E+03  0.7561462E-02  0.1122870E+00
         22   -1    0    0    0    0  0.00000000000E+00  0.00000000000E+00  0.24169607173E+02  0.24169607173E+02  0.00000000000E+00 0.  1.
         22   -1    0    0    0    0 -0.00000000000E+00 -0.00000000000E+00 -0.10530317100E+04  0.10530317100E+04  0.00000000000E+00 0.  1.
        -24    2    1    2    0    0  0.94115061413E+01  0.11449018659E+02 -0.52617190779E+03  0.53198207622E+03  0.76996080382E+02 0.  0.
         25    2    1    2    0    0 -0.12480714155E+02 -0.28994413566E+02 -0.32631216057E+03  0.35089314658E+03  0.12509967999E+03 0.  0.
         24    2    1    2    0    0  0.30692080138E+01  0.17545394907E+02 -0.17637803449E+03  0.19432609440E+03  0.79599993687E+02 0.  0.
        -11    1    5    5    0    0 -0.34104958469E+02  0.33392833160E+01 -0.42147242719E+02  0.54320245526E+02  0.00000000000E+00 0.  1.
         12    1    5    5    0    0  0.37174166482E+02  0.14206111591E+02 -0.13423079177E+03  0.14000584887E+03  0.00000000000E+00 0. -1.
         11    1    3    3    0    0  0.34055386494E+02 -0.19175348206E+02 -0.25661948442E+03  0.25957854902E+03  0.00000000000E+00 0. -1.
        -12    1    3    3    0    0 -0.24643880353E+02  0.30624366865E+02 -0.26955242337E+03  0.27240352720E+03  0.00000000000E+00 0.  1.
          5    1    4    4  501    0  0.11586872530E+02  0.17192592167E+02 -0.74802619974E+00  0.21163005071E+02  0.41800000000E+01 0.  1.
         -5    1    4    4    0  501 -0.24067586685E+02 -0.46187005733E+02 -0.32556413437E+03  0.32973014150E+03  0.41800000000E+01 0.  1.
</event>
<event>
11    1  0.8864208E-009  0.1326119E+03  0.7561462E-02  0.1116101E+00
         22   -1    0    0    0    0  0.00000000000E+00  0.00000000000E+00  0.82934866771E+03  0.82934866771E+03  0.00000000000E+00 0.  1.
         22   -1    0    0    0    0 -0.00000000000E+00 -0.00000000000E+00 -0.18421244791E+03  0.18421244791E+03  0.00000000000E+00 0. -1.
        -24    2    1    2    0    0 -0.62796079734E+01 -0.30742713041E+02 -0.13804486476E+03  0.16243303652E+03  0.79646461215E+02 0.  0.
         25    2    1    2    0    0  0.48172501836E+02  0.16306855051E+02  0.11710075906E+03  0.17873634926E+03  0.12509033264E+03 0.  0.
         24    2    1    2    0    0 -0.41892893863E+02  0.14435857990E+02  0.66608032550E+03  0.67239172983E+03  0.80524715327E+02 0.  0.
        -11    1    5    5    0    0  0.19341964230E+02 -0.12729240743E+02  0.23490839886E+03  0.23604681952E+03  0.00000000000E+00 0.  1.
         12    1    5    5    0    0 -0.61234858093E+02  0.27165098733E+02  0.43117192663E+03  0.43634491031E+03  0.00000000000E+00 0. -1.
         11    1    3    3    0    0 -0.22085524834E+02 -0.17210850014E+02 -0.13881591147E+03  0.14161158513E+03  0.00000000000E+00 0. -1.
        -12    1    3    3    0    0  0.15805916860E+02 -0.13531863026E+02  0.77104671280E+00  0.20821451385E+02  0.00000000000E+00 0.  1.
          5    1    4    4  501    0  0.51297599895E+02  0.20526175921E+02 -0.57455668738E+01  0.55706836131E+02  0.41800000000E+01 0. -1.
         -5    1    4    4    0  501 -0.31250980594E+01 -0.42193208701E+01  0.12284632593E+03  0.12302951313E+03  0.41800000000E+01 0. -1.
</event>
<event>
11    1  0.8864208E-009  0.1633496E+03  0.7561462E-02  0.1083969E+00
         22   -1    0    0    0    0  0.00000000000E+00  0.00000000000E+00  0.15547022008E+03  0.15547022008E+03  0.00000000000E+00 0.  1.
         22   -1    0    0    0    0 -0.00000000000E+00 -0.00000000000E+00 -0.10635618941E+04  0.10635618941E+04  0.00000000000E+00 0.  1.
         24    2    1    2    0    0  0.11823935937E+02 -0.14150321901E+02 -0.87318496728E+03  0.87702067271E+03  0.79832551111E+02 0.  0.
         25    2    1    2    0    0 -0.38643589979E+02  0.11197552146E+03 -0.97856062298E+02  0.19812963346E+03  0.12509076015E+03 0.  0.
        -24    2    1    2    0    0  0.26819654042E+02 -0.97825199560E+02  0.62949355569E+02  0.14388180800E+03  0.80313696182E+02 0.  0.
        -11    1    3    3    0    0 -0.10479041697E+02 -0.23793032687E+02 -0.78824451991E+03  0.78867315276E+03  0.00000000000E+00 0.  1.
         12    1    3    3    0    0  0.22302977634E+02  0.96427107863E+01 -0.84940447369E+02  0.88347519954E+02  0.00000000000E+00 0. -1.
         13    1    5    5    0    0  0.27777020597E+01  0.12379427504E+02  0.18955061495E+02  0.22809213277E+02  0.00000000000E+00 0. -1.
        -14    1    5    5    0    0  0.24041951983E+02 -0.11020462706E+03  0.43994294075E+02  0.12107259472E+03  0.00000000000E+00 0.  1.
          5    1    4    4  501    0 -0.47484236814E+02  0.13537253072E+03 -0.67574370149E+02  0.15863241384E+03  0.41800000000E+01 0. -1.
         -5    1    4    4    0  501  0.88406468346E+01 -0.23397009258E+02 -0.30281692149E+02  0.39497219625E+02  0.41800000000E+01 0. -1.
</event>
<event>
11    1  0.8864208E-009  0.1054288E+04  0.7561462E-02  0.8629027E-01
         22   -1    0    0    0    0  0.00000000000E+00  0.00000000000E+00  0.15636092537E+03  0.15636092537E+03  0.00000000000E+00 0.  1.
         22   -1    0    0    0    0 -0.00000000000E+00 -0.00000000000E+00 -0.17771749136E+04  0.17771749136E+04  0.00000000000E+00 0.  1.
        -24    2    1    2    0    0 -0.10348049141E+03 -0.26571379467E+02 -0.33897785908E+03  0.36455561094E+03  0.81120615203E+02 0.  0.
         25    2    1    2    0    0  0.43665928985E+03  0.19217302199E+03 -0.51611210848E+03  0.71387751125E+03  0.12509031443E+03 0.  0.
         24    2    1    2    0    0 -0.33317879843E+03 -0.16560164252E+03 -0.76572402069E+03  0.85510271680E+03  0.80220724846E+02 0.  0.
        -11    1    5    5    0    0 -0.14512048852E+03 -0.56229030906E+02 -0.40474575773E+03  0.43363670106E+03  0.00000000000E+00 0.  1.
         12    1    5    5    0    0 -0.18805830992E+03 -0.10937261161E+03 -0.36097826296E+03  0.42146601574E+03  0.00000000000E+00 0. -1.
         13    1    3    3    0    0 -0.53661971801E+02  0.49194805570E+01 -0.26265405775E+03  0.26812490105E+03  0.00000000000E+00 0. -1.
        -14    1    3    3    0    0 -0.49818519614E+02 -0.31490860024E+02 -0.76323801321E+02  0.96430709889E+02  0.00000000000E+00 0.  1.
          5    1    4    4  501    0 -0.43723078194E+01  0.17576869250E+02 -0.24163938749E+02  0.30486583019E+02  0.41800000000E+01 0.  1.
         -5    1    4    4    0  501  0.44103159767E+03  0.17459615274E+03 -0.49194816973E+03  0.68339092823E+03  0.41800000000E+01 0.  1.
</event>
<event>
11    1  0.8864208E-009  0.1965752E+03  0.7561462E-02  0.1056972E+00
         22   -1    0    0    0    0  0.00000000000E+00  0.00000000000E+00  0.21309953859E+03  0.21309953859E+03  0.00000000000E+00 0.  1.
         22   -1    0    0    0    0 -0.00000000000E+00 -0.00000000000E+00 -0.64571562116E+03  0.64571562116E+03  0.00000000000E+00 0. -1.
        -24    2    1    2    0    0  0.10977459228E+03 -0.92191598017E+02 -0.42905322300E+03  0.45979127587E+03  0.82289715896E+02 0.  0.
         25    2    1    2    0    0 -0.16588431246E+03  0.98211628818E+02 -0.10942657688E+03  0.25452817148E+03  0.12508910900E+03 0.  0.
         24    2    1    2    0    0  0.56109720189E+02 -0.60200308016E+01  0.10586371732E+03  0.14449571240E+03  0.80544042539E+02 0.  0.
        -11    1    5    5    0    0  0.70322362740E+02  0.16012442214E+02  0.78249730900E+02  0.10641735475E+03  0.00000000000E+00 0.  1.
         12    1    5    5    0    0 -0.14212642551E+02 -0.22032473016E+02  0.27613986418E+02  0.38078357650E+02  0.00000000000E+00 0. -1.
         11    1    3    3    0    0  0.10848915380E+03 -0.46224576900E+02 -0.28042299365E+03  0.30420990019E+03  0.00000000000E+00 0. -1.
        -12    1    3    3    0    0  0.12854384708E+01 -0.45967021117E+02 -0.14863022935E+03  0.15558137568E+03  0.00000000000E+00 0.  1.
          5    1    4    4  501    0 -0.86423029520E+02  0.10362529909E+03 -0.11097634685E+03  0.17475801728E+03  0.41800000000E+01 0. -1.
         -5    1    4    4    0  501 -0.79461282944E+02 -0.54136702760E+01  0.15497699683E+01  0.79770154193E+02  0.41800000000E+01 0. -1.
</event>
<event>
11    1  0.8864208E-009  0.4862876E+03  0.7561462E-02  0.9424695E-01
         22   -1    0    0    0    0  0.00000000000E+00  0.00000000000E+00  0.14205569016E+04  0.14205569016E+04  0.00000000000E+00 0.  1.
         22   -1    0    0    0    0 -0.00000000000E+00 -0.00000000000E+00 -0.21584424747E+03  0.21584424747E+03  0.00000000000E+00 0.  1.
        -24    2    1    2    0    0 -0.22675841140E+02 -0.22515695777E+02  0.96610331773E+01  0.87540239740E+02  0.80924703792E+02 0.  0.
         25    2    1    2    0    0  0.46566241011E+03  0.14179319549E+03  0.48953031143E+03  0.70159367527E+03  0.12508784474E+03 0.  0.
         24    2    1    2    0    0 -0.44298656897E+03 -0.11927749971E+03  0.70552130951E+03  0.84726723403E+03  0.98169371374E+02 0.  0.
        -13    1    5    5    0    0 -0.38664638811E+03 -0.13123398170E+03  0.58161426596E+03  0.71062855400E+03  0.00000000000E+00 0.  1.
         14    1    5    5    0    0 -0.56340180853E+02  0.11956481990E+02  0.12390704355E+03  0.13663868003E+03  0.00000000000E+00 0. -1.
         13    1    3    3    0    0  0.25849166459E+02 -0.16373414071E+02 -0.13472627610E+02  0.33433213870E+02  0.00000000000E+00 0. -1.
        -14    1    3    3    0    0 -0.48525007599E+02 -0.61422817062E+01  0.23133660787E+02  0.54107025870E+02  0.00000000000E+00 0.  1.
          5    1    4    4  501    0  0.36963951603E+03  0.10936615342E+03  0.45045138818E+03  0.59288974762E+03  0.41800000000E+01 0.  1.
         -5    1    4    4    0  501  0.96022894077E+02  0.32427042073E+02  0.39078923252E+02  0.10870392765E+03  0.41800000000E+01 0.  1.
</event>
<event>
11    1  0.8864208E-009  0.1633690E+03  0.7561462E-02  0.1083951E+00
         22   -1    0    0    0    0  0.00000000000E+00  0.00000000000E+00  0.23035259023E+04  0.23035259023E+04  0.00000000000E+00 0.  1.
         22   -1    0    0    0    0 -0.00000000000E+00 -0.00000000000E+00 -0.11109669196E+04  0.11109669196E+04  0.00000000000E+00 0.  1.
        -24    2    1    2    0    0  0.10015211784E+03 -0.32608493825E+02 -0.10956367650E+04  0.11028498849E+04  0.69023092646E+02 0.  0.
         25    2    1    2    0    0 -0.84330218305E+02 -0.47992228434E+02  0.63532133554E+03  0.65474448805E+03  0.12506920298E+03 0.  0.
         24    2    1    2    0    0 -0.15821899537E+02  0.80600722259E+02  0.16528744121E+04  0.16568984490E+04  0.81066880907E+02 0.  0.
        -11    1    5    5    0    0 -0.14060523410E+02  0.83479874692E+02  0.16507307204E+04  0.16529000270E+04  0.00000000000E+00 0.  1.
         12    1    5    5    0    0 -0.17613761272E+01 -0.28791524332E+01  0.21436916408E+01  0.39984219944E+01  0.00000000000E+00 0. -1.
         13    1    3    3    0    0  0.57419219433E+02 -0.43941965367E+02 -0.45697082558E+03  0.46265559384E+03  0.00000000000E+00 0. -1.
        -14    1    3    3    0    0  0.42732898409E+02  0.11333471541E+02 -0.63866593938E+03  0.64019429106E+03  0.00000000000E+00 0.  1.
          5    1    4    4  501    0 -0.10991586897E+03 -0.25713120970E+02  0.35992525652E+03  0.37723510643E+03  0.41800000000E+01 0. -1.
         -5    1    4    4    0  501  0.25585650669E+02 -0.22279107464E+02  0.27539607902E+03  0.27750938162E+03  0.41800000000E+01 0. -1.
</event>
<event>
11    1  0.8864208E-009  0.1879062E+03  0.7561462E-02  0.1063421E+00
         22   -1    0    0    0    0  0.00000000000E+00  0.00000000000E+00  0.70096794689E+02  0.70096794689E+02  0.00000000000E+00 0. -1.
         22   -1    0    0    0    0 -0.00000000000E+00 -0.00000000000E+00 -0.11299945555E+04  0.11299945555E+04  0.00000000000E+00 0.  1.
         24    2    1    2    0    0  0.71951667452E+02  0.15638909464E+02 -0.53751598756E+03  0.54857616011E+03  0.81183425785E+02 0.  0.
         25    2    1    2    0    0  0.54013241798E+02  0.80715364460E+02 -0.40789970612E+03  0.43756406359E+03  0.12509092352E+03 0.  0.
        -24    2    1    2    0    0 -0.12596490925E+03 -0.96354273923E+02 -0.11448206718E+03  0.21395112653E+03  0.86704304237E+02 0.  0.
        -11    1    3    3    0    0  0.40295923825E+02  0.12758752906E+02 -0.48740312342E+03  0.48923241100E+03  0.00000000000E+00 0.  1.
         12    1    3    3    0    0  0.31655743628E+02  0.28801565572E+01 -0.50112864139E+02  0.59343749112E+02  0.00000000000E+00 0. -1.
         11    1    5    5    0    0 -0.32914315546E+01  0.14389056832E+02 -0.44889334121E+01  0.15428188531E+02  0.00000000000E+00 0. -1.
        -12    1    5    5    0    0 -0.12267347770E+03 -0.11074333075E+03 -0.10999313377E+03  0.19852293800E+03  0.00000000000E+00 0.  1.
          5    1    4    4  501    0 -0.10324913594E+02  0.40631177918E+01 -0.25188825933E+03  0.25216716748E+03  0.41800000000E+01 0. -1.
         -5    1    4    4    0  501  0.64338155392E+02  0.76652246668E+02 -0.15601144679E+03  0.18539689611E+03  0.41800000000E+01 0. -1.
</event>
<event>
11    1  0.8864208E-009  0.1480548E+03  0.7561462E-02  0.1098883E+00
         22   -1    0    0    0    0  0.00000000000E+00  0.00000000000E+00  0.97217208792E+03  0.97217208792E+03  0.00000000000E+00 0. -1.
         22   -1    0    0    0    0 -0.00000000000E+00 -0.00000000000E+00 -0.19931160238E+03  0.19931160238E+03  0.00000000000E+00 0. -1.
        -24    2    1    2    0    0 -0.16553255955E+02 -0.59325478235E+02 -0.14102568497E+03  0.17529817316E+03  0.83950479710E+02 0.  0.
         25    2    1    2    0    0  0.41343742272E+02 -0.21312147345E+02  0.83299121367E+02  0.15731359373E+03  0.12508121563E+03 0.  0.
         24    2    1    2    0    0 -0.24790486317E+02  0.80637625579E+02  0.83058704914E+03  0.83887192341E+03  0.81940605466E+02 0.  0.
        -13    1    5    5    0    0 -0.38114783563E+02  0.27921196331E+02  0.18281395491E+03  0.18882074050E+03  0.00000000000E+00 0.  1.
         14    1    5    5    0    0  0.13324297247E+02  0.52716429248E+02  0.64777309422E+03  0.65005118291E+03  0.00000000000E+00 0. -1.
         11    1    3    3    0    0 -0.15916213046E+02  0.19555727250E+02 -0.35760388111E+02  0.43755658650E+02  0.00000000000E+00 0. -1.
        -12    1    3    3    0    0 -0.63704290941E+00 -0.78881205485E+02 -0.10526529685E+03  0.13154251451E+03  0.00000000000E+00 0.  1.
          5    1    4    4  501    0  0.39507105209E+02  0.41907872613E+01  0.11184402375E+03  0.11876418698E+03  0.41800000000E+01 0. -1.
         -5    1    4    4    0  501  0.18366370626E+01 -0.25502934606E+02 -0.28544902383E+02  0.38549406756E+02  0.41800000000E+01 0. -1.
</event>
<event>
11    1  0.8864208E-009  0.1704962E+03  0.7561462E-02  0.1077601E+00
         22   -1    0    0    0    0  0.00000000000E+00  0.00000000000E+00  0.17006459009E+03  0.17006459009E+03  0.00000000000E+00 0. -1.
         22   -1    0    0    0    0 -0.00000000000E+00 -0.00000000000E+00 -0.13820060765E+04  0.13820060765E+04  0.00000000000E+00 0. -1.
         24    2    1    2    0    0 -0.42946388718E+02  0.10627594760E+03 -0.12035586727E+04  0.12117074547E+04  0.80885770105E+02 0.  0.
         25    2    1    2    0    0  0.78293378255E+02 -0.11070561718E+03 -0.10117295472E+03  0.21040264913E+03  0.12509085195E+03 0.  0.
        -24    2    1    2    0    0 -0.35346989537E+02  0.44296695810E+01  0.92790141003E+02  0.12996056276E+03  0.83729958577E+02 0.  0.
        -11    1    3    3    0    0 -0.43810368809E+02  0.30892354886E+02 -0.28058203854E+03  0.28565707825E+03  0.00000000000E+00 0.  1.
         12    1    3    3    0    0  0.86398009060E+00  0.75383592711E+02 -0.92297663420E+03  0.92605037649E+03  0.00000000000E+00 0. -1.
         11    1    5    5    0    0 -0.44096040950E+02 -0.29704334244E+01  0.10457037071E+03  0.11352641425E+03  0.00000000000E+00 0. -1.
        -12    1    5    5    0    0  0.87490514132E+01  0.74001030054E+01 -0.11780229709E+02  0.16434148506E+02  0.00000000000E+00 0.  1.
          5    1    4    4  501    0  0.90565933658E+01  0.24877256613E+02  0.13127067225E+01  0.26834592953E+02  0.41800000000E+01 0.  1.
         -5    1    4    4    0  501  0.69236784889E+02 -0.13558287379E+03 -0.10248566144E+03  0.18356805618E+03  0.41800000000E+01 0.  1.
</event>
<event>
11    1  0.8864208E-009  0.1823773E+03  0.7561462E-02  0.1067736E+00
         22   -1    0    0    0    0  0.00000000000E+00  0.00000000000E+00  0.24339525567E+04  0.24339525567E+04  0.00000000000E+00 0. -1.
         22   -1    0    0    0    0 -0.00000000000E+00 -0.00000000000E+00 -0.36626901079E+03  0.36626901079E+03  0.00000000000E+00 0. -1.
        -24    2    1    2    0    0 -0.90707523634E+02  0.73886670618E+02 -0.17538493312E+03  0.22562166937E+03  0.80362727577E+02 0.  0.
         25    2    1    2    0    0  0.15824764445E+03 -0.86907056139E+02 -0.91279811039E+02  0.23785411474E+03  0.12508965830E+03 0.  0.
         24    2    1    2    0    0 -0.67540120820E+02  0.13020385521E+02  0.23343482901E+04  0.23367457834E+04  0.80422126749E+02 0.  0.
        -11    1    5    5    0    0  0.15284671019E+02 -0.66791392644E+01  0.19783736503E+03  0.19853930359E+03  0.00000000000E+00 0.  1.
         12    1    5    5    0    0 -0.82824791840E+02  0.19699524786E+02  0.21365109251E+04  0.21382064798E+04  0.00000000000E+00 0. -1.
         13    1    3    3    0    0 -0.94108869398E+02  0.86587384304E+02 -0.16560986362E+03  0.20923785831E+03  0.00000000000E+00 0. -1.
        -14    1    3    3    0    0  0.34013457649E+01 -0.12700713686E+02 -0.97750694988E+01  0.16383811060E+02  0.00000000000E+00 0.  1.
          5    1    4    4  501    0  0.48302157470E+02 -0.95613125642E+02 -0.61276821112E+02  0.12347991503E+03  0.41800000000E+01 0. -1.
         -5    1    4    4    0  501  0.10994548698E+03  0.87060695032E+01 -0.30002989927E+02  0.11437419971E+03  0.41800000000E+01 0. -1.
</event>
<event>
11    1  0.8864208E-009  0.1751887E+03  0.7561462E-02  0.1073603E+00
         22   -1    0    0    0    0  0.00000000000E+00  0.00000000000E+00  0.40110458701E+03  0.40110458701E+03  0.00000000000E+00 0.  1.
         22   -1    0    0    0    0 -0.00000000000E+00 -0.00000000000E+00 -0.33226124501E+04  0.33226124501E+04  0.00000000000E+00 0.  1.
         24    2    1    2    0    0  0.72776862532E+02 -0.97073035234E+02 -0.30943403998E+04  0.30977674426E+04  0.80628606858E+02 0.  0.
         25    2    1    2    0    0 -0.14863977600E+03  0.92627325930E+02 -0.16497713206E+03  0.27118008238E+03  0.12509028123E+03 0.  0.
        -24    2    1    2    0    0  0.75862913470E+02  0.44457093044E+01  0.33780966886E+03  0.35476951212E+03  0.77272817872E+02 0.  0.
        -13    1    3    3    0    0  0.22166149374E+02 -0.75502337995E+01 -0.14637697003E+04  0.14639569938E+04  0.00000000000E+00 0.  1.
         14    1    3    3    0    0  0.50610713157E+02 -0.89522801434E+02 -0.16305706996E+04  0.16338104488E+04  0.00000000000E+00 0. -1.
         11    1    5    5    0    0  0.59209094045E+02  0.33499631429E+02  0.16045203352E+03  0.17427793085E+03  0.00000000000E+00 0. -1.
        -12    1    5    5    0    0  0.16653819425E+02 -0.29053922124E+02  0.17735763535E+03  0.18049158127E+03  0.00000000000E+00 0.  1.
          5    1    4    4  501    0 -0.37590016129E+02 -0.29479229096E+02 -0.54135459296E+02  0.72319807894E+02  0.41800000000E+01 0. -1.
         -5    1    4    4    0  501 -0.11104975987E+03  0.12210655503E+03 -0.11084167277E+03  0.19886027449E+03  0.41800000000E+01 0. -1.
</event>
<event>
11    1  0.8864208E-009  0.1424876E+03  0.7561462E-02  0.1104812E+00
         22   -1    0    0    0    0  0.00000000000E+00  0.00000000000E+00  0.14891250173E+03  0.14891250173E+03  0.00000000000E+00 0. -1.
         22   -1    0    0    0    0 -0.00000000000E+00 -0.00000000000E+00 -0.27665555753E+04  0.27665555753E+04  0.00000000000E+00 0.  1.
         24    2    1    2    0    0  0.17865016846E+02 -0.18587777826E+02 -0.23517896850E+04  0.23537248996E+04  0.91877723432E+02 0.  0.
         25    2    1    2    0    0 -0.27969908129E+02 -0.49687610906E+02 -0.38111812394E+03  0.40515225163E+03  0.12508456407E+03 0.  0.
        -24    2    1    2    0    0  0.10104891283E+02  0.68275388732E+02  0.11526473535E+03  0.15659092584E+03  0.80443280063E+02 0.  0.
        -13    1    3    3    0    0 -0.45168577691E+01 -0.92298841740E+01 -0.21987798321E+04  0.21988038436E+04  0.00000000000E+00 0.  1.
         14    1    3    3    0    0  0.22381874615E+02 -0.93578936523E+01 -0.15300985295E+03  0.15492105597E+03  0.00000000000E+00 0. -1.
         11    1    5    5    0    0  0.23194689246E+02  0.15392280406E+02  0.94123376442E+02  0.98153583216E+02  0.00000000000E+00 0. -1.
        -12    1    5    5    0    0 -0.13089797963E+02  0.52883108326E+02  0.21141358907E+02  0.58437342628E+02  0.00000000000E+00 0.  1.
          5    1    4    4  501    0 -0.74160236169E+02 -0.41749264262E+02 -0.18838732704E+03  0.20676072907E+03  0.41800000000E+01 0. -1.
         -5    1    4    4    0  501  0.46190328040E+02 -0.79383466442E+01 -0.19273079690E+03  0.19839152256E+03  0.41800000000E+01 0. -1.
</event>
<event>
11    1  0.8864208E-009  0.1451277E+03  0.7561462E-02  0.1101964E+00
         22   -1    0    0    0    0  0.00000000000E+00  0.00000000000E+00  0.12502230904E+04  0.12502230904E+04  0.00000000000E+00 0. -1.
         22   -1    0    0    0    0 -0.00000000000E+00 -0.00000000000E+00 -0.99080302112E+03  0.99080302112E+03  0.00000000000E+00 0.  1.
        -24    2    1    2    0    0 -0.74166053808E+02  0.27548773016E+01 -0.94689725216E+03  0.95326771960E+03  0.81220355760E+02 0.  0.
         25    2    1    2    0    0  0.47363449239E+02  0.57820820195E+02  0.10076333704E+03  0.17716662908E+03  0.12509284870E+03 0.  0.
         24    2    1    2    0    0  0.26802604569E+02 -0.60575697497E+02  0.11055539844E+04  0.11105917629E+04  0.82320450332E+02 0.  0.
        -13    1    5    5    0    0  0.21753637994E+00 -0.10654554943E+02  0.14104230814E+02  0.17677561765E+02  0.00000000000E+00 0.  1.
         14    1    5    5    0    0  0.26585068189E+02 -0.49921142554E+02  0.10914497536E+04  0.10929142011E+04  0.00000000000E+00 0. -1.
         13    1    3    3    0    0 -0.53141097355E+02  0.28017116574E+01 -0.23054120259E+03  0.23660319505E+03  0.00000000000E+00 0. -1.
        -14    1    3    3    0    0 -0.21024956453E+02 -0.46834355840E-01 -0.71635604957E+03  0.71666452455E+03  0.00000000000E+00 0.  1.
          5    1    4    4  501    0 -0.29312224556E+02  0.61888999237E+02  0.42692040830E+02  0.80805553554E+02  0.41800000000E+01 0.  1.
         -5    1    4    4    0  501  0.76675673795E+02 -0.40681790416E+01  0.58071296213E+02  0.96361075526E+02  0.41800000000E+01 0.  1.
</event>
<event>
11    1  0.8864208E-009  0.1438767E+03  0.7561462E-02  0.1103305E+00
         22   -1    0    0    0    0  0.00000000000E+00  0.00000000000E+00  0.11163872979E+04  0.11163872979E+04  0.00000000000E+00 0. -1.
         22   -1    0    0    0    0 -0.00000000000E+00 -0.00000000000E+00 -0.33062256578E+03  0.33062256578E+03  0.00000000000E+00 0.  1.
        -24    2    1    2    0    0 -0.52365069167E+02  0.42930074424E+02 -0.24236623329E+03  0.26415658366E+03  0.80325698854E+02 0.  0.
         25    2    1    2    0    0  0.10901000004E+03 -0.21605518473E+02  0.18601786632E+02  0.16835487754E+03  0.12508940718E+03 0.  0.
         24    2    1    2    0    0 -0.56644930874E+02 -0.21324555951E+02  0.10095291788E+04  0.10144984025E+04  0.79965373409E+02 0.  0.
        -13    1    5    5    0    0 -0.30150625692E+02 -0.35884977764E+02  0.24925760632E+03  0.25362599663E+03  0.00000000000E+00 0.  1.
         14    1    5    5    0    0 -0.26494305182E+02  0.14560421813E+02  0.76027157245E+03  0.76087240584E+03  0.00000000000E+00 0. -1.
         13    1    3    3    0    0 -0.10620839040E+01 -0.21304157973E+02 -0.70228516430E+02  0.73396455562E+02  0.00000000000E+00 0. -1.
        -14    1    3    3    0    0 -0.51302985263E+02  0.64234232398E+02 -0.17213771686E+03  0.19076012810E+03  0.00000000000E+00 0.  1.
          5    1    4    4  501    0  0.70284842491E+02 -0.71036448866E+02 -0.73356556182E+01  0.10028669102E+03  0.41800000000E+01 0.  1.
         -5    1    4    4    0  501  0.38725157550E+02  0.49430930392E+02  0.25937442250E+02  0.68068186528E+02  0.41800000000E+01 0.  1.
</event>
<event>
11    1  0.8864208E-009  0.2039420E+03  0.7561462E-02  0.1051771E+00
         22   -1    0    0    0    0  0.00000000000E+00  0.00000000000E+00  0.16523645104E+04  0.16523645104E+04  0.00000000000E+00 0.  1.
         22   -1    0    0    0    0 -0.00000000000E+00 -0.00000000000E+00 -0.15778743032E+03  0.15778743032E+03  0.00000000000E+00 0. -1.
         24    2    1    2    0    0 -0.28036999478E+02 -0.17256023486E+02 -0.88568291992E+02  0.12395297929E+03  0.80225650778E+02 0.  0.
         25    2    1    2    0    0  0.24265862536E+02  0.17640449299E+03  0.21279932540E+03  0.30436604285E+03  0.12509099856E+03 0.  0.
        -24    2    1    2    0    0  0.37711369418E+01 -0.15914846950E+03  0.13703460467E+04  0.13818329186E+04  0.79192615924E+02 0.  0.
        -11    1    3    3    0    0 -0.44744841461E+02  0.16017132317E+02 -0.36411101424E+02  0.59870006447E+02  0.00000000000E+00 0.  1.
         12    1    3    3    0    0  0.16707841982E+02 -0.33273155803E+02 -0.52157190568E+02  0.64082972846E+02  0.00000000000E+00 0. -1.
         13    1    5    5    0    0  0.26430552452E+02 -0.89352612898E+02  0.51637318670E+03  0.52471299915E+03  0.00000000000E+00 0. -1.
        -14    1    5    5    0    0 -0.22659415510E+02 -0.69795856604E+02  0.85397286000E+03  0.85711991945E+03  0.00000000000E+00 0.  1.
          5    1    4    4  501    0 -0.12594189508E+02  0.34784749585E+02  0.13200284993E+03  0.13715253261E+03  0.41800000000E+01 0.  1.
         -5    1    4    4    0  501  0.36860052045E+02  0.14161974340E+03  0.80796475472E+02  0.16721351024E+03  0.41800000000E+01 0.  1.
</event>
<event>
11    1  0.8864208E-009  0.1255392E+03  0.7561462E-02  0.1124875E+00
         22   -1    0    0    0    0  0.00000000000E+00  0.00000000000E+00  0.33966835721E+03  0.33966835721E+03  0.00000000000E+00 0.  1.
         22   -1    0    0    0    0 -0.00000000000E+00 -0.00000000000E+00 -0.25914501437E+04  0.25914501437E+04  0.00000000000E+00 0.  1.
        -24    2    1    2    0    0 -0.20341044244E+01  0.10430718527E+02 -0.25187330761E+04  0.25200361017E+04  0.80328749576E+02 0.  0.
         25    2    1    2    0    0 -0.40248748677E+01 -0.84498999646E+01 -0.68188352304E+01  0.12562627269E+03  0.12509142037E+03 0.  0.
         24    2    1    2    0    0  0.60589792921E+01 -0.19808185626E+01  0.27377012479E+03  0.28545612652E+03  0.80588361855E+02 0.  0.
        -13    1    5    5    0    0  0.11632844537E+02  0.30512499660E+02  0.21980604153E+03  0.22221843218E+03  0.00000000000E+00 0.  1.
         14    1    5    5    0    0 -0.55738652450E+01 -0.32493318222E+02  0.53964083254E+02  0.63237694331E+02  0.00000000000E+00 0. -1.
         13    1    3    3    0    0 -0.17417431893E+02  0.23802865205E+02 -0.35982829475E+03  0.36103510221E+03  0.00000000000E+00 0. -1.
        -14    1    3    3    0    0  0.15383327469E+02 -0.13372146678E+02 -0.21589047813E+04  0.21590009995E+04  0.00000000000E+00 0.  1.
          5    1    4    4  501    0 -0.25288257612E+02 -0.53191834061E+02 -0.34841631012E+02  0.68558579590E+02  0.41800000000E+01 0.  1.
         -5    1    4    4    0  501  0.21263382744E+02  0.44741934097E+02  0.28022795782E+02  0.57067693101E+02  0.41800000000E+01 0.  1.
</event>
<event>
11    1  0.8864208E-009  0.1576014E+03  0.7561462E-02  0.1089355E+00
         22   -1    0    0    0    0  0.00000000000E+00  0.00000000000E+00  0.18545667697E+04  0.18545667697E+04  0.00000000000E+00 0. -1.
         22   -1    0    0    0    0 -0.00000000000E+00 -0.00000000000E+00 -0.13093477357E+03  0.13093477357E+03  0.00000000000E+00 0.  1.
         24    2    1    2    0    0 -0.48381626819E+02  0.83879010547E+02 -0.91982658043E+02  0.15610050304E+03  0.80808956464E+02 0.  0.
         25    2    1    2    0    0  0.15424798069E+02 -0.63841270455E+02  0.10866321142E+04  0.10957784719E+04  0.12508987012E+03 0.  0.
        -24    2    1    2    0    0  0.32956828750E+02 -0.20037740091E+02  0.72898253990E+03  0.73362256829E+03  0.72793307603E+02 0.  0.
        -13    1    3    3    0    0 -0.73654934700E+01  0.76724981448E+02 -0.83450323731E+02  0.11359986709E+03  0.00000000000E+00 0.  1.
         14    1    3    3    0    0 -0.41016133349E+02  0.71540290982E+01 -0.85323343117E+01  0.42500635949E+02  0.00000000000E+00 0. -1.
         11    1    5    5    0    0  0.76778429190E+01  0.96864129875E+01  0.56221899122E+03  0.56235484346E+03  0.00000000000E+00 0. -1.
        -12    1    5    5    0    0  0.25278985830E+02 -0.29724153079E+02  0.16676354868E+03  0.17126772483E+03  0.00000000000E+00 0.  1.
          5    1    4    4  501    0  0.51418877775E+02 -0.64361667800E+02  0.97339717400E+03  0.97688579477E+03  0.41800000000E+01 0.  1.
         -5    1    4    4    0  501 -0.35994079706E+02  0.52039734457E+00  0.11323494022E+03  0.11889267712E+03  0.41800000000E+01 0.  1.
</event>
<event>
11    1  0.1100900E-008  0.1601420E+03  0.7561462E-02  0.1086944E+00
         22   -1    0    0    0    0  0.00000000000E+00  0.00000000000E+00  0.15073762602E+04  0.15073762602E+04  0.00000000000E+00 0.  1.
         22   -1    0    0    0    0 -0.00000000000E+00 -0.00000000000E+00 -0.39481095796E+03  0.39481095796E+03  0.00000000000E+00 0.  1.
        -24    2    1    2    0    0  0.94107119510E+01  0.97132246205E+02 -0.26416190193E+03  0.29293638435E+03  0.80665854572E+02 0.  0.
         25    2    1    2    0    0 -0.90354446506E+02 -0.36349856722E+02 -0.57971392733E+02  0.16880035887E+03  0.12509052998E+03 0.  0.
         24    2    1    2    0    0  0.80943734555E+02 -0.60782389483E+02  0.14346985969E+04  0.14404504749E+04  0.79316579629E+02 0.  0.
        -13    1    5    5    0    0  0.76020827049E+02 -0.59930111436E+02  0.14309090902E+04  0.14341797687E+04  0.00000000000E+00 0.  1.
         14    1    5    5    0    0  0.49229075059E+01 -0.85227804647E+00  0.37895066514E+01  0.62707062474E+01  0.00000000000E+00 0. -1.
         11    1    3    3    0    0  0.74272067849E+01 -0.48402432133E+01  0.91773540717E+00  0.89125525675E+01  0.00000000000E+00 0. -1.
        -12    1    3    3    0    0  0.19835051661E+01  0.10197248942E+03 -0.26507963733E+03  0.28402383178E+03  0.00000000000E+00 0.  1.
          5    1    4    4  501    0 -0.12429809918E+02  0.15431818014E+02 -0.71374790186E+02  0.74192144165E+02  0.41800000000E+01 0. -1.
         -5    1    4    4    0  501 -0.77924636588E+02 -0.51781674736E+02  0.13403397453E+02  0.94608214702E+02  0.41800000000E+01 0. -1.
</event>
<event>
11    1  0.8864208E-009  0.1715898E+03  0.7561462E-02  0.1076656E+00
         22   -1    0    0    0    0  0.00000000000E+00  0.00000000000E+00  0.46391816560E+03  0.46391816560E+03  0.00000000000E+00 0.  1.
         22   -1    0    0    0    0 -0.00000000000E+00 -0.00000000000E+00 -0.22774879662E+03  0.22774879662E+03  0.00000000000E+00 0.  1.
        -24    2    1    2    0    0  0.95259318642E+02  0.57810667827E+02 -0.11939920625E+03  0.18102316298E+03  0.78082033654E+02 0.  0.
         25    2    1    2    0    0 -0.10513899035E+03 -0.10032071276E+03  0.58169590561E+02  0.20037450974E+03  0.12509112752E+03 0.  0.
         24    2    1    2    0    0  0.98796717090E+01  0.42510044936E+02  0.29739898466E+03  0.31026928951E+03  0.76916604838E+02 0.  0.
        -13    1    5    5    0    0  0.18043135735E+02  0.61452522459E+02  0.25760286045E+03  0.26544528811E+03  0.00000000000E+00 0.  1.
         14    1    5    5    0    0 -0.81634640258E+01 -0.18942477523E+02  0.39796124210E+02  0.44824001403E+02  0.00000000000E+00 0. -1.
         11    1    3    3    0    0  0.39556233669E+02 -0.16759640948E+02 -0.39319422784E+02  0.58237429501E+02  0.00000000000E+00 0. -1.
        -12    1    3    3    0    0  0.55703084973E+02  0.74570308774E+02 -0.80079783464E+02  0.12278573348E+03  0.00000000000E+00 0.  1.
          5    1    4    4  501    0 -0.73357744405E+02 -0.12221690571E+03  0.16712435350E+02  0.14357962460E+03  0.41800000000E+01 0.  1.
         -5    1    4    4    0  501 -0.31781245946E+02  0.21896192946E+02  0.41457155211E+02  0.56794885136E+02  0.41800000000E+01 0.  1.
</event>
<event>
11    1  0.8864208E-009  0.1799080E+03  0.7561462E-02  0.1069717E+00
         22   -1    0    0    0    0  0.00000000000E+00  0.00000000000E+00  0.96838271256E+02  0.96838271256E+02  0.00000000000E+00 0. -1.
         22   -1    0    0    0    0 -0.00000000000E+00 -0.00000000000E+00 -0.31645681553E+04  0.31645681553E+04  0.00000000000E+00 0.  1.
         24    2    1    2    0    0 -0.37427731510E+02 -0.12400029764E+03 -0.28219494204E+04  0.28259217615E+04  0.75222083763E+02 0.  0.
         25    2    1    2    0    0 -0.93793400197E+01  0.13408775101E+03 -0.28323945257E+03  0.33754959550E+03  0.12509054695E+03 0.  0.
        -24    2    1    2    0    0  0.46807071530E+02 -0.10087453376E+02  0.37458988895E+02  0.97935069600E+02  0.76781790470E+02 0.  0.
        -13    1    3    3    0    0 -0.54130081735E+02 -0.11730213726E+03 -0.22646439041E+04  0.22683257856E+04  0.00000000000E+00 0.  1.
         14    1    3    3    0    0  0.16702350225E+02 -0.66981603801E+01 -0.55730551622E+03  0.55759597583E+03  0.00000000000E+00 0. -1.
         13    1    5    5    0    0  0.51268897449E+02 -0.34530603382E+02  0.38919530901E+02  0.73045138792E+02  0.00000000000E+00 0. -1.
        -14    1    5    5    0    0 -0.44618259187E+01  0.24443150006E+02 -0.14605420060E+01  0.24889930809E+02  0.00000000000E+00 0.  1.
          5    1    4    4  501    0 -0.44504972736E+02  0.14032254950E+03 -0.23645673277E+03  0.27856842852E+03  0.41800000000E+01 0.  1.
         -5    1    4    4    0  501  0.35125632717E+02 -0.62347984830E+01 -0.46782719802E+02  0.58981166977E+02  0.41800000000E+01 0.  1.
</event>
<event>
11    1  0.8864208E-009  0.1593364E+03  0.7561462E-02  0.1087703E+00
         22   -1    0    0    0    0  0.00000000000E+00  0.00000000000E+00  0.46082023544E+02  0.46082023544E+02  0.00000000000E+00 0.  1.
         22   -1    0    0    0    0 -0.00000000000E+00 -0.00000000000E+00 -0.89029331796E+03  0.89029331796E+03  0.00000000000E+00 0. -1.
        -24    2    1    2    0    0 -0.60899574222E+02  0.69731006974E+02 -0.29917522546E+03  0.32391755520E+03  0.82738114304E+02 0.  0.
         25    2    1    2    0    0  0.11747167448E+02 -0.11909355935E+03 -0.39745465880E+03  0.43352023148E+03  0.12509321916E+03 0.  0.
         24    2    1    2    0    0  0.49152406774E+02  0.49362552381E+02 -0.14758141015E+03  0.17893755483E+03  0.73387704938E+02 0.  0.
        -11    1    5    5    0    0  0.56359108452E+02  0.24301507695E+02 -0.53862113849E+02  0.81658065676E+02  0.00000000000E+00 0.  1.
         12    1    5    5    0    0 -0.72067016787E+01  0.25061044686E+02 -0.93719296305E+02  0.97279489152E+02  0.00000000000E+00 0. -1.
         11    1    3    3    0    0  0.14402454473E+01  0.60197892614E+02 -0.16547289694E+03  0.17608844427E+03  0.00000000000E+00 0. -1.
        -12    1    3    3    0    0 -0.62339819669E+02  0.95331143603E+01 -0.13370232852E+03  0.14782911093E+03  0.00000000000E+00 0.  1.
          5    1    4    4  501    0 -0.13264986617E+02 -0.13582794280E+03 -0.36162492762E+03  0.38654268922E+03  0.41800000000E+01 0.  1.
         -5    1    4    4    0  501  0.25012154065E+02  0.16734383446E+02 -0.35829731188E+02  0.46977542266E+02  0.41800000000E+01 0.  1.
</event>
<event>
11    1  0.8864208E-009  0.1727255E+03  0.7561462E-02  0.1075684E+00
         22   -1    0    0    0    0  0.00000000000E+00  0.00000000000E+00  0.18814548819E+04  0.18814548819E+04  0.00000000000E+00 0.  1.
         22   -1    0    0    0    0 -0.00000000000E+00 -0.00000000000E+00 -0.97297132079E+02  0.97297132079E+02  0.00000000000E+00 0. -1.
        -24    2    1    2    0    0  0.40588032838E+02  0.22079094749E+02 -0.41579991443E+02  0.10362194117E+03  0.82907998221E+02 0.  0.
         25    2    1    2    0    0 -0.14461640778E+03  0.27207390521E+02  0.41900488725E+03  0.46137637492E+03  0.12509562860E+03 0.  0.
         24    2    1    2    0    0  0.10402837495E+03 -0.49286485269E+02  0.14067328540E+04  0.14137536979E+04  0.80939083929E+02 0.  0.
        -13    1    5    5    0    0  0.92799463187E+02 -0.68000903462E+01  0.79085322031E+03  0.79630823032E+03  0.00000000000E+00 0.  1.
         14    1    5    5    0    0  0.11228911758E+02 -0.42486394923E+02  0.61587963369E+03  0.61744546756E+03  0.00000000000E+00 0. -1.
         13    1    3    3    0    0  0.59542504578E+02  0.34198168800E+02 -0.43104097301E+02  0.81072731574E+02  0.00000000000E+00 0. -1.
        -14    1    3    3    0    0 -0.18954471740E+02 -0.12119074052E+02  0.15241058576E+01  0.22549209597E+02  0.00000000000E+00 0.  1.
          5    1    4    4  501    0 -0.16728126947E+03  0.26778162380E+02  0.37990942286E+03  0.41599126802E+03  0.41800000000E+01 0. -1.
         -5    1    4    4    0  501  0.22664861685E+02  0.42922814026E+00  0.39095464396E+02  0.45385106900E+02  0.41800000000E+01 0. -1.
</event>
<event>
11    1  0.8864208E-009  0.1368834E+03  0.7561462E-02  0.1111089E+00
         22   -1    0    0    0    0  0.00000000000E+00  0.00000000000E+00  0.52984620498E+03  0.52984620498E+03  0.00000000000E+00 0. -1.
         22   -1    0    0    0    0 -0.00000000000E+00 -0.00000000000E+00 -0.19668873278E+03  0.19668873278E+03  0.00000000000E+00 0. -1.
        -24    2    1    2    0    0 -0.18493299911E+02 -0.23261771754E+02 -0.14762707894E+03  0.17045343959E+03  0.79859304174E+02 0.  0.
         25    2    1    2    0    0 -0.39051846594E+02  0.67004923735E+01  0.10879842773E+03  0.17045405070E+03  0.12509013632E+03 0.  0.
         24    2    1    2    0    0  0.57545146505E+02  0.16561279381E+02  0.37198612341E+03  0.38562744747E+03  0.82153103269E+02 0.  0.
        -11    1    5    5    0    0  0.16359698592E+02 -0.16225861836E+01  0.69884609316E+01  0.17863681315E+02  0.00000000000E+00 0.  1.
         12    1    5    5    0    0  0.41185447914E+02  0.18183865565E+02  0.36499766248E+03  0.36776376616E+03  0.00000000000E+00 0. -1.
         11    1    3    3    0    0  0.12487021595E+02 -0.56733658200E+01 -0.12997212955E+03  0.13069379193E+03  0.00000000000E+00 0. -1.
        -12    1    3    3    0    0 -0.30980321506E+02 -0.17588405934E+02 -0.17654949388E+02  0.39759647657E+02  0.00000000000E+00 0.  1.
          5    1    4    4  501    0  0.33378576856E+02 -0.27583004009E+02  0.12822112892E+02  0.45352293019E+02  0.41800000000E+01 0. -1.
         -5    1    4    4    0  501 -0.72430423450E+02  0.34283496382E+02  0.95976314842E+02  0.12510175769E+03  0.41800000000E+01 0. -1.
</event>
<event>
11    1  0.8864208E-009  0.1822383E+03  0.7561462E-02  0.1067847E+00
         22   -1    0    0    0    0  0.00000000000E+00  0.00000000000E+00  0.30858316589E+04  0.30858316589E+04  0.00000000000E+00 0.  1.
         22   -1    0    0    0    0 -0.00000000000E+00 -0.00000000000E+00 -0.54919909422E+02  0.54919909422E+02  0.00000000000E+00 0.  1.
        -24    2    1    2    0    0 -0.35309673356E+02  0.11190861761E+03  0.15111697748E+03  0.20772086958E+03  0.80878347216E+02 0.  0.
         25    2    1    2    0    0 -0.28665096936E+02 -0.18635702614E+03  0.48819099096E+03  0.53807851547E+03  0.12508963258E+03 0.  0.
         24    2    1    2    0    0  0.63974770292E+02  0.74448408529E+02  0.23916037811E+04  0.23949521833E+04  0.79949846333E+02 0.  0.
        -11    1    5    5    0    0  0.50479220547E+02  0.48107467381E+02  0.21973918296E+04  0.21984979720E+04  0.00000000000E+00 0.  1.
         12    1    5    5    0    0  0.13495549745E+02  0.26340941148E+02  0.19421195146E+03  0.19645421129E+03  0.00000000000E+00 0. -1.
         13    1    3    3    0    0 -0.13285549732E+02  0.26231681525E+01 -0.62110574547E+01  0.14898458899E+02  0.00000000000E+00 0. -1.
        -14    1    3    3    0    0 -0.22024123624E+02  0.10928544946E+03  0.15732803493E+03  0.19282241068E+03  0.00000000000E+00 0.  1.
          5    1    4    4  501    0  0.67537166466E+01 -0.15614989883E+03  0.45400243563E+03  0.48017089411E+03  0.41800000000E+01 0. -1.
         -5    1    4    4    0  501 -0.35418813582E+02 -0.30207127305E+02  0.34188555336E+02  0.57907621360E+02  0.41800000000E+01 0. -1.
</event>
<event>
11    1  0.8864208E-009  0.1366166E+03  0.7561462E-02  0.1111396E+00
         22   -1    0    0    0    0  0.00000000000E+00  0.00000000000E+00  0.51488405237E+03  0.51488405237E+03  0.00000000000E+00 0. -1.
         22   -1    0    0    0    0 -0.00000000000E+00 -0.00000000000E+00 -0.30057420738E+03  0.30057420738E+03  0.00000000000E+00 0. -1.
         24    2    1    2    0    0  0.20337295176E+02 -0.53010637748E+02 -0.25204223900E+03  0.27093065644E+03  0.81574487839E+02 0.  0.
         25    2    1    2    0    0  0.28366851100E+02  0.39943157083E+02  0.10372876346E+03  0.16972639283E+03  0.12508900037E+03 0.  0.
        -24    2    1    2    0    0 -0.48704146276E+02  0.13067480665E+02  0.36262332054E+03  0.37480121048E+03  0.80233545773E+02 0.  0.
        -13    1    3    3    0    0 -0.15961475663E+02  0.15200904603E+02 -0.51571987699E+02  0.56084811859E+02  0.00000000000E+00 0.  1.
         14    1    3    3    0    0  0.36298770839E+02 -0.68211542351E+02 -0.20047025130E+03  0.21484584458E+03  0.00000000000E+00 0. -1.
         13    1    5    5    0    0 -0.22528161209E+02  0.11578527953E+02  0.33762993154E+03  0.33857872205E+03  0.00000000000E+00 0. -1.
        -14    1    5    5    0    0 -0.26175985068E+02  0.14889527116E+01  0.24993389000E+02  0.36222488431E+02  0.00000000000E+00 0.  1.
          5    1    4    4  501    0  0.97151388809E+01  0.83644482225E+02  0.80899405445E+02  0.11684592219E+03  0.41800000000E+01 0.  1.
         -5    1    4    4    0  501  0.18651712219E+02 -0.43701325142E+02  0.22829358013E+02  0.52880470641E+02  0.41800000000E+01 0.  1.
</event>
<event>
11    1  0.8864208E-009  0.1484171E+03  0.7561462E-02  0.1098507E+00
         22   -1    0    0    0    0  0.00000000000E+00  0.00000000000E+00  0.48848296091E+03  0.48848296091E+03  0.00000000000E+00 0.  1.
         22   -1    0    0    0    0 -0.00000000000E+00 -0.00000000000E+00 -0.87348553692E+03  0.87348553692E+03  0.00000000000E+00 0.  1.
         24    2    1    2    0    0 -0.75596392634E+02  0.24503449307E+02 -0.73818485218E+03  0.74721122016E+03  0.84216969400E+02 0.  0.
         25    2    1    2    0    0  0.97325921616E+02  0.31924321982E+02 -0.72265391004E+02  0.17709312464E+03  0.12509272843E+03 0.  0.
        -24    2    1    2    0    0 -0.21729528982E+02 -0.56427771290E+02  0.42544766718E+03  0.43766415303E+03  0.82993539092E+02 0.  0.
        -13    1    3    3    0    0 -0.60030686492E+01  0.42602636665E+01 -0.44973115733E+03  0.44979139671E+03  0.00000000000E+00 0.  1.
         14    1    3    3    0    0 -0.69593323985E+02  0.20243185641E+02 -0.28845369485E+03  0.29741982345E+03  0.00000000000E+00 0. -1.
         11    1    5    5    0    0 -0.32052024916E+02 -0.62605633871E+00  0.61849001953E+02  0.69663643964E+02  0.00000000000E+00 0. -1.
        -12    1    5    5    0    0  0.10322495934E+02 -0.55801714951E+02  0.36359866523E+03  0.36800050906E+03  0.00000000000E+00 0.  1.
          5    1    4    4  501    0  0.48497505851E+02  0.31662342993E+02  0.28765696417E+02  0.64803161404E+02  0.41800000000E+01 0.  1.
         -5    1    4    4    0  501  0.48828415764E+02  0.26197898984E+00 -0.10103108742E+03  0.11228996324E+03  0.41800000000E+01 0.  1.
</event>
<event>
11    1  0.8864208E-009  0.1088739E+04  0.7561462E-02  0.8598908E-01
         22   -1    0    0    0    0  0.00000000000E+00  0.00000000000E+00  0.94653553915E+03  0.94653553915E+03  0.00000000000E+00 0. -1.
         22   -1    0    0    0    0 -0.00000000000E+00 -0.00000000000E+00 -0.31307670706E+03  0.31307670706E+03  0.00000000000E+00 0. -1.
        -24    2    1    2    0    0 -0.99120791840E+01 -0.26917843961E+03 -0.10177226475E+03  0.29879604706E+03  0.79788484162E+02 0.  0.
         25    2    1    2    0    0 -0.43662737400E+02  0.39416322721E+03  0.67298847025E+03  0.79109576109E+03  0.12509171755E+03 0.  0.
         24    2    1    2    0    0  0.53574816584E+02 -0.12498478760E+03  0.62242626602E+02  0.16972043805E+03  0.80246024340E+02 0.  0.
        -11    1    5    5    0    0  0.57722911110E+02 -0.48537772949E+02  0.78904347351E+01  0.75829472042E+02  0.00000000000E+00 0.  1.
         12    1    5    5    0    0 -0.41480945258E+01 -0.76447014656E+02  0.54352191867E+02  0.93890966012E+02  0.00000000000E+00 0. -1.
         11    1    3    3    0    0  0.26343290480E+02 -0.18954607432E+03 -0.52764739207E+02  0.19850894425E+03  0.00000000000E+00 0. -1.
        -12    1    3    3    0    0 -0.36255369664E+02 -0.79632365288E+02 -0.49007525547E+02  0.10028710282E+03  0.00000000000E+00 0.  1.
          5    1    4    4  501    0 -0.42552293239E+02  0.33082558342E+02  0.10353933753E+03  0.11680333960E+03  0.41800000000E+01 0. -1.
         -5    1    4    4    0  501 -0.11104441612E+01  0.36108066887E+03  0.56944913273E+03  0.67429242149E+03  0.41800000000E+01 0. -1.
</event>
<event>
11    1  0.8864208E-009  0.1940293E+03  0.7561462E-02  0.1058828E+00
         22   -1    0    0    0    0  0.00000000000E+00  0.00000000000E+00  0.50265172091E+03  0.50265172091E+03  0.00000000000E+00 0. -1.
         22   -1    0    0    0    0 -0.00000000000E+00 -0.00000000000E+00 -0.41180599257E+03  0.41180599257E+03  0.00000000000E+00 0.  1.
         24    2    1    2    0    0 -0.14834015482E+03 -0.47862337181E+02 -0.29447955097E+03  0.34815212308E+03  0.10097569019E+03 0.  0.
         25    2    1    2    0    0  0.13271078691E+03 -0.43676868699E+02  0.29873982379E+02  0.18989966874E+03  0.12509839144E+03 0.  0.
        -24    2    1    2    0    0  0.15629367906E+02  0.91539205880E+02  0.35545129694E+03  0.37640592167E+03  0.81927345947E+02 0.  0.
        -13    1    3    3    0    0 -0.41652884760E+02  0.20879512922E+02 -0.14371745505E+03  0.15108151361E+03  0.00000000000E+00 0.  1.
         14    1    3    3    0    0 -0.10668727006E+03 -0.68741850103E+02 -0.15076209593E+03  0.19707060947E+03  0.00000000000E+00 0. -1.
         13    1    5    5    0    0 -0.15559943773E+02  0.68465919375E+01  0.16253549527E+03  0.16342207591E+03  0.00000000000E+00 0. -1.
        -14    1    5    5    0    0  0.31189311679E+02  0.84692613943E+02  0.19291580167E+03  0.21298384576E+03  0.00000000000E+00 0.  1.
          5    1    4    4  501    0  0.14915679831E+03 -0.30776003939E+02 -0.10271916203E+01  0.15235957608E+03  0.41800000000E+01 0.  1.
         -5    1    4    4    0  501 -0.16446011394E+02 -0.12900864760E+02  0.30901174000E+02  0.37540092660E+02  0.41800000000E+01 0.  1.
</event>
<event>
11    1  0.8864208E-009  0.1419726E+03  0.7561462E-02  0.1105375E+00
         22   -1    0    0    0    0  0.00000000000E+00  0.00000000000E+00  0.47116251654E+03  0.47116251654E+03  0.00000000000E+00 0. -1.
         22   -1    0    0    0    0 -0.00000000000E+00 -0.00000000000E+00 -0.93124350151E+03  0.93124350151E+03  0.00000000000E+00 0. -1.
         24    2    1    2    0    0  0.48917510122E+02  0.45981447897E+02 -0.88387613254E+03  0.89005942902E+03  0.80383786692E+02 0.  0.
         25    2    1    2    0    0 -0.73226628853E+02 -0.20570626724E+02  0.10368864779E+03  0.17939948676E+03  0.12509016872E+03 0.  0.
        -24    2    1    2    0    0  0.24309118731E+02 -0.25410821174E+02  0.32010649979E+03  0.33294710227E+03  0.84551514591E+02 0.  0.
        -13    1    3    3    0    0 -0.20017791256E+02  0.22159180209E+02 -0.18593315022E+03  0.18831589839E+03  0.00000000000E+00 0.  1.
         14    1    3    3    0    0  0.68935301379E+02  0.23822267688E+02 -0.69794298232E+03  0.70174353063E+03  0.00000000000E+00 0. -1.
         13    1    5    5    0    0  0.12755186513E+02 -0.29773738762E+02  0.31889700215E+03  0.32053777980E+03  0.00000000000E+00 0. -1.
        -14    1    5    5    0    0  0.11553932218E+02  0.43629175886E+01  0.12094976389E+01  0.12409322468E+02  0.00000000000E+00 0.  1.
          5    1    4    4  501    0 -0.87624188341E+02 -0.35223411724E+02  0.24740040872E+02  0.97715040492E+02  0.41800000000E+01 0.  1.
         -5    1    4    4    0  501  0.14397559488E+02  0.14652785000E+02  0.78948606918E+02  0.81684446266E+02  0.41800000000E+01 0.  1.
</event>
<event>
11    1  0.8864208E-009  0.2199080E+03  0.7561462E-02  0.1041275E+00
         22   -1    0    0    0    0  0.00000000000E+00  0.00000000000E+00  0.20116047397E+03  0.20116047397E+03  0.00000000000E+00 0. -1.
         22   -1    0    0    0    0 -0.00000000000E+00 -0.00000000000E+00 -0.15346264624E+04  0.15346264624E+04  0.00000000000E+00 0.  1.
        -24    2    1    2    0    0 -0.87735212596E+02  0.10268790248E+02 -0.12634835943E+04  0.12689515534E+04  0.77745329514E+02 0.  0.
         25    2    1    2    0    0  0.24613223023E+02  0.16943419229E+03 -0.13357629739E+03  0.25061141594E+03  0.12509875423E+03 0.  0.
         24    2    1    2    0    0  0.63121989573E+02 -0.17970298253E+03  0.63593903271E+02  0.21622396700E+03  0.80193964068E+02 0.  0.
        -11    1    5    5    0    0  0.79556758164E+02 -0.12457552874E+03  0.34610339132E+02  0.15180980109E+03  0.00000000000E+00 0.  1.
         12    1    5    5    0    0 -0.16434768591E+02 -0.55127453790E+02  0.28983564140E+02  0.64414165913E+02  0.00000000000E+00 0. -1.
         13    1    3    3    0    0 -0.36043076226E+02  0.42656962242E+02 -0.67933565925E+03  0.68162721315E+03  0.00000000000E+00 0. -1.
        -14    1    3    3    0    0 -0.51692136370E+02 -0.32388171994E+02 -0.58414793508E+03  0.58732434029E+03  0.00000000000E+00 0.  1.
          5    1    4    4  501    0  0.72873276600E+02  0.12022198592E+03 -0.10658688553E+03  0.17647117869E+03  0.41800000000E+01 0. -1.
         -5    1    4    4    0  501 -0.48260053577E+02  0.49212206363E+02 -0.26989411860E+02  0.74140237246E+02  0.41800000000E+01 0. -1.
</event>
<event>
11    1  0.8864208E-009  0.1573122E+03  0.7561462E-02  0.1089633E+00
         22   -1    0    0    0    0  0.00000000000E+00  0.00000000000E+00  0.14961238495E+04  0.14961238495E+04  0.00000000000E+00 0.  1.
         22   -1    0    0    0    0 -0.00000000000E+00 -0.00000000000E+00 -0.69699531368E+02  0.69699531368E+02  0.00000000000E+00 0. -1.
         24    2    1    2    0    0 -0.28631890972E+00 -0.92337541179E+02  0.18851953467E+02  0.12326280230E+03  0.79448214536E+02 0.  0.
         25    2    1    2    0    0 -0.32340158899E+02  0.11615985350E+03  0.48344692611E+03  0.51372064673E+03  0.12509586353E+03 0.  0.
        -24    2    1    2    0    0  0.32626477809E+02 -0.23822312317E+02  0.92412543854E+03  0.92883993182E+03  0.84284062311E+02 0.  0.
        -13    1    3    3    0    0 -0.16110884628E+02  0.31222941626E+01  0.20782966210E+02  0.26480955588E+02  0.00000000000E+00 0.  1.
         14    1    3    3    0    0  0.15824565719E+02 -0.95459835342E+02 -0.19310127434E+01  0.96781846717E+02  0.00000000000E+00 0. -1.
         11    1    5    5    0    0  0.46554328718E+02  0.13714467768E+02  0.64958020292E+03  0.65139069089E+03  0.00000000000E+00 0. -1.
        -12    1    5    5    0    0 -0.13927850909E+02 -0.37536780086E+02  0.27454523562E+03  0.27744924093E+03  0.00000000000E+00 0.  1.
          5    1    4    4  501    0 -0.40152082146E+02  0.18350525442E+02  0.31984697892E+03  0.32290632358E+03  0.41800000000E+01 0.  1.
         -5    1    4    4    0  501  0.78119232475E+01  0.97809328055E+02  0.16359994719E+03  0.19081432315E+03  0.41800000000E+01 0.  1.
</event>
<event>
11    1  0.8864208E-009  0.6733019E+03  0.7561462E-02  0.9072600E-01
         22   -1    0    0    0    0  0.00000000000E+00  0.00000000000E+00  0.13070030667E+04  0.13070030667E+04  0.00000000000E+00 0.  1.
         22   -1    0    0    0    0 -0.00000000000E+00 -0.00000000000E+00 -0.10460824100E+04  0.10460824100E+04  0.00000000000E+00 0.  1.
         24    2    1    2    0    0  0.46069588811E+03  0.40534521182E+03 -0.46349587803E+03  0.77320467612E+03  0.80446256285E+02 0.  0.
         25    2    1    2    0    0 -0.75262021209E+03 -0.33464141360E+03  0.46839113932E+02  0.83442434197E+03  0.12509204824E+03 0.  0.
        -24    2    1    2    0    0  0.29192432397E+03 -0.70703798218E+02  0.67757742081E+03  0.74545645869E+03  0.79845679905E+02 0.  0.
        -11    1    3    3    0    0  0.42497185890E+03  0.39220685228E+03 -0.41620465309E+03  0.71249814673E+03  0.00000000000E+00 0.  1.
         12    1    3    3    0    0  0.35724029217E+02  0.13138359538E+02 -0.47291224939E+02  0.60706529395E+02  0.00000000000E+00 0. -1.
         11    1    5    5    0    0  0.13364733526E+03 -0.23480189483E+00  0.23782457998E+03  0.27280431851E+03  0.00000000000E+00 0. -1.
        -12    1    5    5    0    0  0.15827698871E+03 -0.70468996323E+02  0.43975284082E+03  0.47265214017E+03  0.00000000000E+00 0.  1.
          5    1    4    4  501    0 -0.35285444625E+03 -0.22232784659E+03  0.41370444833E+02  0.41912398847E+03  0.41800000000E+01 0.  1.
         -5    1    4    4    0  501 -0.39976576584E+03 -0.11231356701E+03  0.54686690991E+01  0.41530035349E+03  0.41800000000E+01 0.  1.
</event>
<event>
11    1  0.8864208E-009  0.1373979E+03  0.7561462E-02  0.1110499E+00
         22   -1    0    0    0    0  0.00000000000E+00  0.00000000000E+00  0.21585269853E+03  0.21585269853E+03  0.00000000000E+00 0. -1.
         22   -1    0    0    0    0 -0.00000000000E+00 -0.00000000000E+00 -0.80891261889E+03  0.80891261889E+03  0.00000000000E+00 0.  1.
        -24    2    1    2    0    0  0.19862699371E+02  0.19646896305E+02 -0.59748386559E+03  0.60340094390E+03  0.79531139193E+02 0.  0.
         25    2    1    2    0    0 -0.72254591170E+02 -0.37477795532E+02 -0.16765033749E+03  0.22445218593E+03  0.12508731751E+03 0.  0.
         24    2    1    2    0    0  0.52391891799E+02  0.17830899227E+02  0.17207428272E+03  0.19691218760E+03  0.78115296573E+02 0.  0.
        -11    1    5    5    0    0 -0.16015380694E+02  0.12108895997E+02  0.13716376634E+02  0.24315772022E+02  0.00000000000E+00 0.  1.
         12    1    5    5    0    0  0.68407272492E+02  0.57220032301E+01  0.15835790609E+03  0.17259641558E+03  0.00000000000E+00 0. -1.
         11    1    3    3    0    0  0.17023141951E+02 -0.14379063426E+02 -0.48699917793E+02  0.53555829001E+02  0.00000000000E+00 0. -1.
        -12    1    3    3    0    0  0.28395574209E+01  0.34025959731E+02 -0.54878394779E+03  0.54984511490E+03  0.00000000000E+00 0.  1.
          5    1    4    4  501    0 -0.14068016446E+02  0.36644073072E+02 -0.99713376076E+01  0.40713599101E+02  0.41800000000E+01 0. -1.
         -5    1    4    4    0  501 -0.58186574724E+02 -0.74121868605E+02 -0.15767899989E+03  0.18373858682E+03  0.41800000000E+01 0. -1.
</event>
<event>
11    1  0.8864208E-009  0.1538771E+03  0.7561462E-02  0.1092982E+00
         22   -1    0    0    0    0  0.00000000000E+00  0.00000000000E+00  0.95495993461E+03  0.95495993461E+03  0.00000000000E+00 0. -1.
         22   -1    0    0    0    0 -0.00000000000E+00 -0.00000000000E+00 -0.12569640962E+04  0.12569640962E+04  0.00000000000E+00 0.  1.
        -24    2    1    2    0    0 -0.41183988323E+01  0.15570944834E+02 -0.11095788316E+04  0.11125907522E+04  0.80209618364E+02 0.  0.
         25    2    1    2    0    0  0.91581692424E+02  0.38604807837E+01 -0.99595926317E+02  0.18430659692E+03  0.12508982145E+03 0.  0.
         24    2    1    2    0    0 -0.87463293592E+02 -0.19431425618E+02  0.90717059625E+03  0.91502668173E+03  0.79296466264E+02 0.  0.
        -13    1    5    5    0    0  0.10496685568E+02  0.15876833053E+01  0.24671971305E+02  0.26859026681E+02  0.00000000000E+00 0.  1.
         14    1    5    5    0    0 -0.97959979159E+02 -0.21019108923E+02  0.88249862494E+03  0.88816765505E+03  0.00000000000E+00 0. -1.
         11    1    3    3    0    0 -0.11113422973E+02 -0.10985010984E+02 -0.44605376059E+02  0.47263286067E+02  0.00000000000E+00 0. -1.
        -12    1    3    3    0    0  0.69950241404E+01  0.26555955818E+02 -0.10649734555E+04  0.10653274661E+04  0.00000000000E+00 0.  1.
          5    1    4    4  501    0 -0.13579060490E+02  0.38313187281E+02 -0.10539716782E+02  0.42200109398E+02  0.41800000000E+01 0.  1.
         -5    1    4    4    0  501  0.10516075291E+03 -0.34452706497E+02 -0.89056209535E+02  0.14210648752E+03  0.41800000000E+01 0.  1.
</event>
<event>
11    1  0.8864208E-009  0.1355012E+03  0.7561462E-02  0.1112689E+00
         22   -1    0    0    0    0  0.00000000000E+00  0.00000000000E+00  0.86934405846E+03  0.86934405846E+03  0.00000000000E+00 0.  1.
         22   -1    0    0    0    0 -0.00000000000E+00 -0.00000000000E+00 -0.24479804217E+03  0.24479804217E+03  0.00000000000E+00 0. -1.
        -24    2    1    2    0    0 -0.38053658740E+02 -0.35631888480E+02 -0.21456278590E+03  0.23511741414E+03  0.80779309969E+02 0.  0.
         25    2    1    2    0    0  0.51539601785E+02  0.19218513484E+02  0.25421607086E+03  0.28861561338E+03  0.12508988685E+03 0.  0.
         24    2    1    2    0    0 -0.13485943045E+02  0.16413374996E+02  0.58489273133E+03  0.59040907311E+03  0.77666575246E+02 0.  0.
        -13    1    5    5    0    0 -0.82126238359E+01  0.27890315654E+02  0.57057999832E+03  0.57132027041E+03  0.00000000000E+00 0.  1.
         14    1    5    5    0    0 -0.52733192086E+01 -0.11476940658E+02  0.14312733008E+02  0.19088802700E+02  0.00000000000E+00 0. -1.
         13    1    3    3    0    0 -0.38905496963E+02 -0.60048636865E+02 -0.16565457542E+03  0.18044643206E+03  0.00000000000E+00 0. -1.
        -14    1    3    3    0    0  0.85183822267E+00  0.24416748385E+02 -0.48908210478E+02  0.54670982085E+02  0.00000000000E+00 0.  1.
          5    1    4    4  501    0  0.34014766954E+02  0.48222158650E+02  0.24664725304E+03  0.25364290014E+03  0.41800000000E+01 0.  1.
         -5    1    4    4    0  501  0.17524834831E+02 -0.29003645166E+02  0.75688178184E+01  0.34972713248E+02  0.41800000000E+01 0.  1.
</event>
<event>
11    1  0.8864208E-009  0.1402510E+03  0.7561462E-02  0.1107278E+00
         22   -1    0    0    0    0  0.00000000000E+00  0.00000000000E+00  0.15779060739E+04  0.15779060739E+04  0.00000000000E+00 0. -1.
         22   -1    0    0    0    0 -0.00000000000E+00 -0.00000000000E+00 -0.17602602472E+03  0.17602602472E+03  0.00000000000E+00 0. -1.
         24    2    1    2    0    0  0.23358990924E+02  0.53786906409E+02 -0.12993268054E+03  0.16365452308E+03  0.80384250292E+02 0.  0.
         25    2    1    2    0    0 -0.54486069897E+02  0.40548195255E+01  0.14306359501E+03  0.19774334729E+03  0.12510022304E+03 0.  0.
        -24    2    1    2    0    0  0.31127078973E+02 -0.57841725934E+02  0.13887491347E+04  0.13925342283E+04  0.78821681078E+02 0.  0.
        -11    1    3    3    0    0 -0.19867823868E+01 -0.57877066897E+01  0.87074988120E+01  0.10642621319E+02  0.00000000000E+00 0.  1.
         12    1    3    3    0    0  0.25345773311E+02  0.59574613099E+02 -0.13864017935E+03  0.15301190176E+03  0.00000000000E+00 0. -1.
         13    1    5    5    0    0 -0.68888392640E+01 -0.61340463183E+02  0.69509549086E+03  0.69783081757E+03  0.00000000000E+00 0. -1.
        -14    1    5    5    0    0  0.38015918237E+02  0.34987372490E+01  0.69365364384E+03  0.69470341068E+03  0.00000000000E+00 0.  1.
          5    1    4    4  501    0 -0.36797373641E+02  0.62247250736E+02  0.56475740628E+02  0.91846331503E+02  0.41800000000E+01 0. -1.
         -5    1    4    4    0  501 -0.17688696257E+02 -0.58192431210E+02  0.86587854386E+02  0.10589701579E+03  0.41800000000E+01 0. -1.
</event>
<event>
11    1  0.8864208E-009  0.1879150E+03  0.7561462E-02  0.1063414E+00
         22   -1    0    0    0    0  0.00000000000E+00  0.00000000000E+00  0.16092193940E+04  0.16092193940E+04  0.00000000000E+00 0. -1.
         22   -1    0    0    0    0 -0.00000000000E+00 -0.00000000000E+00 -0.66778364882E+02  0.66778364882E+02  0.00000000000E+00 0.  1.
         24    2    1    2    0    0  0.35580035842E+02  0.13788394494E+03  0.70807754978E+02  0.17678438575E+03  0.77207898928E+02 0.  0.
         25    2    1    2    0    0 -0.42811500129E+02 -0.12126505761E+03  0.67546458684E+03  0.69888337500E+03  0.12509006770E+03 0.  0.
        -24    2    1    2    0    0  0.72314642869E+01 -0.16618887327E+02  0.79616868728E+03  0.80032999811E+03  0.79467262303E+02 0.  0.
        -13    1    3    3    0    0  0.26950616011E+02  0.10359740669E+03  0.11398823558E+02  0.10765078521E+03  0.00000000000E+00 0.  1.
         14    1    3    3    0    0  0.86294198306E+01  0.34286538248E+02  0.59408931421E+02  0.69133600544E+02  0.00000000000E+00 0. -1.
         13    1    5    5    0    0  0.34695859478E+02  0.54676330685E+01  0.59952428734E+03  0.60055230312E+03  0.00000000000E+00 0. -1.
        -14    1    5    5    0    0 -0.27464395192E+02 -0.22086520395E+02  0.19664439994E+03  0.19977769499E+03  0.00000000000E+00 0.  1.
          5    1    4    4  501    0  0.42622138329E+02 -0.58987751626E+02  0.30639393670E+03  0.31494589752E+03  0.41800000000E+01 0. -1.
         -5    1    4    4    0  501 -0.85433638458E+02 -0.62277305989E+02  0.36907065014E+03  0.38393747748E+03  0.41800000000E+01 0. -1.
</event>
<event>
11    1  0.8864208E-009  0.1434348E+03  0.7561462E-02  0.1103782E+00
         22   -1    0    0    0    0  0.00000000000E+00  0.00000000000E+00  0.19140903178E+04  0.19140903178E+04  0.00000000000E+00 0. -1.
         22   -1    0    0    0    0 -0.00000000000E+00 -0.00000000000E+00 -0.13417141117E+03  0.13417141117E+03  0.00000000000E+00 0. -1.
        -24    2    1    2    0    0 -0.20378356087E+02  0.59483055958E+02 -0.81538579733E+02  0.13073395379E+03  0.80556286811E+02 0.  0.
         25    2    1    2    0    0 -0.59797716248E+01 -0.12118713721E+03  0.26339570507E+03  0.31582845432E+03  0.12509290635E+03 0.  0.
         24    2    1    2    0    0  0.26358127712E+02  0.61704081250E+02  0.15980617813E+04  0.16016993209E+04  0.84481436145E+02 0.  0.
        -11    1    5    5    0    0 -0.30417679019E+02  0.19862292871E+02  0.65280033122E+03  0.65381038407E+03  0.00000000000E+00 0.  1.
         12    1    5    5    0    0  0.56775806731E+02  0.41841788379E+02  0.94526145013E+03  0.94788893684E+03  0.00000000000E+00 0. -1.
         11    1    3    3    0    0 -0.45352797691E+02  0.51791598226E+02 -0.78524591224E+02  0.10442871890E+03  0.00000000000E+00 0. -1.
        -12    1    3    3    0    0  0.24974441604E+02  0.76914577313E+01 -0.30139885098E+01  0.26305234882E+02  0.00000000000E+00 0.  1.
          5    1    4    4  501    0 -0.47859500594E+02 -0.26350252195E+01  0.64083939146E+02  0.80135502816E+02  0.41800000000E+01 0.  1.
         -5    1    4    4    0  501  0.41879728970E+02 -0.11855211199E+03  0.19931176592E+03  0.23569295151E+03  0.41800000000E+01 0.  1.
</event>
<event>
11    1  0.8864208E-009  0.1623327E+03  0.7561462E-02  0.1084904E+00
         22   -1    0    0    0    0  0.00000000000E+00  0.00000000000E+00  0.17992889345E+03  0.17992889345E+03  0.00000000000E+00 0.  1.
         22   -1    0    0    0    0 -0.00000000000E+00 -0.00000000000E+00 -0.48969141039E+03  0.48969141039E+03  0.00000000000E+00 0.  1.
         24    2    1    2    0    0  0.95556286962E+01 -0.68139393222E+02 -0.34428477192E+03  0.36073807396E+03  0.82859319807E+02 0.  0.
         25    2    1    2    0    0  0.62177040496E+02  0.12137479951E+03  0.94201226491E+01  0.18530240522E+03  0.12510162408E+03 0.  0.
        -24    2    1    2    0    0 -0.71732669193E+02 -0.53235406292E+02  0.25102132324E+02  0.12357982466E+03  0.81622740116E+02 0.  0.
        -11    1    3    3    0    0  0.55791911800E+01 -0.54418222712E+02 -0.34190736708E+03  0.34625585627E+03  0.00000000000E+00 0.  1.
         12    1    3    3    0    0  0.39764375162E+01 -0.13721170510E+02 -0.23774048429E+01  0.14482217692E+02  0.00000000000E+00 0. -1.
         11    1    5    5    0    0  0.13814454898E+02 -0.18110760171E+02 -0.97178919772E+01  0.24764414440E+02  0.00000000000E+00 0. -1.
        -12    1    5    5    0    0 -0.85547124090E+02 -0.35124646121E+02  0.34820024301E+02  0.98815410223E+02  0.00000000000E+00 0.  1.
          5    1    4    4  501    0  0.32406467306E+02 -0.19350427105E+02  0.16100323207E+02  0.41246950915E+02  0.41800000000E+01 0.  1.
         -5    1    4    4    0  501  0.29770573190E+02  0.14072522662E+03 -0.66802005575E+01  0.14405545430E+03  0.41800000000E+01 0.  1.
</event>
<event>
11    1  0.8864208E-009  0.1438555E+03  0.7561462E-02  0.1103328E+00
         22   -1    0    0    0    0  0.00000000000E+00  0.00000000000E+00  0.31073175735E+03  0.31073175735E+03  0.00000000000E+00 0.  1.
         22   -1    0    0    0    0 -0.00000000000E+00 -0.00000000000E+00 -0.65377123790E+03  0.65377123790E+03  0.00000000000E+00 0.  1.
         24    2    1    2    0    0  0.66473498058E+02  0.79217967889E+01 -0.30453254273E+03  0.32221483722E+03  0.81245621028E+02 0.  0.
         25    2    1    2    0    0 -0.75291811322E+02 -0.26716813882E+02 -0.31854176841E+03  0.35142224500E+03  0.12508433579E+03 0.  0.
        -24    2    1    2    0    0  0.88183132644E+01  0.18795017093E+02  0.28003483059E+03  0.29086591303E+03  0.75844958320E+02 0.  0.
        -11    1    3    3    0    0  0.68604794301E+02 -0.20911504478E+02 -0.16824231597E+03  0.18289173219E+03  0.00000000000E+00 0.  1.
         12    1    3    3    0    0 -0.21312962426E+01  0.28833301267E+02 -0.13629022676E+03  0.13932310503E+03  0.00000000000E+00 0. -1.
         11    1    5    5    0    0  0.32300343806E+02  0.76026171523E+01  0.54294906042E+02  0.63632136689E+02  0.00000000000E+00 0. -1.
        -12    1    5    5    0    0 -0.23482030542E+02  0.11192399940E+02  0.22573992455E+03  0.22723377634E+03  0.00000000000E+00 0.  1.
          5    1    4    4  501    0  0.33984015809E+02 -0.18086048526E+02 -0.83859316509E+02  0.92368153858E+02  0.41800000000E+01 0.  1.
         -5    1    4    4    0  501 -0.10927582713E+03 -0.86307653556E+01 -0.23468245190E+03  0.25905409114E+03  0.41800000000E+01 0.  1.
</event>
<event>
11    1  0.8864208E-009  0.1363259E+03  0.7561462E-02  0.1111732E+00
         22   -1    0    0    0    0  0.00000000000E+00  0.00000000000E+00  0.46925979291E+03  0.46925979291E+03  0.00000000000E+00 0. -1.
         22   -1    0    0    0    0 -0.00000000000E+00 -0.00000000000E+00 -0.42808183604E+03  0.42808183604E+03  0.00000000000E+00 0. -1.
         24    2    1    2    0    0  0.45213492448E+02 -0.69922366944E+01 -0.32087628977E+03  0.33399866712E+03  0.80624841294E+02 0.  0.
         25    2    1    2    0    0 -0.35936745398E+02  0.60372027189E+02 -0.40548716419E+02  0.14909073289E+03  0.12509043486E+03 0.  0.
        -24    2    1    2    0    0 -0.92767470507E+01 -0.53379790494E+02  0.40260296305E+03  0.41425222893E+03  0.81119068339E+02 0.  0.
        -11    1    3    3    0    0 -0.98854967848E+01  0.39230871842E+01 -0.20449672947E+03  0.20477310865E+03  0.00000000000E+00 0.  1.
         12    1    3    3    0    0  0.55098989233E+02 -0.10915323879E+02 -0.11637956029E+03  0.12922555848E+03  0.00000000000E+00 0. -1.
         13    1    5    5    0    0 -0.39375870550E+02 -0.54693211421E+02  0.28277227104E+03  0.29069221494E+03  0.00000000000E+00 0. -1.
        -14    1    5    5    0    0  0.30099123499E+02  0.13134209263E+01  0.11983069201E+03  0.12356001399E+03  0.00000000000E+00 0.  1.
          5    1    4    4  501    0  0.32839769162E+02  0.38361376545E+02  0.20281601913E+02  0.54578946721E+02  0.41800000000E+01 0. -1.
         -5    1    4    4    0  501 -0.68776514560E+02  0.22010650644E+02 -0.60830318332E+02  0.94511786171E+02  0.41800000000E+01 0. -1.
</event>
<event>
11    1  0.8864208E-009  0.1330926E+03  0.7561462E-02  0.1115527E+00
         22   -1    0    0    0    0  0.00000000000E+00  0.00000000000E+00  0.91855182169E+03  0.91855182169E+03  0.00000000000E+00 0. -1.
         22   -1    0    0    0    0 -0.00000000000E+00 -0.00000000000E+00 -0.52379825543E+03  0.52379825543E+03  0.00000000000E+00 0.  1.
        -24    2    1    2    0    0 -0.34666885957E+02  0.17802589808E+02 -0.45338246421E+03  0.46217390056E+03  0.80810459248E+02 0.  0.
         25    2    1    2    0    0  0.16059085714E+02  0.24946541555E+02  0.17173470298E+01  0.12857346726E+03  0.12509181841E+03 0.  0.
         24    2    1    2    0    0  0.18607800243E+02 -0.42749131364E+02  0.84641868344E+03  0.85160270930E+03  0.81417739672E+02 0.  0.
        -13    1    5    5    0    0  0.42522810395E+02 -0.39564551751E+02  0.36612577041E+03  0.37070422565E+03  0.00000000000E+00 0.  1.
         14    1    5    5    0    0 -0.23915010152E+02 -0.31845796127E+01  0.48029291303E+03  0.48089848364E+03  0.00000000000E+00 0. -1.
         13    1    3    3    0    0 -0.46911494756E+02  0.59819335192E+01 -0.12984302099E+03  0.13818712664E+03  0.00000000000E+00 0. -1.
        -14    1    3    3    0    0  0.12244608799E+02  0.11820656289E+02 -0.32353944322E+03  0.32398677392E+03  0.00000000000E+00 0.  1.
          5    1    4    4  501    0 -0.27933603341E+02  0.40502776233E+01 -0.49900758382E+02  0.57482597641E+02  0.41800000000E+01 0.  1.
         -5    1    4    4    0  501  0.43992689055E+02  0.20896263932E+02  0.51618105412E+02  0.71090869617E+02  0.41800000000E+01 0.  1.
</event>
<event>
11    1  0.8864208E-009  0.2603530E+03  0.7561462E-02  0.1018524E+00
         22   -1    0    0    0    0  0.00000000000E+00  0.00000000000E+00  0.43132998479E+03  0.43132998479E+03  0.00000000000E+00 0. -1.
         22   -1    0    0    0    0 -0.00000000000E+00 -0.00000000000E+00 -0.53955293399E+03  0.53955293399E+03  0.00000000000E+00 0.  1.
         24    2    1    2    0    0  0.19682876943E+03  0.10938870855E+03 -0.25346288357E+03  0.34839243626E+03  0.80164844293E+02 0.  0.
         25    2    1    2    0    0 -0.20741728650E+03 -0.10698387761E+03 -0.15849689065E+03  0.30860377909E+03  0.12509015675E+03 0.  0.
        -24    2    1    2    0    0  0.10588517074E+02 -0.24048309390E+01  0.30373682502E+03  0.31388670343E+03  0.78427697973E+02 0.  0.
        -13    1    3    3    0    0  0.20319209334E+03  0.10348841998E+03 -0.25152248440E+03  0.33950027986E+03  0.00000000000E+00 0.  1.
         14    1    3    3    0    0 -0.63633239166E+01  0.59002885687E+01 -0.19403991766E+01  0.88921563991E+01  0.00000000000E+00 0. -1.
         11    1    5    5    0    0  0.15098733154E+02  0.34375156900E+02  0.20533030432E+03  0.20873465698E+03  0.00000000000E+00 0. -1.
        -12    1    5    5    0    0 -0.45102160804E+01 -0.36779987839E+02  0.98406520705E+02  0.10515204645E+03  0.00000000000E+00 0.  1.
          5    1    4    4  501    0 -0.20651813938E+03 -0.11898336323E+03 -0.11767673420E+03  0.26584218776E+03  0.41800000000E+01 0.  1.
         -5    1    4    4    0  501 -0.89914712017E+00  0.11999485626E+02 -0.40820156447E+02  0.42761591331E+02  0.41800000000E+01 0.  1.
</event>
<event>
11    1  0.8864208E-009  0.1427632E+03  0.7561462E-02  0.1104512E+00
         22   -1    0    0    0    0  0.00000000000E+00  0.00000000000E+00  0.78727966076E+03  0.78727966076E+03  0.00000000000E+00 0.  1.
         22   -1    0    0    0    0 -0.00000000000E+00 -0.00000000000E+00 -0.20782143431E+03  0.20782143431E+03  0.00000000000E+00 0.  1.
        -24    2    1    2    0    0  0.38057996947E+02  0.57885336519E+02 -0.10880843400E+03  0.15231619221E+03  0.81005084930E+02 0.  0.
         25    2    1    2    0    0  0.24310632715E+02 -0.87524092555E+02  0.85544174577E+01  0.15483124796E+03  0.12509222056E+03 0.  0.
         24    2    1    2    0    0 -0.62368629662E+02  0.29638756036E+02  0.67971224299E+03  0.68795365490E+03  0.80642397008E+02 0.  0.
        -13    1    5    5    0    0 -0.24109135072E+02  0.13070057447E+02  0.56884958845E+03  0.56951025546E+03  0.00000000000E+00 0.  1.
         14    1    5    5    0    0 -0.38259494590E+02  0.16568698589E+02  0.11086265455E+03  0.11844339945E+03  0.00000000000E+00 0. -1.
         11    1    3    3    0    0 -0.14919743160E+01 -0.14313361622E+02 -0.47614123151E+02  0.49741361377E+02  0.00000000000E+00 0. -1.
        -12    1    3    3    0    0  0.39549971263E+02  0.72198698141E+02 -0.61194310845E+02  0.10257483083E+03  0.00000000000E+00 0.  1.
          5    1    4    4  501    0  0.54629955043E+02 -0.74378753737E+02  0.47259124224E+02  0.10376670091E+03  0.41800000000E+01 0.  1.
         -5    1    4    4    0  501 -0.30319322328E+02 -0.13145338818E+02 -0.38704706766E+02  0.51064547045E+02  0.41800000000E+01 0.  1.
</event>
<event>
11    1  0.8864208E-009  0.2177980E+03  0.7561462E-02  0.1042606E+00
         22   -1    0    0    0    0  0.00000000000E+00  0.00000000000E+00  0.34328880573E+03  0.34328880573E+03  0.00000000000E+00 0. -1.
         22   -1    0    0    0    0 -0.00000000000E+00 -0.00000000000E+00 -0.93151165441E+03  0.93151165441E+03  0.00000000000E+00 0.  1.
         24    2    1    2    0    0 -0.10296165475E+03  0.14028284732E+03 -0.59561244636E+03  0.62571421704E+03  0.80521522236E+02 0.  0.
         25    2    1    2    0    0  0.99128438829E+02 -0.16276412261E+03 -0.27334636857E+03  0.35592296112E+03  0.12507721635E+03 0.  0.
        -24    2    1    2    0    0  0.38332159230E+01  0.22481275288E+02  0.28073596624E+03  0.29316328199E+03  0.81313749669E+02 0.  0.
        -11    1    3    3    0    0 -0.86373897229E+02  0.74529063073E+02 -0.46200660478E+03  0.47588353011E+03  0.00000000000E+00 0.  1.
         12    1    3    3    0    0 -0.16587757523E+02  0.65753784247E+02 -0.13360584158E+03  0.14983068693E+03  0.00000000000E+00 0. -1.
         13    1    5    5    0    0 -0.87891117081E+01  0.20311093623E+02  0.27941245612E+03  0.28028754814E+03  0.00000000000E+00 0. -1.
        -14    1    5    5    0    0  0.12622327631E+02  0.21701816653E+01  0.13235101263E+01  0.12875733856E+02  0.00000000000E+00 0.  1.
          5    1    4    4  501    0  0.65684444416E+02 -0.41770629762E+02 -0.18950136948E+03  0.20490845074E+03  0.41800000000E+01 0.  1.
         -5    1    4    4    0  501  0.33443994413E+02 -0.12099349285E+03 -0.83844999087E+02  0.15101451038E+03  0.41800000000E+01 0.  1.
</event>
<event>
11    1  0.8864208E-009  0.2198732E+03  0.7561462E-02  0.1041297E+00
         22   -1    0    0    0    0  0.00000000000E+00  0.00000000000E+00  0.32165305730E+03  0.32165305730E+03  0.00000000000E+00 0.  1.
         22   -1    0    0    0    0 -0.00000000000E+00 -0.00000000000E+00 -0.20535066092E+04  0.20535066092E+04  0.00000000000E+00 0. -1.
         24    2    1    2    0    0  0.14926951403E+03  0.11441028206E+03 -0.18649552918E+04  0.18759857882E+04  0.76768071674E+02 0.  0.
         25    2    1    2    0    0 -0.99745932325E+02 -0.71339267680E+02 -0.12919039731E+03  0.21766999345E+03  0.12510605566E+03 0.  0.
        -24    2    1    2    0    0 -0.49523581706E+02 -0.43071014379E+02  0.26229213724E+03  0.28150388477E+03  0.78355436669E+02 0.  0.
        -11    1    3    3    0    0  0.69841157423E+01 -0.47640922455E+01 -0.29138185178E+03  0.29150447337E+03  0.00000000000E+00 0.  1.
         12    1    3    3    0    0  0.14228539829E+03  0.11917437430E+03 -0.15735734400E+04  0.15844813149E+04  0.00000000000E+00 0. -1.
         13    1    5    5    0    0  0.16581940339E+02 -0.26440333127E+02  0.54342812727E+02  0.62667322077E+02  0.00000000000E+00 0. -1.
        -14    1    5    5    0    0 -0.66105522045E+02 -0.16630681252E+02  0.20794932451E+03  0.21883656269E+03  0.00000000000E+00 0.  1.
          5    1    4    4  501    0 -0.66187168278E+02  0.67076118260E+01 -0.46034622173E+01  0.66816147490E+02  0.41800000000E+01 0.  1.
         -5    1    4    4    0  501 -0.33558764047E+02 -0.78046879506E+02 -0.12458693510E+03  0.15085384596E+03  0.41800000000E+01 0.  1.
</event>
<event>
11    1  0.8864208E-009  0.1970331E+03  0.7561462E-02  0.1056642E+00
         22   -1    0    0    0    0  0.00000000000E+00  0.00000000000E+00  0.42703591313E+03  0.42703591313E+03  0.00000000000E+00 0.  1.
         22   -1    0    0    0    0 -0.00000000000E+00 -0.00000000000E+00 -0.10997924777E+04  0.10997924777E+04  0.00000000000E+00 0. -1.
        -24    2    1    2    0    0  0.71035862459E+02 -0.12722784245E+03 -0.78897673076E+03  0.80629246184E+03  0.79938943479E+02 0.  0.
         25    2    1    2    0    0 -0.19117113326E+03  0.10907774838E+03 -0.23189816885E+03  0.34331991449E+03  0.12508975012E+03 0.  0.
         24    2    1    2    0    0  0.12013527080E+03  0.18150094069E+02  0.34811833507E+03  0.37721601446E+03  0.79646953124E+02 0.  0.
        -13    1    5    5    0    0  0.12533129482E+03  0.27668464933E+02  0.27718673540E+03  0.30546024896E+03  0.00000000000E+00 0.  1.
         14    1    5    5    0    0 -0.51960240185E+01 -0.95183708634E+01  0.70931599677E+02  0.71755765498E+02  0.00000000000E+00 0. -1.
         13    1    3    3    0    0  0.63175712643E+01 -0.23338342027E+02 -0.34219258761E+03  0.34304570677E+03  0.00000000000E+00 0. -1.
        -14    1    3    3    0    0  0.64718291195E+02 -0.10388950043E+03 -0.44678414315E+03  0.46324675507E+03  0.00000000000E+00 0.  1.
          5    1    4    4  501    0 -0.38763067493E+01  0.53305631801E+02 -0.26582696220E+02  0.59838351197E+02  0.41800000000E+01 0.  1.
         -5    1    4    4    0  501 -0.18729482651E+03  0.55772116583E+02 -0.20531547263E+03  0.28348156329E+03  0.41800000000E+01 0.  1.
</event>
<event>
11    1  0.8864208E-009  0.2363564E+03  0.7561462E-02  0.1031429E+00
         22   -1    0    0    0    0  0.00000000000E+00  0.00000000000E+00  0.81446665481E+03  0.81446665481E+03  0.00000000000E+00 0. -1.
         22   -1    0    0    0    0 -0.00000000000E+00 -0.00000000000E+00 -0.20360229190E+04  0.20360229190E+04  0.00000000000E+00 0.  1.
        -24    2    1    2    0    0 -0.51240317180E+02  0.52696860848E+02 -0.16828986063E+04  0.16864253564E+04  0.80499903065E+02 0.  0.
         25    2    1    2    0    0  0.15357408334E+03 -0.22135051120E+03 -0.26955573344E+03  0.40110963965E+03  0.12509037415E+03 0.  0.
         24    2    1    2    0    0 -0.10233376616E+03  0.16865365035E+03  0.73089807555E+03  0.76295457776E+03  0.94717672098E+02 0.  0.
        -13    1    5    5    0    0  0.43025651913E+01  0.58817301561E+02  0.29816166159E+03  0.30393809151E+03  0.00000000000E+00 0.  1.
         14    1    5    5    0    0 -0.10663633135E+03  0.10983634879E+03  0.43273641397E+03  0.45901648626E+03  0.00000000000E+00 0. -1.
         11    1    3    3    0    0  0.91166176093E+01  0.36639437013E+02 -0.34298229875E+03  0.34505422518E+03  0.00000000000E+00 0. -1.
        -12    1    3    3    0    0 -0.60356934789E+02  0.16057423835E+02 -0.13399163075E+04  0.13413711312E+04  0.00000000000E+00 0.  1.
          5    1    4    4  501    0  0.85871869358E+02 -0.79729087646E+02 -0.41824971776E+02  0.12448897954E+03  0.41800000000E+01 0. -1.
         -5    1    4    4    0  501  0.67702213981E+02 -0.14162142355E+03 -0.22773076167E+03  0.27662066010E+03  0.41800000000E+01 0. -1.
</event>
<event>
11    1  0.1099455E-008  0.1653003E+03  0.7561462E-02  0.1082195E+00
         22   -1    0    0    0    0  0.00000000000E+00  0.00000000000E+00  0.60167407412E+03  0.60167407412E+03  0.00000000000E+00 0.  1.
         22   -1    0    0    0    0 -0.00000000000E+00 -0.00000000000E+00 -0.94765563324E+03  0.94765563324E+03  0.00000000000E+00 0.  1.
         24    2    1    2    0    0  0.88029702254E+02  0.56365870202E+02 -0.65734936687E+03  0.67054104943E+03  0.81183551513E+02 0.  0.
         25    2    1    2    0    0 -0.13454342151E+03 -0.14985400472E+02 -0.24840424282E+03  0.30931998230E+03  0.12509072348E+03 0.  0.
        -24    2    1    2    0    0  0.46513719260E+02 -0.41380469730E+02  0.55977205058E+03  0.56946867563E+03  0.84106804500E+02 0.  0.
        -11    1    3    3    0    0 -0.11557959006E+02  0.21540745780E+02 -0.18134607882E+03  0.18298631219E+03  0.00000000000E+00 0.  1.
         12    1    3    3    0    0  0.99587661260E+02  0.34825124422E+02 -0.47600328805E+03  0.48755473723E+03  0.00000000000E+00 0. -1.
         13    1    5    5    0    0  0.24882431633E+02 -0.13398082032E+02  0.42800404000E+02  0.51288581464E+02  0.00000000000E+00 0. -1.
        -14    1    5    5    0    0  0.21631287628E+02 -0.27982387698E+02  0.51697164658E+03  0.51818009417E+03  0.00000000000E+00 0.  1.
          5    1    4    4  501    0 -0.34558668122E+02  0.10973937933E+02 -0.18384676181E+03  0.18743487691E+03  0.41800000000E+01 0.  1.
         -5    1    4    4    0  501 -0.99984753392E+02 -0.25959338405E+02 -0.64557481017E+02  0.12188510539E+03  0.41800000000E+01 0.  1.
</event>
<event>
11    1  0.8864208E-009  0.1551154E+03  0.7561462E-02  0.1091764E+00
         22   -1    0    0    0    0  0.00000000000E+00  0.00000000000E+00  0.38215771195E+04  0.38215771195E+04  0.00000000000E+00 0.  1.
         22   -1    0    0    0    0 -0.00000000000E+00 -0.00000000000E+00 -0.37269024297E+03  0.37269024297E+03  0.00000000000E+00 0.  1.
         24    2    1    2    0    0  0.43362234702E+02 -0.33569750923E+02 -0.23242535943E+03  0.25066171321E+03  0.76174373555E+02 0.  0.
         25    2    1    2    0    0 -0.53400991531E+02 -0.57818343799E+02 -0.88213868964E+02  0.17211564461E+03  0.12508989434E+03 0.  0.
        -24    2    1    2    0    0  0.10038756829E+02  0.91388094721E+02  0.37695261049E+04  0.37714900046E+04  0.79732295753E+02 0.  0.
        -11    1    3    3    0    0  0.52010271255E+02  0.61719048006E+01 -0.14691298950E+03  0.15596982788E+03  0.00000000000E+00 0.  1.
         12    1    3    3    0    0 -0.86480365536E+01 -0.39741655723E+02 -0.85512369927E+02  0.94691885325E+02  0.00000000000E+00 0. -1.
         11    1    5    5    0    0 -0.10716114670E+02 -0.11550143762E+02  0.35481891793E+03  0.35516855921E+03  0.00000000000E+00 0. -1.
        -12    1    5    5    0    0  0.20754871500E+02  0.10293823848E+03  0.34147071870E+04  0.34163214454E+04  0.00000000000E+00 0.  1.
          5    1    4    4  501    0 -0.42661037004E+02  0.13038920132E+02  0.14241037838E+02  0.47013371238E+02  0.41800000000E+01 0. -1.
         -5    1    4    4    0  501 -0.10739954526E+02 -0.70857263930E+02 -0.10245490680E+03  0.12510227337E+03  0.41800000000E+01 0. -1.
</event>
<event>
11    1  0.8864208E-009  0.1373285E+03  0.7561462E-02  0.1110579E+00
         22   -1    0    0    0    0  0.00000000000E+00  0.00000000000E+00  0.23071151676E+03  0.23071151676E+03  0.00000000000E+00 0.  1.
         22   -1    0    0    0    0 -0.00000000000E+00 -0.00000000000E+00 -0.16736631702E+04  0.16736631702E+04  0.00000000000E+00 0.  1.
        -24    2    1    2    0    0 -0.11330707105E+02  0.53937184271E+02 -0.12076917749E+04  0.12116395632E+04  0.80705658077E+02 0.  0.
         25    2    1    2    0    0 -0.85090182819E+01 -0.68012056651E+02 -0.44514562273E+03  0.46743986248E+03  0.12508939344E+03 0.  0.
         24    2    1    2    0    0  0.19839725387E+02  0.14074872380E+02  0.20988574423E+03  0.22529526122E+03  0.78193429144E+02 0.  0.
        -13    1    5    5    0    0  0.36669305080E+02  0.26575587463E+02  0.66937234159E+02  0.80817653399E+02  0.00000000000E+00 0.  1.
         14    1    5    5    0    0 -0.16829579693E+02 -0.12500715083E+02  0.14294851007E+03  0.14447760782E+03  0.00000000000E+00 0. -1.
         13    1    3    3    0    0  0.12741335990E+02  0.23659886661E+02 -0.10887932371E+03  0.11214650691E+03  0.00000000000E+00 0. -1.
        -14    1    3    3    0    0 -0.24072043095E+02  0.30277297610E+02 -0.10988124512E+04  0.10994930563E+04  0.00000000000E+00 0.  1.
          5    1    4    4  501    0  0.23765277108E+01  0.95013491212E+01  0.40972255011E+01  0.11409784218E+02  0.41800000000E+01 0. -1.
         -5    1    4    4    0  501 -0.10885545993E+02 -0.77513405772E+02 -0.44924284824E+03  0.45603007826E+03  0.41800000000E+01 0. -1.
</event>
<event>
11    1  0.8864208E-009  0.2079410E+03  0.7561462E-02  0.1049046E+00
         22   -1    0    0    0    0  0.00000000000E+00  0.00000000000E+00  0.13926606339E+04  0.13926606339E+04  0.00000000000E+00 0.  1.
         22   -1    0    0    0    0 -0.00000000000E+00 -0.00000000000E+00 -0.94834462568E+03  0.94834462568E+03  0.00000000000E+00 0.  1.
         24    2    1    2    0    0 -0.27500970525E+02 -0.32994499780E+01 -0.80836512595E+03  0.81286407304E+03  0.80787589610E+02 0.  0.
         25    2    1    2    0    0  0.13897125517E+03  0.12510974608E+03 -0.34796139515E+02  0.22764643208E+03  0.12508664351E+03 0.  0.
        -24    2    1    2    0    0 -0.11147028464E+03 -0.12181029611E+03  0.12874772737E+04  0.13004947545E+04  0.80159238661E+02 0.  0.
        -11    1    3    3    0    0 -0.39219492060E+02  0.14463879148E+02 -0.74186961619E+03  0.74304636450E+03  0.00000000000E+00 0.  1.
         12    1    3    3    0    0  0.11718521535E+02 -0.17763329126E+02 -0.66495509758E+02  0.69817708546E+02  0.00000000000E+00 0. -1.
         11    1    5    5    0    0 -0.73147732648E+01 -0.47929575717E+02  0.54153501463E+03  0.54370113317E+03  0.00000000000E+00 0. -1.
        -12    1    5    5    0    0 -0.10415551138E+03 -0.73880720388E+02  0.74594225906E+03  0.75679362131E+03  0.00000000000E+00 0.  1.
          5    1    4    4  501    0  0.32797751425E+02 -0.19385638438E+02  0.15542338155E+02  0.41358580144E+02  0.41800000000E+01 0.  1.
         -5    1    4    4    0  501  0.10617350374E+03  0.14449538452E+03 -0.50338477670E+02  0.18628785194E+03  0.41800000000E+01 0.  1.
</event>
<event>
11    1  0.8864208E-009  0.1407553E+03  0.7561462E-02  0.1106718E+00
         22   -1    0    0    0    0  0.00000000000E+00  0.00000000000E+00  0.10763371634E+03  0.10763371634E+03  0.00000000000E+00 0.  1.
         22   -1    0    0    0    0 -0.00000000000E+00 -0.00000000000E+00 -0.50603980211E+03  0.50603980211E+03  0.00000000000E+00 0. -1.
        -24    2    1    2    0    0 -0.44024658033E+02  0.42032984873E+02 -0.34728699420E+03  0.36160259652E+03  0.80269789696E+02 0.  0.
         25    2    1    2    0    0  0.65680730005E+02 -0.70719469003E+02 -0.38753217981E+02  0.16267471655E+03  0.12508417130E+03 0.  0.
         24    2    1    2    0    0 -0.21656071972E+02  0.28686484131E+02 -0.12365873591E+02  0.89396205380E+02  0.80912711497E+02 0.  0.
        -13    1    5    5    0    0  0.32184387344E+01  0.17066734718E+02  0.32469602102E+02  0.36822640351E+02  0.00000000000E+00 0.  1.
         14    1    5    5    0    0 -0.24874510706E+02  0.11619749413E+02 -0.44835475692E+02  0.52573565029E+02  0.00000000000E+00 0. -1.
         13    1    3    3    0    0 -0.15491163220E+02  0.56449380656E+02 -0.29137300195E+03  0.29719477617E+03  0.00000000000E+00 0. -1.
        -14    1    3    3    0    0 -0.28533494813E+02 -0.14416395784E+02 -0.55913992251E+02  0.64407820357E+02  0.00000000000E+00 0.  1.
          5    1    4    4  501    0 -0.70794041627E+01  0.31422109282E+02 -0.93523916231E+01  0.33799505086E+02  0.41800000000E+01 0. -1.
         -5    1    4    4    0  501  0.72760134168E+02 -0.10214157829E+03 -0.29400826358E+02  0.12887521146E+03  0.41800000000E+01 0. -1.
</event>
<event>
11    1  0.8864208E-009  0.1841536E+03  0.7561462E-02  0.1066332E+00
         22   -1    0    0    0    0  0.00000000000E+00  0.00000000000E+00  0.10557903973E+04  0.10557903973E+04  0.00000000000E+00 0. -1.
         22   -1    0    0    0    0 -0.00000000000E+00 -0.00000000000E+00 -0.90027677312E+03  0.90027677312E+03  0.00000000000E+00 0. -1.
        -24    2    1    2    0    0 -0.29405314192E+02 -0.14112027818E+03 -0.72940498701E+03  0.74758508276E+03  0.77924421490E+02 0.  0.
         25    2    1    2    0    0  0.89196934879E+02  0.70343485182E+02 -0.11262359425E+03  0.20306574359E+03  0.12508926068E+03 0.  0.
         24    2    1    2    0    0 -0.59791620687E+02  0.70776793000E+02  0.99754220544E+03  0.10054163441E+04  0.84777243067E+02 0.  0.
        -11    1    5    5    0    0  0.82604929343E+01  0.36809723264E+01  0.10928922542E+02  0.14185437911E+02  0.00000000000E+00 0.  1.
         12    1    5    5    0    0 -0.68052113622E+02  0.67095820674E+02  0.98661328289E+03  0.99123090615E+03  0.00000000000E+00 0. -1.
         13    1    3    3    0    0 -0.40707066793E+02 -0.14583112261E+03 -0.66391152949E+03  0.68095690069E+03  0.00000000000E+00 0. -1.
        -14    1    3    3    0    0  0.11301752601E+02  0.47108444299E+01 -0.65493457526E+02  0.66628182069E+02  0.00000000000E+00 0.  1.
          5    1    4    4  501    0 -0.27985440092E+02  0.28980833233E+02 -0.96842344270E+01  0.41645292032E+02  0.41800000000E+01 0. -1.
         -5    1    4    4    0  501  0.11718237497E+03  0.41362651949E+02 -0.10293935983E+03  0.16142045156E+03  0.41800000000E+01 0. -1.
</event>
<event>
11    1  0.8864208E-009  0.1279703E+03  0.7561462E-02  0.1121788E+00
         22   -1    0    0    0    0  0.00000000000E+00  0.00000000000E+00  0.51192160791E+03  0.51192160791E+03  0.00000000000E+00 0. -1.
         22   -1    0    0    0    0 -0.00000000000E+00 -0.00000000000E+00 -0.13882797807E+03  0.13882797807E+03  0.00000000000E+00 0.  1.
         24    2    1    2    0    0 -0.26008853538E+02 -0.10438328583E+02 -0.97751006660E+02  0.12974641663E+03  0.80581971673E+02 0.  0.
         25    2    1    2    0    0  0.25679408651E+02 -0.37700184165E+02  0.20957536960E+03  0.24829500916E+03  0.12509132710E+03 0.  0.
        -24    2    1    2    0    0  0.32944488648E+00  0.48138512748E+02  0.26126926690E+03  0.27270816020E+03  0.61568546096E+02 0.  0.
        -11    1    3    3    0    0 -0.27060291018E+02 -0.41799054554E+02 -0.78415032179E+02  0.92888845311E+02  0.00000000000E+00 0.  1.
         12    1    3    3    0    0  0.10514374801E+01  0.31360725971E+02 -0.19335974481E+02  0.36857571316E+02  0.00000000000E+00 0. -1.
         13    1    5    5    0    0  0.28779649385E+02  0.11526312684E+02  0.12412093610E+03  0.12793408804E+03  0.00000000000E+00 0. -1.
        -14    1    5    5    0    0 -0.28450204498E+02  0.36612200064E+02  0.13714833080E+03  0.14477407216E+03  0.00000000000E+00 0.  1.
          5    1    4    4  501    0 -0.49319435067E+02 -0.28256925907E+02  0.80035532592E+02  0.98254869673E+02  0.41800000000E+01 0. -1.
         -5    1    4    4    0  501  0.74998843718E+02 -0.94432582579E+01  0.12953983700E+03  0.15004013948E+03  0.41800000000E+01 0. -1.
</event>
<event>
11    1  0.8864208E-009  0.1603551E+03  0.7561462E-02  0.1086744E+00
         22   -1    0    0    0    0  0.00000000000E+00  0.00000000000E+00  0.23267265546E+04  0.23267265546E+04  0.00000000000E+00 0.  1.
         22   -1    0    0    0    0 -0.00000000000E+00 -0.00000000000E+00 -0.29977027766E+03  0.29977027766E+03  0.00000000000E+00 0.  1.
        -24    2    1    2    0    0  0.45107122234E+02  0.82747375860E+02 -0.13084702348E+03  0.17982838272E+03  0.79595998594E+02 0.  0.
         25    2    1    2    0    0 -0.25459539717E+02 -0.11285106840E+03 -0.93011046118E+02  0.19411726415E+03  0.12508759226E+03 0.  0.
         24    2    1    2    0    0 -0.19647582517E+02  0.30103692542E+02  0.22508143465E+04  0.22525511854E+04  0.80804458067E+02 0.  0.
        -11    1    5    5    0    0 -0.40965992931E+01  0.77184671212E+00  0.19335596517E+04  0.19335641455E+04  0.00000000000E+00 0.  1.
         12    1    5    5    0    0 -0.15550983224E+02  0.29331845830E+02  0.31725469483E+03  0.31898703994E+03  0.00000000000E+00 0. -1.
         13    1    3    3    0    0  0.18903574716E+02  0.19794708771E+02  0.50038327037E+01  0.27824700790E+02  0.00000000000E+00 0. -1.
        -14    1    3    3    0    0  0.26203547519E+02  0.62952667089E+02 -0.13585085618E+03  0.15200368193E+03  0.00000000000E+00 0.  1.
          5    1    4    4  501    0  0.31483513864E+02 -0.14317633158E+02  0.14284514667E+02  0.37652702741E+02  0.41800000000E+01 0. -1.
         -5    1    4    4    0  501 -0.56943053581E+02 -0.98533435244E+02 -0.10729556078E+03  0.15646456141E+03  0.41800000000E+01 0. -1.
</event>
<event>
11    1  0.8864208E-009  0.2101856E+03  0.7561462E-02  0.1047546E+00
         22   -1    0    0    0    0  0.00000000000E+00  0.00000000000E+00  0.59762626962E+03  0.59762626962E+03  0.00000000000E+00 0.  1.
         22   -1    0    0    0    0 -0.00000000000E+00 -0.00000000000E+00 -0.22138848555E+04  0.22138848555E+04  0.00000000000E+00 0. -1.
         24    2    1    2    0    0  0.11379546070E+03  0.36113199845E+02 -0.20696791884E+04  0.20746984460E+04  0.80920508773E+02 0.  0.
         25    2    1    2    0    0 -0.25639921008E+03 -0.95797718672E+02  0.57017620848E+02  0.30629416189E+03  0.12508935482E+03 0.  0.
        -24    2    1    2    0    0  0.14260374938E+03  0.59684518827E+02  0.39640298167E+03  0.43051851725E+03  0.65671901879E+02 0.  0.
        -13    1    3    3    0    0  0.42490322167E+02 -0.63717126547E+01 -0.29859390848E+03  0.30166926986E+03  0.00000000000E+00 0.  1.
         14    1    3    3    0    0  0.71305138534E+02  0.42484912500E+02 -0.17710852800E+04  0.17730291761E+04  0.00000000000E+00 0. -1.
         13    1    5    5    0    0  0.20419192374E+02  0.44208379082E+01  0.13656702106E+02  0.24959822464E+02  0.00000000000E+00 0. -1.
        -14    1    5    5    0    0  0.12218455701E+03  0.55263680919E+02  0.38274627956E+03  0.40555869479E+03  0.00000000000E+00 0.  1.
          5    1    4    4  501    0 -0.26484048775E+03 -0.94289111752E+02  0.36304312549E+02  0.28348967540E+03  0.41800000000E+01 0.  1.
         -5    1    4    4    0  501  0.84412776710E+01 -0.15086069195E+01  0.20713308299E+02  0.22804486494E+02  0.41800000000E+01 0.  1.
</event>
<event>
11    1  0.8864208E-009  0.1329916E+03  0.7561462E-02  0.1115647E+00
         22   -1    0    0    0    0  0.00000000000E+00  0.00000000000E+00  0.26548743018E+04  0.26548743018E+04  0.00000000000E+00 0.  1.
         22   -1    0    0    0    0 -0.00000000000E+00 -0.00000000000E+00 -0.15438509758E+02  0.15438509758E+02  0.00000000000E+00 0.  1.
         24    2    1    2    0    0 -0.51155900852E+02 -0.18139729941E+00  0.21928010336E+03  0.23893795140E+03  0.79941364712E+02 0.  0.
         25    2    1    2    0    0 -0.95399174913E+01 -0.10868904960E+02  0.10513330796E+04  0.10588473449E+04  0.12508921805E+03 0.  0.
        -24    2    1    2    0    0  0.60695818343E+02  0.11050302260E+02  0.13688226091E+04  0.13725275152E+04  0.79689104625E+02 0.  0.
        -11    1    3    3    0    0 -0.38199042310E+02 -0.38469265836E+02  0.11654432041E+03  0.12853649235E+03  0.00000000000E+00 0.  1.
         12    1    3    3    0    0 -0.12956858542E+02  0.38287868537E+02  0.10273578295E+03  0.11040145904E+03  0.00000000000E+00 0. -1.
         11    1    5    5    0    0 -0.18098502878E+02 -0.78283433749E+01  0.25370028221E+03  0.25446546319E+03  0.00000000000E+00 0. -1.
        -12    1    5    5    0    0  0.78794321221E+02  0.18878645635E+02  0.11151223268E+04  0.11180620520E+04  0.00000000000E+00 0.  1.
          5    1    4    4  501    0 -0.48314528383E+02 -0.12767871723E+02  0.93075585116E+03  0.93210580894E+03  0.41800000000E+01 0.  1.
         -5    1    4    4    0  501  0.38774610892E+02  0.18989667628E+01  0.12057722847E+03  0.12674153601E+03  0.41800000000E+01 0.  1.
</event>
<event>
11    1  0.8864208E-009  0.1659101E+03  0.7561462E-02  0.1081647E+00
         22   -1    0    0    0    0  0.00000000000E+00  0.00000000000E+00  0.19510262479E+04  0.19510262479E+04  0.00000000000E+00 0.  1.
         22   -1    0    0    0    0 -0.00000000000E+00 -0.00000000000E+00 -0.83583991031E+03  0.83583991031E+03  0.00000000000E+00 0.  1.
         24    2    1    2    0    0  0.12806146889E+02  0.44229459649E+01 -0.81029481291E+03  0.81490222556E+03  0.85465744888E+02 0.  0.
         25    2    1    2    0    0  0.69713470739E+02 -0.76861685192E+02  0.30358939730E+03  0.34435709737E+03  0.12509037415E+03 0.  0.
        -24    2    1    2    0    0 -0.82519617628E+02  0.72438739227E+02  0.16218917532E+04  0.16276068353E+04  0.80711169700E+02 0.  0.
        -13    1    3    3    0    0 -0.17859231464E+02  0.29969547359E+02 -0.58932848487E+03  0.59036021970E+03  0.00000000000E+00 0.  1.
         14    1    3    3    0    0  0.30665378353E+02 -0.25546601394E+02 -0.22096632804E+03  0.22454200587E+03  0.00000000000E+00 0. -1.
         13    1    5    5    0    0 -0.43051554067E+02 -0.10257492745E+02  0.58733115598E+03  0.58899621327E+03  0.00000000000E+00 0. -1.
        -14    1    5    5    0    0 -0.39468063561E+02  0.82696231972E+02  0.10345605972E+04  0.10386106220E+04  0.00000000000E+00 0.  1.
          5    1    4    4  501    0  0.10087904672E+03 -0.59846812735E+02  0.27352600305E+03  0.29764436801E+03  0.41800000000E+01 0. -1.
         -5    1    4    4    0  501 -0.31165575980E+02 -0.17014872457E+02  0.30063394247E+02  0.46712729363E+02  0.41800000000E+01 0. -1.
</event>
<event>
11    1  0.8864208E-009  0.1370839E+03  0.7561462E-02  0.1110859E+00
         22   -1    0    0    0    0  0.00000000000E+00  0.00000000000E+00  0.30435333255E+03  0.30435333255E+03  0.00000000000E+00 0.  1.
         22   -1    0    0    0    0 -0.00000000000E+00 -0.00000000000E+00 -0.18081907167E+03  0.18081907167E+03  0.00000000000E+00 0.  1.
        -24    2    1    2    0    0  0.46814649021E+02  0.34560172697E+02 -0.11554464645E+03  0.15347990310E+03  0.82580254506E+02 0.  0.
         25    2    1    2    0    0 -0.15802778129E+02 -0.47228857626E+02  0.93476129490E+02  0.16390860681E+03  0.12509177356E+03 0.  0.
         24    2    1    2    0    0 -0.31011870892E+02  0.12668684928E+02  0.14560277784E+03  0.16778389430E+03  0.76348114295E+02 0.  0.
        -13    1    5    5    0    0 -0.22724811476E+01 -0.25432610021E+02  0.94382639508E+02  0.97775582144E+02  0.00000000000E+00 0.  1.
         14    1    5    5    0    0 -0.28739389744E+02  0.38101294949E+02  0.51220138333E+02  0.70008312153E+02  0.00000000000E+00 0. -1.
         13    1    3    3    0    0 -0.12023606969E+02 -0.14210642908E+02 -0.48009725351E+02  0.51492166634E+02  0.00000000000E+00 0. -1.
        -14    1    3    3    0    0  0.58838255990E+02  0.48770815605E+02 -0.67534921098E+02  0.10198773647E+03  0.00000000000E+00 0.  1.
          5    1    4    4  501    0 -0.21686853283E+02 -0.54087876486E+02  0.12114817973E+03  0.13449970944E+03  0.41800000000E+01 0.  1.
         -5    1    4    4    0  501  0.58840751535E+01  0.68590188607E+01 -0.27672050239E+02  0.29408897371E+02  0.41800000000E+01 0.  1.
</event>
<event>
11    1  0.8864208E-009  0.2152719E+03  0.7561462E-02  0.1044220E+00
         22   -1    0    0    0    0  0.00000000000E+00  0.00000000000E+00  0.17251739705E+04  0.17251739705E+04  0.00000000000E+00 0.  1.
         22   -1    0    0    0    0 -0.00000000000E+00 -0.00000000000E+00 -0.12565197422E+03  0.12565197422E+03  0.00000000000E+00 0. -1.
         24    2    1    2    0    0 -0.25347945241E+02  0.15655611755E+02 -0.78608778780E+02  0.11682047115E+03  0.81117605192E+02 0.  0.
         25    2    1    2    0    0  0.31485239508E+02 -0.18558711244E+03  0.63504747625E+03  0.67406763138E+03  0.12509187811E+03 0.  0.
        -24    2    1    2    0    0 -0.61372942671E+01  0.16993150069E+03  0.10430832988E+04  0.10599378422E+04  0.80815096025E+02 0.  0.
        -11    1    3    3    0    0  0.27129765633E+02  0.15913285420E+02 -0.16527484304E+02  0.35530473872E+02  0.00000000000E+00 0.  1.
         12    1    3    3    0    0 -0.52477710875E+02 -0.25767366483E+00 -0.62081294476E+02  0.81289997283E+02  0.00000000000E+00 0. -1.
         13    1    5    5    0    0  0.23616186598E+02  0.12184494110E+02  0.11136369521E+03  0.11449043094E+03  0.00000000000E+00 0. -1.
        -14    1    5    5    0    0 -0.29753480865E+02  0.15774700658E+03  0.93171960360E+03  0.94544741125E+03  0.00000000000E+00 0.  1.
          5    1    4    4  501    0  0.68639172937E+02 -0.17086359740E+03  0.48704350682E+03  0.52070582378E+03  0.41800000000E+01 0.  1.
         -5    1    4    4    0  501 -0.37153933428E+02 -0.14723515044E+02  0.14800396943E+03  0.15336180760E+03  0.41800000000E+01 0.  1.
</event>
<event>
11    1  0.8864208E-009  0.4232224E+03  0.7561462E-02  0.9583619E-01
         22   -1    0    0    0    0  0.00000000000E+00  0.00000000000E+00  0.19926727854E+03  0.19926727854E+03  0.00000000000E+00 0. -1.
         22   -1    0    0    0    0 -0.00000000000E+00 -0.00000000000E+00 -0.14477360376E+04  0.14477360376E+04  0.00000000000E+00 0. -1.
        -24    2    1    2    0    0 -0.31533866673E+03  0.15527902645E+03 -0.50211696014E+03  0.61820113267E+03  0.80629696641E+02 0.  0.
         25    2    1    2    0    0  0.38491981967E+03 -0.29416032410E+03 -0.67185159980E+03  0.83769057403E+03  0.12508941528E+03 0.  0.
         24    2    1    2    0    0 -0.69581152942E+02  0.13888129764E+03 -0.74500199144E+02  0.19111160946E+03  0.82727358953E+02 0.  0.
        -13    1    5    5    0    0 -0.38656163369E+02  0.55191797258E+01 -0.18312113700E+02  0.43128804985E+02  0.00000000000E+00 0.  1.
         14    1    5    5    0    0 -0.30924989573E+02  0.13336211792E+03 -0.56188085444E+02  0.14798280448E+03  0.00000000000E+00 0. -1.
         11    1    3    3    0    0 -0.26586262600E+03  0.10094513840E+03 -0.42771460338E+03  0.51362694518E+03  0.00000000000E+00 0. -1.
        -12    1    3    3    0    0 -0.49476040726E+02  0.54333888056E+02 -0.74402356765E+02  0.10457418749E+03  0.00000000000E+00 0.  1.
          5    1    4    4  501    0  0.36617555284E+03 -0.29516133695E+03 -0.59489828184E+03  0.75837074605E+03  0.41800000000E+01 0. -1.
         -5    1    4    4    0  501  0.18744266829E+02  0.10010128546E+01 -0.76953317953E+02  0.79319827973E+02  0.41800000000E+01 0. -1.
</event>
<event>
11    1  0.8864208E-009  0.1552318E+03  0.7561462E-02  0.1091650E+00
         22   -1    0    0    0    0  0.00000000000E+00  0.00000000000E+00  0.81129489811E+02  0.81129489811E+02  0.00000000000E+00 0.  1.
         22   -1    0    0    0    0 -0.00000000000E+00 -0.00000000000E+00 -0.28118380575E+04  0.28118380575E+04  0.00000000000E+00 0.  1.
         24    2    1    2    0    0 -0.31385441952E+02 -0.82311721284E+02 -0.17935161189E+04  0.17974701869E+04  0.80241749211E+02 0.  0.
         25    2    1    2    0    0 -0.46868153468E+02  0.12888953348E+03 -0.95686247290E+03  0.97470119079E+03  0.12508990220E+03 0.  0.
        -24    2    1    2    0    0  0.78253595420E+02 -0.46577812193E+02  0.19670024114E+02  0.12079616970E+03  0.76887495609E+02 0.  0.
        -13    1    3    3    0    0 -0.23489271203E+02 -0.79908856331E+02 -0.88364561912E+03  0.88756225211E+03  0.00000000000E+00 0.  1.
         14    1    3    3    0    0 -0.78961707496E+01 -0.24028649532E+01 -0.90987049981E+03  0.90990793474E+03  0.00000000000E+00 0. -1.
         11    1    5    5    0    0  0.35481894252E+02  0.13565036729E+02 -0.12914679155E+02  0.40121864099E+02  0.00000000000E+00 0. -1.
        -12    1    5    5    0    0  0.42771701168E+02 -0.60142848922E+02  0.32584703268E+02  0.80674305602E+02  0.00000000000E+00 0.  1.
          5    1    4    4  501    0 -0.32350893806E+02 -0.16075046517E+02 -0.27803980402E+03  0.28040790372E+03  0.41800000000E+01 0. -1.
         -5    1    4    4    0  501 -0.14517259662E+02  0.14496457999E+03 -0.67882266888E+03  0.69429328706E+03  0.41800000000E+01 0. -1.
</event>
<event>
11    1  0.8864208E-009  0.1459410E+03  0.7561462E-02  0.1101100E+00
         22   -1    0    0    0    0  0.00000000000E+00  0.00000000000E+00  0.85789401180E+03  0.85789401180E+03  0.00000000000E+00 0. -1.
         22   -1    0    0    0    0 -0.00000000000E+00 -0.00000000000E+00 -0.39686138413E+03  0.39686138413E+03  0.00000000000E+00 0.  1.
        -24    2    1    2    0    0 -0.25048870602E+01 -0.78686948692E+02 -0.34376889767E+03  0.36263527197E+03  0.84435627086E+02 0.  0.
         25    2    1    2    0    0  0.15867917625E+02  0.34952157942E+02  0.64517088285E+02  0.14588852816E+03  0.12509022270E+03 0.  0.
         24    2    1    2    0    0 -0.13363030564E+02  0.43734790750E+02  0.74028443705E+03  0.74623159580E+03  0.82153784614E+02 0.  0.
        -11    1    5    5    0    0 -0.39512743863E+02  0.29963963044E+02  0.23971542381E+03  0.24479089121E+03  0.00000000000E+00 0.  1.
         12    1    5    5    0    0  0.26149713299E+02  0.13770827706E+02  0.50056901324E+03  0.50144070459E+03  0.00000000000E+00 0. -1.
         11    1    3    3    0    0  0.36090130144E+02 -0.34958330152E+02 -0.99089782519E+02  0.11110070810E+03  0.00000000000E+00 0. -1.
        -12    1    3    3    0    0 -0.38595017204E+02 -0.43728618541E+02 -0.24467911515E+03  0.25153456387E+03  0.00000000000E+00 0.  1.
          5    1    4    4  501    0 -0.11280044154E+01 -0.46413035859E+02  0.31970700420E+02  0.56524688208E+02  0.41800000000E+01 0. -1.
         -5    1    4    4    0  501  0.16995922040E+02  0.81365193802E+02  0.32546387865E+02  0.89363839955E+02  0.41800000000E+01 0. -1.
</event>
<event>
11    1  0.8864208E-009  0.3138484E+03  0.7561462E-02  0.9944948E-01
         22   -1    0    0    0    0  0.00000000000E+00  0.00000000000E+00  0.32190600190E+03  0.32190600190E+03  0.00000000000E+00 0.  1.
         22   -1    0    0    0    0 -0.00000000000E+00 -0.00000000000E+00 -0.40368373175E+03  0.40368373175E+03  0.00000000000E+00 0.  1.
        -24    2    1    2    0    0 -0.15537809790E+02 -0.46420343650E+02  0.17248218109E+01  0.96424110817E+02  0.83056380242E+02 0.  0.
         25    2    1    2    0    0 -0.37445359058E+02 -0.26457055492E+03 -0.69484102462E+02  0.30310858383E+03  0.12508812753E+03 0.  0.
         24    2    1    2    0    0  0.52983168848E+02  0.31099089857E+03 -0.14018449199E+02  0.32605703900E+03  0.81204190723E+02 0.  0.
        -11    1    5    5    0    0  0.47467263565E+02  0.27660022789E+03  0.14533632512E+02  0.28101966773E+03  0.00000000000E+00 0.  1.
         12    1    5    5    0    0  0.55159052837E+01  0.34390670683E+02 -0.28552081711E+02  0.45037371273E+02  0.00000000000E+00 0. -1.
         13    1    3    3    0    0 -0.33667711999E+02  0.11355920046E+02 -0.31709803074E+01  0.35672494550E+02  0.00000000000E+00 0. -1.
        -14    1    3    3    0    0  0.18129902209E+02 -0.57776263695E+02  0.48958021183E+01  0.60751616267E+02  0.00000000000E+00 0.  1.
          5    1    4    4  501    0 -0.18305272021E+02 -0.25355206624E+03 -0.27814497085E+02  0.25576327322E+03  0.41800000000E+01 0.  1.
         -5    1    4    4    0  501 -0.19140087038E+02 -0.11018488679E+02 -0.41669605378E+02  0.47345310612E+02  0.41800000000E+01 0.  1.
</event>
<event>
11    1  0.8864208E-009  0.1868402E+03  0.7561462E-02  0.1064240E+00
         22   -1    0    0    0    0  0.00000000000E+00  0.00000000000E+00  0.32495123247E+03  0.32495123247E+03  0.00000000000E+00 0. -1.
         22   -1    0    0    0    0 -0.00000000000E+00 -0.00000000000E+00 -0.23710751642E+03  0.23710751642E+03  0.00000000000E+00 0. -1.
        -24    2    1    2    0    0  0.60787344322E+02 -0.54632989239E+02 -0.85947588638E+02  0.14346394052E+03  0.80715856518E+02 0.  0.
         25    2    1    2    0    0  0.68220740385E+02 -0.43496796689E+02 -0.24004659926E+02  0.15085786328E+03  0.12504331439E+03 0.  0.
         24    2    1    2    0    0 -0.12900808471E+03  0.98129785929E+02  0.19779596461E+03  0.26773694510E+03  0.79292416707E+02 0.  0.
        -13    1    5    5    0    0 -0.15691637946E+02  0.57400155985E+02  0.75200631846E+02  0.95896509001E+02  0.00000000000E+00 0.  1.
         14    1    5    5    0    0 -0.11331644676E+03  0.40729629943E+02  0.12259533277E+03  0.17184043610E+03  0.00000000000E+00 0. -1.
         11    1    3    3    0    0  0.24500720940E+02 -0.29467210315E+02  0.84546532779E+01  0.39243890892E+02  0.00000000000E+00 0. -1.
        -12    1    3    3    0    0  0.36286623382E+02 -0.25165778925E+02 -0.94402241915E+02  0.10422004963E+03  0.00000000000E+00 0.  1.
          5    1    4    4  501    0  0.59550883066E+02  0.35276650836E+02 -0.15423860236E+02  0.71036030525E+02  0.41800000000E+01 0. -1.
         -5    1    4    4    0  501  0.86698573191E+01 -0.78773447525E+02 -0.85807996901E+01  0.79821832754E+02  0.41800000000E+01 0. -1.
</event>
<event>
11    1  0.8864208E-009  0.2562726E+03  0.7561462E-02  0.1020610E+00
         22   -1    0    0    0    0  0.00000000000E+00  0.00000000000E+00  0.19070167418E+03  0.19070167418E+03  0.00000000000E+00 0.  1.
         22   -1    0    0    0    0 -0.00000000000E+00 -0.00000000000E+00 -0.57761626151E+03  0.57761626151E+03  0.00000000000E+00 0. -1.
         24    2    1    2    0    0 -0.14522743076E+03  0.19061822680E+03 -0.36369526779E+03  0.44294203859E+03  0.80604507998E+02 0.  0.
         25    2    1    2    0    0  0.12134759641E+03 -0.14242742642E+03 -0.47617465458E+02  0.23005726348E+03  0.12509240790E+03 0.  0.
        -24    2    1    2    0    0  0.23879834350E+02 -0.48190800389E+02  0.24398145914E+02  0.95318633611E+02  0.74818264205E+02 0.  0.
        -11    1    3    3    0    0 -0.10284685265E+03  0.71947031260E+02 -0.15902163756E+03  0.20258758999E+03  0.00000000000E+00 0.  1.
         12    1    3    3    0    0 -0.42380578113E+02  0.11867119554E+03 -0.20467363023E+03  0.24035444861E+03  0.00000000000E+00 0. -1.
         11    1    5    5    0    0  0.14455798765E+02 -0.61379295558E+02 -0.33885203822E+01  0.63149585204E+02  0.00000000000E+00 0. -1.
        -12    1    5    5    0    0  0.94240355848E+01  0.13188495169E+02  0.27786666296E+02  0.32169048406E+02  0.00000000000E+00 0.  1.
          5    1    4    4  501    0 -0.16286269100E+02 -0.64881511211E+02 -0.12810067850E+02  0.68237990127E+02  0.41800000000E+01 0. -1.
         -5    1    4    4    0  501  0.13763386551E+03 -0.77545915205E+02 -0.34807397608E+02  0.16181927335E+03  0.41800000000E+01 0. -1.
</event>
<event>
11    1  0.8864208E-009  0.1497210E+03  0.7561462E-02  0.1097164E+00
         22   -1    0    0    0    0  0.00000000000E+00  0.00000000000E+00  0.13204457206E+04  0.13204457206E+04  0.00000000000E+00 0.  1.
         22   -1    0    0    0    0 -0.00000000000E+00 -0.00000000000E+00 -0.11148210856E+03  0.11148210856E+03  0.00000000000E+00 0.  1.
         24    2    1    2    0    0 -0.25429884150E+02  0.14974667473E+02 -0.76648867921E+02  0.11599073732E+03  0.81901663696E+02 0.  0.
         25    2    1    2    0    0  0.30894729539E+02 -0.91935322269E+02  0.56982006234E+03  0.59139432671E+03  0.12508300613E+03 0.  0.
        -24    2    1    2    0    0 -0.54648453890E+01  0.76960654796E+02  0.71579241766E+03  0.72454276518E+03  0.81551373228E+02 0.  0.
        -11    1    3    3    0    0 -0.17523628388E+01  0.50148271746E+00 -0.86518167057E+02  0.86537364712E+02  0.00000000000E+00 0.  1.
         12    1    3    3    0    0 -0.23677521312E+02  0.14473184755E+02  0.98692991359E+01  0.29453372606E+02  0.00000000000E+00 0. -1.
         13    1    5    5    0    0  0.37795128405E+01 -0.12372944818E+02  0.23998479770E+03  0.24033326363E+03  0.00000000000E+00 0. -1.
        -14    1    5    5    0    0 -0.92443582295E+01  0.89333599614E+02  0.47580761996E+03  0.48420950155E+03  0.00000000000E+00 0.  1.
          5    1    4    4  501    0  0.11539800897E+02 -0.98047449475E+02  0.55965726118E+03  0.56831346257E+03  0.41800000000E+01 0. -1.
         -5    1    4    4    0  501  0.19354928643E+02  0.61121272061E+01  0.10162801164E+02  0.23080864136E+02  0.41800000000E+01 0. -1.
</event>
<event>
11    1  0.8864208E-009  0.1358049E+03  0.7561462E-02  0.1112335E+00
         22   -1    0    0    0    0  0.00000000000E+00  0.00000000000E+00  0.58393268209E+03  0.58393268209E+03  0.00000000000E+00 0.  1.
         22   -1    0    0    0    0 -0.00000000000E+00 -0.00000000000E+00 -0.11073608216E+04  0.11073608216E+04  0.00000000000E+00 0.  1.
         24    2    1    2    0    0 -0.23365876560E+02 -0.29018564961E+02 -0.10091892984E+04  0.10128938273E+04  0.78120573398E+02 0.  0.
         25    2    1    2    0    0 -0.21192631970E+00  0.75510896183E+02 -0.33688154791E+02  0.14994906924E+03  0.12509153144E+03 0.  0.
        -24    2    1    2    0    0  0.23577802879E+02 -0.46492331222E+02  0.51944931366E+03  0.52845060721E+03  0.81945134988E+02 0.  0.
        -13    1    3    3    0    0  0.11328173857E+02 -0.35126017433E+02 -0.79256415849E+03  0.79342303341E+03  0.00000000000E+00 0.  1.
         14    1    3    3    0    0 -0.34694050417E+02  0.61074524721E+01 -0.21662513992E+03  0.21947079386E+03  0.00000000000E+00 0. -1.
         11    1    5    5    0    0 -0.70196609661E+01  0.10343132891E+02  0.13492656119E+02  0.18393145659E+02  0.00000000000E+00 0. -1.
        -12    1    5    5    0    0  0.30597463845E+02 -0.56835464113E+02  0.50595665754E+03  0.51005746155E+03  0.00000000000E+00 0.  1.
          5    1    4    4  501    0 -0.37964791148E+02  0.10178075681E+02 -0.58329851301E+02  0.70461071126E+02  0.41800000000E+01 0. -1.
         -5    1    4    4    0  501  0.37752864828E+02  0.65332820503E+02  0.24641696510E+02  0.79487998116E+02  0.41800000000E+01 0. -1.
</event>
<event>
11    1  0.8864208E-009  0.2030501E+03  0.7561462E-02  0.1052387E+00
         22   -1    0    0    0    0  0.00000000000E+00  0.00000000000E+00  0.10554705308E+04  0.10554705308E+04  0.00000000000E+00 0.  1.
         22   -1    0    0    0    0 -0.00000000000E+00 -0.00000000000E+00 -0.36873651048E+03  0.36873651048E+03  0.00000000000E+00 0.  1.
        -24    2    1    2    0    0  0.14434890049E+03 -0.76146042696E+02 -0.25440633065E+03  0.31311611623E+03  0.81757545663E+02 0.  0.
         25    2    1    2    0    0 -0.12355135494E+03  0.81441771120E+02  0.29776868064E+02  0.19604023118E+03  0.12508961179E+03 0.  0.
         24    2    1    2    0    0 -0.20797545546E+02 -0.52957284240E+01  0.91136348289E+03  0.91505069386E+03  0.79207270772E+02 0.  0.
        -13    1    5    5    0    0 -0.13748130374E+02 -0.21326502529E+02  0.86677754072E+03  0.86714885452E+03  0.00000000000E+00 0.  1.
         14    1    5    5    0    0 -0.70494151726E+01  0.16030774105E+02  0.44585942168E+02  0.47901839335E+02  0.00000000000E+00 0. -1.
         11    1    3    3    0    0 -0.10035688765E+02 -0.10412463458E+01 -0.84177619749E+01  0.13139937580E+02  0.00000000000E+00 0. -1.
        -12    1    3    3    0    0  0.15438458925E+03 -0.75104796350E+02 -0.24598856868E+03  0.29997617865E+03  0.00000000000E+00 0.  1.
          5    1    4    4  501    0 -0.61765760169E+02  0.38372818078E+02  0.77836636070E+02  0.10659970268E+03  0.41800000000E+01 0. -1.
         -5    1    4    4    0  501 -0.61785594773E+02  0.43068953042E+02 -0.48059768006E+02  0.89440528500E+02  0.41800000000E+01 0. -1.
</event>
<event>
11    1  0.8864208E-009  0.1563152E+03  0.7561462E-02  0.1090595E+00
         22   -1    0    0    0    0  0.00000000000E+00  0.00000000000E+00  0.29611158459E+03  0.29611158459E+03  0.00000000000E+00 0. -1.
         22   -1    0    0    0    0 -0.00000000000E+00 -0.00000000000E+00 -0.27929086583E+03  0.27929086583E+03  0.00000000000E+00 0.  1.
        -24    2    1    2    0    0 -0.10810929577E+02  0.31062325867E+02 -0.18912792618E+03  0.20902922074E+03  0.82716977564E+02 0.  0.
         25    2    1    2    0    0  0.78397500261E+02 -0.84626682172E+02  0.64055241952E+02  0.18181937001E+03  0.12508943163E+03 0.  0.
         24    2    1    2    0    0 -0.67586570684E+02  0.53564356305E+02  0.14189340299E+03  0.18455385967E+03  0.80556219517E+02 0.  0.
        -11    1    5    5    0    0 -0.73318841658E+02  0.11229590668E+02  0.77478863325E+02  0.10726010680E+03  0.00000000000E+00 0.  1.
         12    1    5    5    0    0  0.57322709736E+01  0.42334765637E+02  0.64414539668E+02  0.77293752870E+02  0.00000000000E+00 0. -1.
         11    1    3    3    0    0 -0.13791468411E+02  0.48472755265E+01  0.31462770654E+01  0.14953251831E+02  0.00000000000E+00 0. -1.
        -12    1    3    3    0    0  0.29805388339E+01  0.26215050340E+02 -0.19227420325E+03  0.19407596891E+03  0.00000000000E+00 0.  1.
          5    1    4    4  501    0 -0.66968192169E+01 -0.24861643583E+01  0.62926861244E+02  0.63468816492E+02  0.41800000000E+01 0.  1.
         -5    1    4    4    0  501  0.85094319478E+02 -0.82140517813E+02  0.11283807077E+01  0.11835055351E+03  0.41800000000E+01 0.  1.
</event>
<event>
11    1  0.8864208E-009  0.2143058E+03  0.7561462E-02  0.1044844E+00
         22   -1    0    0    0    0  0.00000000000E+00  0.00000000000E+00  0.30592937942E+03  0.30592937942E+03  0.00000000000E+00 0.  1.
         22   -1    0    0    0    0 -0.00000000000E+00 -0.00000000000E+00 -0.24558316006E+03  0.24558316006E+03  0.00000000000E+00 0.  1.
         24    2    1    2    0    0  0.13446268300E+03  0.13412136028E+03 -0.88523045205E+02  0.22432249174E+03  0.80096806220E+02 0.  0.
         25    2    1    2    0    0 -0.99279835810E+02 -0.10315895967E+03  0.63249934834E+02  0.20035948372E+03  0.12508042094E+03 0.  0.
        -24    2    1    2    0    0 -0.35182847187E+02 -0.30962400617E+02  0.85619329735E+02  0.12683056402E+03  0.80986538116E+02 0.  0.
        -11    1    3    3    0    0  0.13857648339E+03  0.13936904908E+03 -0.91768145788E+02  0.21690681449E+03  0.00000000000E+00 0.  1.
         12    1    3    3    0    0 -0.41138003883E+01 -0.52476887995E+01  0.32451005833E+01  0.74156772561E+01  0.00000000000E+00 0. -1.
         11    1    5    5    0    0  0.56785668750E+01 -0.34396605777E+02  0.34935355911E+01  0.35036800676E+02  0.00000000000E+00 0. -1.
        -12    1    5    5    0    0 -0.40861414062E+02  0.34342051591E+01  0.82125794144E+02  0.91793763339E+02  0.00000000000E+00 0.  1.
          5    1    4    4  501    0  0.28125015060E+02 -0.27921912854E+02  0.26459214596E+02  0.47835260285E+02  0.41800000000E+01 0.  1.
         -5    1    4    4    0  501 -0.12740485087E+03 -0.75237046813E+02  0.36790720238E+02  0.15252422343E+03  0.41800000000E+01 0.  1.
</event>
<event>
11    1  0.8864208E-009  0.1530040E+03  0.7561462E-02  0.1093848E+00
         22   -1    0    0    0    0  0.00000000000E+00  0.00000000000E+00  0.10732138345E+03  0.10732138345E+03  0.00000000000E+00 0.  1.
         22   -1    0    0    0    0 -0.00000000000E+00 -0.00000000000E+00 -0.19011606739E+04  0.19011606739E+04  0.00000000000E+00 0.  1.
         24    2    1    2    0    0 -0.78288759601E+02  0.14768965660E+02 -0.13392536468E+04  0.13444239129E+04  0.86764479173E+02 0.  0.
         25    2    1    2    0    0  0.15149259156E+03  0.79185470045E+01 -0.50537929429E+03  0.54228128776E+03  0.12509218711E+03 0.  0.
        -24    2    1    2    0    0 -0.73203831959E+02 -0.22687512665E+02  0.50793650693E+02  0.12177685664E+03  0.79850382708E+02 0.  0.
        -11    1    3    3    0    0 -0.88522457212E+02 -0.11798959451E+02 -0.10253298416E+04  0.10292117007E+04  0.00000000000E+00 0.  1.
         12    1    3    3    0    0  0.10233697612E+02  0.26567925111E+02 -0.31392380525E+03  0.31521221219E+03  0.00000000000E+00 0. -1.
         11    1    5    5    0    0 -0.60461434976E+02 -0.12135986345E+02 -0.66250760733E+01  0.62022245339E+02  0.00000000000E+00 0. -1.
        -12    1    5    5    0    0 -0.12742396983E+02 -0.10551526320E+02  0.57418726767E+02  0.59754611304E+02  0.00000000000E+00 0.  1.
          5    1    4    4  501    0  0.15437057946E+03  0.39899205198E+02 -0.45727887422E+03  0.48429708195E+03  0.41800000000E+01 0.  1.
         -5    1    4    4    0  501 -0.28779878989E+01 -0.31980658193E+02 -0.48100420075E+02  0.57984205817E+02  0.41800000000E+01 0.  1.
</event>
<event>
11    1  0.8864208E-009  0.3370132E+03  0.7561462E-02  0.9856391E-01
         22   -1    0    0    0    0  0.00000000000E+00  0.00000000000E+00  0.41797974028E+03  0.41797974028E+03  0.00000000000E+00 0. -1.
         22   -1    0    0    0    0 -0.00000000000E+00 -0.00000000000E+00 -0.62748588924E+03  0.62748588924E+03  0.00000000000E+00 0. -1.
        -24    2    1    2    0    0  0.41745591895E+02  0.49234759285E+02 -0.26793052280E+03  0.28678833810E+03  0.79334922062E+02 0.  0.
         25    2    1    2    0    0  0.18957580702E+03 -0.25859633524E+03 -0.14941931381E+03  0.37521262084E+03  0.12508928127E+03 0.  0.
         24    2    1    2    0    0 -0.23132139892E+03  0.20936157596E+03  0.20784368764E+03  0.38346467058E+03  0.80649215786E+02 0.  0.
        -13    1    5    5    0    0 -0.33637919356E+02  0.70641074898E+02  0.72278548825E+02  0.10651694561E+03  0.00000000000E+00 0.  1.
         14    1    5    5    0    0 -0.19768347956E+03  0.13872050106E+03  0.13556513882E+03  0.27694772497E+03  0.00000000000E+00 0. -1.
         11    1    3    3    0    0  0.39823732195E+02  0.68970545739E+02 -0.18309672995E+03  0.19966792017E+03  0.00000000000E+00 0. -1.
        -12    1    3    3    0    0  0.19218597002E+01 -0.19735786454E+02 -0.84833792853E+02  0.87120417937E+02  0.00000000000E+00 0.  1.
          5    1    4    4  501    0  0.82277519161E+02 -0.14098847821E+03 -0.14098487292E+03  0.21573490199E+03  0.41800000000E+01 0.  1.
         -5    1    4    4    0  501  0.10729828786E+03 -0.11760785703E+03 -0.84344408884E+01  0.15947771884E+03  0.41800000000E+01 0.  1.
</event>
<event>
11    1  0.8864208E-009  0.1382929E+03  0.7561462E-02  0.1109480E+00
         22   -1    0    0    0    0  0.00000000000E+00  0.00000000000E+00  0.22571995532E+04  0.22571995532E+04  0.00000000000E+00 0. -1.
         22   -1    0    0    0    0 -0.00000000000E+00 -0.00000000000E+00 -0.10700903179E+03  0.10700903179E+03  0.00000000000E+00 0. -1.
         24    2    1    2    0    0 -0.29687686133E+02 -0.32274568412E+02 -0.50810913083E+02  0.10495612657E+03  0.80690973116E+02 0.  0.
         25    2    1    2    0    0  0.67530480375E+02  0.75237057003E+02  0.20310434702E+03  0.25907525971E+03  0.12509050280E+03 0.  0.
        -24    2    1    2    0    0 -0.37842794242E+02 -0.42962488591E+02  0.19978970875E+04  0.20001771987E+04  0.76408125104E+02 0.  0.
        -11    1    3    3    0    0 -0.10051738670E+02 -0.43390917451E+02  0.49390160990E+01  0.44812978562E+02  0.00000000000E+00 0.  1.
         12    1    3    3    0    0 -0.19635947462E+02  0.11116349039E+02 -0.55749929182E+02  0.60143148010E+02  0.00000000000E+00 0. -1.
         13    1    5    5    0    0 -0.41489736068E+02  0.97656764675E+01  0.88922235455E+03  0.89024331644E+03  0.00000000000E+00 0. -1.
        -14    1    5    5    0    0  0.36469418258E+01 -0.52728165059E+02  0.11086747329E+04  0.11099338823E+04  0.00000000000E+00 0.  1.
          5    1    4    4  501    0 -0.19481999050E+02  0.42172511599E+01  0.11356003371E+03  0.11537195132E+03  0.41800000000E+01 0. -1.
         -5    1    4    4    0  501  0.87012479424E+02  0.71019805843E+02  0.89544313306E+02  0.14370330839E+03  0.41800000000E+01 0. -1.
</event>
<event>
11    1  0.8864208E-009  0.1392357E+03  0.7561462E-02  0.1108415E+00
         22   -1    0    0    0    0  0.00000000000E+00  0.00000000000E+00  0.99174437223E+03  0.99174437223E+03  0.00000000000E+00 0. -1.
         22   -1    0    0    0    0 -0.00000000000E+00 -0.00000000000E+00 -0.40511051857E+03  0.40511051857E+03  0.00000000000E+00 0. -1.
        -24    2    1    2    0    0  0.38761743661E+02  0.47625438772E+02 -0.38025736733E+03  0.39377583724E+03  0.81811303581E+02 0.  0.
         25    2    1    2    0    0 -0.26420033996E+02 -0.41124116868E+02  0.27076018361E+03  0.30224567415E+03  0.12510859016E+03 0.  0.
         24    2    1    2    0    0 -0.12341709665E+02 -0.65013219045E+01  0.69613103738E+03  0.70083337940E+03  0.79839961746E+02 0.  0.
        -11    1    5    5    0    0  0.30469751000E+02 -0.11099074918E+02  0.43203834351E+03  0.43325365025E+03  0.00000000000E+00 0.  1.
         12    1    5    5    0    0 -0.42811460664E+02  0.45977530132E+01  0.26409269387E+03  0.26757972915E+03  0.00000000000E+00 0. -1.
         11    1    3    3    0    0 -0.40741410080E+01  0.11688966167E+02 -0.26875221828E+03  0.26903714499E+03  0.00000000000E+00 0. -1.
        -12    1    3    3    0    0  0.42835884669E+02  0.35936472605E+02 -0.11150514906E+03  0.12473869225E+03  0.00000000000E+00 0.  1.
          5    1    4    4  501    0 -0.29526843508E+02 -0.61076668721E+01  0.12980141970E+01  0.30467939265E+02  0.41800000000E+01 0.  1.
         -5    1    4    4    0  501  0.31068095123E+01 -0.35016449995E+02  0.26946216941E+03  0.27177773489E+03  0.41800000000E+01 0.  1.
</event>
<event>
11    1  0.8864208E-009  0.2533053E+03  0.7561462E-02  0.1022153E+00
         22   -1    0    0    0    0  0.00000000000E+00  0.00000000000E+00  0.52424423130E+03  0.52424423130E+03  0.00000000000E+00 0.  1.
         22   -1    0    0    0    0 -0.00000000000E+00 -0.00000000000E+00 -0.26034700072E+04  0.26034700072E+04  0.00000000000E+00 0.  1.
         24    2    1    2    0    0  0.27364174148E+02  0.21817404872E+03 -0.20999364025E+04  0.21129784838E+04  0.81218622819E+02 0.  0.
         25    2    1    2    0    0  0.54000020557E+01 -0.22421101465E+03 -0.45985530655E+03  0.52670164740E+03  0.12509189940E+03 0.  0.
        -24    2    1    2    0    0 -0.32764176204E+02  0.60369659347E+01  0.48056593312E+03  0.48803410737E+03  0.78254314126E+02 0.  0.
        -13    1    3    3    0    0 -0.97015590192E+01  0.17281655673E+03 -0.16974235742E+04  0.17062257977E+04  0.00000000000E+00 0.  1.
         14    1    3    3    0    0  0.37065733168E+02  0.45357491992E+02 -0.40251282831E+03  0.40675268605E+03  0.00000000000E+00 0. -1.
         11    1    5    5    0    0 -0.20841247089E+01  0.27531440201E+02  0.62917504770E+02  0.68709069138E+02  0.00000000000E+00 0. -1.
        -12    1    5    5    0    0 -0.30680051495E+02 -0.21494474266E+02  0.41764842835E+03  0.41932503823E+03  0.00000000000E+00 0.  1.
          5    1    4    4  501    0  0.51362135362E+02 -0.41274393180E+02 -0.91415700418E+02  0.11276500860E+03  0.41800000000E+01 0.  1.
         -5    1    4    4    0  501 -0.45962133306E+02 -0.18293662147E+03 -0.36843960613E+03  0.41393663880E+03  0.41800000000E+01 0.  1.
</event>
<event>
11    1  0.8864208E-009  0.1779143E+03  0.7561462E-02  0.1071343E+00
         22   -1    0    0    0    0  0.00000000000E+00  0.00000000000E+00  0.17415699508E+04  0.17415699508E+04  0.00000000000E+00 0. -1.
         22   -1    0    0    0    0 -0.00000000000E+00 -0.00000000000E+00 -0.38834649096E+04  0.38834649096E+04  0.00000000000E+00 0. -1.
        -24    2    1    2    0    0  0.40478725815E+00 -0.12659922532E+03 -0.38179515438E+04  0.38208963184E+04  0.80418637963E+02 0.  0.
         25    2    1    2    0    0 -0.81088341685E+02  0.11852702868E+03  0.84287575133E+02  0.20826284213E+03  0.12508013594E+03 0.  0.
         24    2    1    2    0    0  0.80683554427E+02  0.80721966419E+01  0.15917690099E+04  0.15958757000E+04  0.80719716261E+02 0.  0.
        -13    1    5    5    0    0  0.82719000211E+01 -0.49736466673E+01  0.18318061392E+02  0.20705382496E+02  0.00000000000E+00 0.  1.
         14    1    5    5    0    0  0.72411654406E+02  0.13045843309E+02  0.15734509485E+04  0.15751703175E+04  0.00000000000E+00 0. -1.
         13    1    3    3    0    0 -0.33913148234E+01 -0.11860069022E+03 -0.24116515140E+04  0.24145684189E+04  0.00000000000E+00 0. -1.
        -14    1    3    3    0    0  0.37961020815E+01 -0.79985350985E+01 -0.14063000298E+04  0.14063278995E+04  0.00000000000E+00 0.  1.
          5    1    4    4  501    0 -0.17131116260E+02  0.12373575770E+03  0.44644245046E+02  0.13271998302E+03  0.41800000000E+01 0. -1.
         -5    1    4    4    0  501 -0.63957225425E+02 -0.52087290200E+01  0.39643330087E+02  0.75542859109E+02  0.41800000000E+01 0. -1.
</event>
<event>
11    1  0.8864208E-009  0.1429077E+03  0.7561462E-02  0.1104354E+00
         22   -1    0    0    0    0  0.00000000000E+00  0.00000000000E+00  0.57336490661E+03  0.57336490661E+03  0.00000000000E+00 0.  1.
         22   -1    0    0    0    0 -0.00000000000E+00 -0.00000000000E+00 -0.23466393696E+04  0.23466393696E+04  0.00000000000E+00 0. -1.
        -24    2    1    2    0    0  0.36119694930E+02 -0.32385563203E+02 -0.22041382069E+04  0.22060546967E+04  0.78093742996E+02 0.  0.
         25    2    1    2    0    0 -0.80776870678E+02 -0.20387149920E+02 -0.95022131170E+02  0.17781167009E+03  0.12508895190E+03 0.  0.
         24    2    1    2    0    0  0.44657175748E+02  0.52772713124E+02  0.52588587500E+03  0.53613790950E+03  0.78158057008E+02 0.  0.
        -11    1    5    5    0    0  0.42655308341E+02  0.46006121015E+02  0.52532623184E+03  0.52905924844E+03  0.00000000000E+00 0.  1.
         12    1    5    5    0    0  0.20018674070E+01  0.67665921087E+01  0.55964316283E+00  0.70786610564E+01  0.00000000000E+00 0. -1.
         13    1    3    3    0    0  0.50381873399E+02 -0.21356568571E+02 -0.83178267276E+03  0.83358074047E+03  0.00000000000E+00 0. -1.
        -14    1    3    3    0    0 -0.14262178469E+02 -0.11028994632E+02 -0.13723555341E+04  0.13724739562E+04  0.00000000000E+00 0.  1.
          5    1    4    4  501    0 -0.10894014818E+03  0.82986243887E+01 -0.75910248849E+02  0.13310394935E+03  0.41800000000E+01 0. -1.
         -5    1    4    4    0  501  0.28163277504E+02 -0.28685774309E+02 -0.19111882321E+02  0.44707720735E+02  0.41800000000E+01 0. -1.
</event>
<event>
11    1  0.8864208E-009  0.1311540E+03  0.7561462E-02  0.1117859E+00
         22   -1    0    0    0    0  0.00000000000E+00  0.00000000000E+00  0.53379003647E+03  0.53379003647E+03  0.00000000000E+00 0.  1.
         22   -1    0    0    0    0 -0.00000000000E+00 -0.00000000000E+00 -0.32361183884E+03  0.32361183884E+03  0.00000000000E+00 0.  1.
        -24    2    1    2    0    0  0.70051360401E+00 -0.39558367272E+02 -0.17228884714E+03  0.19386666552E+03  0.79595741156E+02 0.  0.
         25    2    1    2    0    0  0.87989559172E+01  0.74529729386E-01 -0.10751104819E+03  0.16516796432E+03  0.12507759102E+03 0.  0.
         24    2    1    2    0    0 -0.94994695212E+01  0.39483837543E+02  0.48997809295E+03  0.49836724547E+03  0.81499487318E+02 0.  0.
        -11    1    5    5    0    0 -0.63110828822E+01  0.12374277259E+02  0.44848856130E+03  0.44870362392E+03  0.00000000000E+00 0.  1.
         12    1    5    5    0    0 -0.31883866390E+01  0.27109560284E+02  0.41489531654E+02  0.49663621546E+02  0.00000000000E+00 0. -1.
         11    1    3    3    0    0 -0.20430207683E+02 -0.57392332428E+02 -0.12584335746E+03  0.13981353233E+03  0.00000000000E+00 0. -1.
        -12    1    3    3    0    0  0.21130721287E+02  0.17833965156E+02 -0.46445489686E+02  0.54053133188E+02  0.00000000000E+00 0.  1.
          5    1    4    4  501    0 -0.14479884192E+02  0.55272079487E+02 -0.81746596768E+02  0.99823085006E+02  0.41800000000E+01 0.  1.
         -5    1    4    4    0  501  0.23278840110E+02 -0.55197549757E+02 -0.25764451419E+02  0.65344879317E+02  0.41800000000E+01 0.  1.
</event>
<event>
11    1  0.8864208E-009  0.1468504E+03  0.7561462E-02  0.1100141E+00
         22   -1    0    0    0    0  0.00000000000E+00  0.00000000000E+00  0.10330949069E+03  0.10330949069E+03  0.00000000000E+00 0. -1.
         22   -1    0    0    0    0 -0.00000000000E+00 -0.00000000000E+00 -0.18076006570E+04  0.18076006570E+04  0.00000000000E+00 0.  1.
        -24    2    1    2    0    0 -0.92055472036E+01  0.72985248233E+02 -0.12175829059E+04  0.12223324530E+04  0.78593283178E+02 0.  0.
         25    2    1    2    0    0  0.41455333639E+02 -0.86975022497E+02 -0.55481332542E+03  0.57684323130E+03  0.12508832163E+03 0.  0.
         24    2    1    2    0    0 -0.32249786436E+02  0.13989774264E+02  0.68105065003E+02  0.11173446347E+03  0.81305153213E+02 0.  0.
        -11    1    5    5    0    0 -0.13091487318E+02 -0.33907506371E+02  0.34868743696E+02  0.50367998922E+02  0.00000000000E+00 0.  1.
         12    1    5    5    0    0 -0.19158299118E+02  0.47897280635E+02  0.33236321308E+02  0.61366464550E+02  0.00000000000E+00 0. -1.
         13    1    3    3    0    0 -0.17726718136E+02 -0.10002415068E+02 -0.13330156569E+03  0.13484655079E+03  0.00000000000E+00 0. -1.
        -14    1    3    3    0    0  0.85211709328E+01  0.82987663300E+02 -0.10842813403E+04  0.10874859022E+04  0.00000000000E+00 0.  1.
          5    1    4    4  501    0 -0.41988416558E+01 -0.49986786378E+02 -0.47492830582E+03  0.47758839721E+03  0.41800000000E+01 0. -1.
         -5    1    4    4    0  501  0.45654175295E+02 -0.36988236119E+02 -0.79885019597E+02  0.99254834084E+02  0.41800000000E+01 0. -1.
</event>
<event>
11    1  0.8864208E-009  0.2079551E+03  0.7561462E-02  0.1049036E+00
         22   -1    0    0    0    0  0.00000000000E+00  0.00000000000E+00  0.33579744195E+03  0.33579744195E+03  0.00000000000E+00 0.  1.
         22   -1    0    0    0    0 -0.00000000000E+00 -0.00000000000E+00 -0.17214376455E+04  0.17214376455E+04  0.00000000000E+00 0. -1.
         24    2    1    2    0    0  0.81026423901E+02 -0.14647218014E+03 -0.14491114358E+04  0.14610126384E+04  0.81330161907E+02 0.  0.
         25    2    1    2    0    0 -0.88624196207E+02  0.13126380455E+03 -0.22139562323E+03  0.29957853427E+03  0.12508733618E+03 0.  0.
        -24    2    1    2    0    0  0.75977723058E+01  0.15208375589E+02  0.28486685546E+03  0.29664391481E+03  0.80990530432E+02 0.  0.
        -13    1    3    3    0    0 -0.89765306389E+01 -0.12605065029E+01 -0.20806683160E+03  0.20826419134E+03  0.00000000000E+00 0.  1.
         14    1    3    3    0    0  0.90002954540E+02 -0.14521167364E+03 -0.12410446042E+04  0.12527484470E+04  0.00000000000E+00 0. -1.
         11    1    5    5    0    0 -0.16132932026E+02 -0.15645241711E+02  0.23962068413E+02  0.32851572360E+02  0.00000000000E+00 0. -1.
        -12    1    5    5    0    0  0.23730704331E+02  0.30853617300E+02  0.26090478705E+03  0.26379234245E+03  0.00000000000E+00 0.  1.
          5    1    4    4  501    0 -0.60985266166E+02  0.13689527578E+03 -0.11367087390E+03  0.18814371951E+03  0.41800000000E+01 0. -1.
         -5    1    4    4    0  501 -0.27638930041E+02 -0.56314712268E+01 -0.10772474933E+03  0.11143481476E+03  0.41800000000E+01 0. -1.
</event>
<event>
11    1  0.8864208E-009  0.1571893E+03  0.7561462E-02  0.1089751E+00
         22   -1    0    0    0    0  0.00000000000E+00  0.00000000000E+00  0.48739764961E+03  0.48739764961E+03  0.00000000000E+00 0.  1.
         22   -1    0    0    0    0 -0.00000000000E+00 -0.00000000000E+00 -0.11978164620E+04  0.11978164620E+04  0.00000000000E+00 0. -1.
        -24    2    1    2    0    0 -0.84671976472E+02  0.42758672023E+02 -0.11477827365E+04  0.11544355535E+04  0.79489555032E+02 0.  0.
         25    2    1    2    0    0  0.97606101827E+02 -0.55835204381E+02  0.12932314091E+03  0.21217087654E+03  0.12508990733E+03 0.  0.
         24    2    1    2    0    0 -0.12934125355E+02  0.13076532358E+02  0.30804078327E+03  0.31860768149E+03  0.79268173001E+02 0.  0.
        -13    1    5    5    0    0 -0.37536253055E+02  0.95933275155E+01  0.27251220119E+03  0.27525243328E+03  0.00000000000E+00 0.  1.
         14    1    5    5    0    0  0.24602127700E+02  0.34832048424E+01  0.35528582078E+02  0.43355248215E+02  0.00000000000E+00 0. -1.
         13    1    3    3    0    0 -0.50790394606E+02  0.43086101576E+02 -0.10220323007E+04  0.10242002245E+04  0.00000000000E+00 0. -1.
        -14    1    3    3    0    0 -0.33881581867E+02 -0.32742955339E+00 -0.12575043585E+03  0.13023532899E+03  0.00000000000E+00 0.  1.
          5    1    4    4  501    0  0.91062313853E+02 -0.92595943132E+02  0.91985766828E+02  0.15920178199E+03  0.41800000000E+01 0.  1.
         -5    1    4    4    0  501  0.65437879747E+01  0.36760738751E+02  0.37337374084E+02  0.52969094556E+02  0.41800000000E+01 0.  1.
</event>
<event>
11    1  0.8864208E-009  0.6105816E+03  0.7561462E-02  0.9175560E-01
         22   -1    0    0    0    0  0.00000000000E+00  0.00000000000E+00  0.10541744800E+04  0.10541744800E+04  0.00000000000E+00 0. -1.
         22   -1    0    0    0    0 -0.00000000000E+00 -0.00000000000E+00 -0.59961015835E+03  0.59961015835E+03  0.00000000000E+00 0. -1.
        -24    2    1    2    0    0 -0.36094221149E+03 -0.48807092243E+03 -0.10599365535E+03  0.62127855995E+03  0.79119458564E+02 0.  0.
         25    2    1    2    0    0  0.15080201614E+03  0.58878756746E+03  0.40584618587E+03  0.74146441689E+03  0.12508520002E+03 0.  0.
         24    2    1    2    0    0  0.21014019535E+03 -0.10071664503E+03  0.15471179110E+03  0.29104166147E+03  0.80416205575E+02 0.  0.
        -13    1    5    5    0    0  0.31187638639E+02 -0.44583312005E+02  0.12912068316E+02  0.55920139676E+02  0.00000000000E+00 0.  1.
         14    1    5    5    0    0  0.17895255671E+03 -0.56133333027E+02  0.14179972278E+03  0.23512152179E+03  0.00000000000E+00 0. -1.
         13    1    3    3    0    0 -0.17035008259E+03 -0.21817598456E+03 -0.87707408059E+02  0.29036614869E+03  0.00000000000E+00 0. -1.
        -14    1    3    3    0    0 -0.19059212889E+03 -0.26989493787E+03 -0.18286247295E+02  0.33091241125E+03  0.00000000000E+00 0.  1.
          5    1    4    4  501    0  0.80496520392E+02  0.45516432206E+03  0.35234304007E+03  0.58122056068E+03  0.41800000000E+01 0. -1.
         -5    1    4    4    0  501  0.70305495747E+02  0.13362324540E+03  0.53503145802E+02  0.16024385621E+03  0.41800000000E+01 0. -1.
</event>
<event>
11    1  0.8864208E-009  0.1597744E+03  0.7561462E-02  0.1087290E+00
         22   -1    0    0    0    0  0.00000000000E+00  0.00000000000E+00  0.29562925372E+04  0.29562925372E+04  0.00000000000E+00 0.  1.
         22   -1    0    0    0    0 -0.00000000000E+00 -0.00000000000E+00 -0.36118998835E+03  0.36118998835E+03  0.00000000000E+00 0. -1.
        -24    2    1    2    0    0 -0.33908895181E+02  0.94732020002E+00 -0.15458739482E+03  0.17765841294E+03  0.80712690855E+02 0.  0.
         25    2    1    2    0    0 -0.54710290244E+02 -0.46443811668E+02 -0.16679565813E+03  0.22049644795E+03  0.12509056113E+03 0.  0.
         24    2    1    2    0    0  0.88619185426E+02  0.45496491468E+02  0.29164856018E+04  0.29193276646E+04  0.81623877611E+02 0.  0.
        -11    1    5    5    0    0  0.62633150718E+02  0.58659595558E+02  0.26222273025E+04  0.26236310499E+04  0.00000000000E+00 0.  1.
         12    1    5    5    0    0  0.25986034708E+02 -0.13163104091E+02  0.29425829925E+03  0.29569661477E+03  0.00000000000E+00 0. -1.
         13    1    3    3    0    0 -0.49598317271E+01  0.87206482532E+01 -0.14618448245E+03  0.14652833360E+03  0.00000000000E+00 0. -1.
        -14    1    3    3    0    0 -0.28949063454E+02 -0.77733280531E+01 -0.84029123645E+01  0.31130079346E+02  0.00000000000E+00 0.  1.
          5    1    4    4  501    0 -0.93149652393E+02 -0.48729855130E+02 -0.11575811187E+03  0.15642528372E+03  0.41800000000E+01 0.  1.
         -5    1    4    4    0  501  0.38439362149E+02  0.22860434624E+01 -0.51037546260E+02  0.64071164227E+02  0.41800000000E+01 0.  1.
</event>
<event>
11    1  0.8864208E-009  0.1415408E+03  0.7561462E-02  0.1105850E+00
         22   -1    0    0    0    0  0.00000000000E+00  0.00000000000E+00  0.13494372489E+03  0.13494372489E+03  0.00000000000E+00 0. -1.
         22   -1    0    0    0    0 -0.00000000000E+00 -0.00000000000E+00 -0.11857722837E+04  0.11857722837E+04  0.00000000000E+00 0. -1.
        -24    2    1    2    0    0  0.28232498132E+02 -0.34648834747E+02 -0.10487387898E+04  0.10527846687E+04  0.80652922138E+02 0.  0.
         25    2    1    2    0    0 -0.75746656781E+02 -0.11526603305E+02 -0.47839394503E+02  0.15429442577E+03  0.12509094116E+03 0.  0.
         24    2    1    2    0    0  0.47514158650E+02  0.46175438052E+02  0.45749625453E+02  0.11363691410E+03  0.80190733047E+02 0.  0.
        -13    1    5    5    0    0 -0.19552069121E+02 -0.20970467328E+00 -0.11151610521E+01  0.19584967887E+02  0.00000000000E+00 0.  1.
         14    1    5    5    0    0  0.67066227771E+02  0.46385142725E+02  0.46864786505E+02  0.94051946217E+02  0.00000000000E+00 0. -1.
         11    1    3    3    0    0  0.21938787636E+02  0.22573763233E+01 -0.86445472243E+03  0.86473601364E+03  0.00000000000E+00 0. -1.
        -12    1    3    3    0    0  0.62937104956E+01 -0.36906211070E+02 -0.18428406733E+03  0.18804865508E+03  0.00000000000E+00 0.  1.
          5    1    4    4  501    0  0.14200898352E+02  0.39458265252E+02 -0.55425629049E+01  0.42506618476E+02  0.41800000000E+01 0. -1.
         -5    1    4    4    0  501 -0.89947555133E+02 -0.50984868557E+02 -0.42296831598E+02  0.11178780729E+03  0.41800000000E+01 0. -1.
</event>
<event>
11    1  0.8864208E-009  0.1659317E+03  0.7561462E-02  0.1081627E+00
         22   -1    0    0    0    0  0.00000000000E+00  0.00000000000E+00  0.88808645419E+03  0.88808645419E+03  0.00000000000E+00 0.  1.
         22   -1    0    0    0    0 -0.00000000000E+00 -0.00000000000E+00 -0.58225737993E+03  0.58225737993E+03  0.00000000000E+00 0.  1.
        -24    2    1    2    0    0  0.27411733092E+02 -0.17940598773E+02 -0.47293811092E+03  0.48096231819E+03  0.81123526564E+02 0.  0.
         25    2    1    2    0    0  0.29002485407E+02  0.11114563173E+03 -0.27632368034E+02  0.17206310654E+03  0.12509064416E+03 0.  0.
         24    2    1    2    0    0 -0.56414218499E+02 -0.93205032954E+02  0.80639955322E+03  0.81731840938E+03  0.76546722090E+02 0.  0.
        -11    1    5    5    0    0 -0.71701116003E+02 -0.86880239556E+02  0.61708106676E+03  0.62727846210E+03  0.00000000000E+00 0.  1.
         12    1    5    5    0    0  0.15286897505E+02 -0.63247933985E+01  0.18931848646E+03  0.19003994728E+03  0.00000000000E+00 0. -1.
         11    1    3    3    0    0  0.41177397448E+02  0.20961266169E+02 -0.24499012507E+03  0.24930927404E+03  0.00000000000E+00 0. -1.
        -12    1    3    3    0    0 -0.13765664356E+02 -0.38901864942E+02 -0.22794798585E+03  0.23165304415E+03  0.00000000000E+00 0.  1.
          5    1    4    4  501    0 -0.46394850367E+02  0.29494725823E+02 -0.25697737199E+02  0.60829820722E+02  0.41800000000E+01 0.  1.
         -5    1    4    4    0  501  0.75397335774E+02  0.81650905905E+02 -0.19346308347E+01  0.11123328582E+03  0.41800000000E+01 0.  1.
</event>
<event>
11    1  0.8864208E-009  0.1369318E+03  0.7561462E-02  0.1111034E+00
         22   -1    0    0    0    0  0.00000000000E+00  0.00000000000E+00  0.37971452715E+03  0.37971452715E+03  0.00000000000E+00 0.  1.
         22   -1    0    0    0    0 -0.00000000000E+00 -0.00000000000E+00 -0.17311286740E+03  0.17311286740E+03  0.00000000000E+00 0. -1.
         24    2    1    2    0    0 -0.30081856852E+02  0.46187471684E+02 -0.76177283734E+02  0.12406491668E+03  0.80937780683E+02 0.  0.
         25    2    1    2    0    0  0.45021092473E+02 -0.38203637129E+02  0.48496158898E+01  0.13843279886E+03  0.12511476479E+03 0.  0.
        -24    2    1    2    0    0 -0.14939235621E+02 -0.79838345550E+01  0.27792932759E+03  0.29032967901E+03  0.82217327869E+02 0.  0.
        -13    1    3    3    0    0 -0.15553397856E+02  0.22168807552E+02  0.13384040626E+02  0.30207561249E+02  0.00000000000E+00 0.  1.
         14    1    3    3    0    0 -0.14528458996E+02  0.24018664132E+02 -0.89561324360E+02  0.93857355432E+02  0.00000000000E+00 0. -1.
         13    1    5    5    0    0 -0.15145055610E+02 -0.26740759976E+02  0.34596124903E+02  0.46274537402E+02  0.00000000000E+00 0. -1.
        -14    1    5    5    0    0  0.20581998883E+00  0.18756925421E+02  0.24333320269E+03  0.24405514160E+03  0.00000000000E+00 0.  1.
          5    1    4    4  501    0  0.80547595389E+02  0.63737605880E+01  0.72141955143E+01  0.81228424605E+02  0.41800000000E+01 0.  1.
         -5    1    4    4    0  501 -0.35526502916E+02 -0.44577397717E+02 -0.23645796245E+01  0.57204374251E+02  0.41800000000E+01 0.  1.
</event>
<event>
11    1  0.8864208E-009  0.1480249E+03  0.7561462E-02  0.1098914E+00
         22   -1    0    0    0    0  0.00000000000E+00  0.00000000000E+00  0.80379016618E+03  0.80379016618E+03  0.00000000000E+00 0. -1.
         22   -1    0    0    0    0 -0.00000000000E+00 -0.00000000000E+00 -0.13013103420E+04  0.13013103420E+04  0.00000000000E+00 0. -1.
         24    2    1    2    0    0  0.26767185199E+02 -0.74219346778E+02 -0.12732174173E+04  0.12784205663E+04  0.83973561000E+02 0.  0.
         25    2    1    2    0    0 -0.85483207428E+01  0.11343046597E+03  0.31665640906E+03  0.35897083741E+03  0.12509690770E+03 0.  0.
        -24    2    1    2    0    0 -0.18218864456E+02 -0.39211119194E+02  0.45904083238E+03  0.46770910452E+03  0.78510392750E+02 0.  0.
        -13    1    3    3    0    0 -0.10327827468E+02 -0.57401746705E+01 -0.68119633830E+03  0.68129880738E+03  0.00000000000E+00 0.  1.
         14    1    3    3    0    0  0.37095012667E+02 -0.68479172108E+02 -0.59202107899E+03  0.59712175890E+03  0.00000000000E+00 0. -1.
         13    1    5    5    0    0 -0.47608163820E+02 -0.31236004666E+02  0.24606731504E+03  0.25256949297E+03  0.00000000000E+00 0. -1.
        -14    1    5    5    0    0  0.29389299364E+02 -0.79751145277E+01  0.21297351735E+03  0.21513961155E+03  0.00000000000E+00 0.  1.
          5    1    4    4  501    0  0.10927854183E+01  0.43496386772E+01  0.19554008035E+03  0.19563616476E+03  0.41800000000E+01 0.  1.
         -5    1    4    4    0  501 -0.96411061611E+01  0.10908082729E+03  0.12111632870E+03  0.16333467265E+03  0.41800000000E+01 0.  1.
</event>
<event>
11    1  0.8864208E-009  0.2056551E+03  0.7561462E-02  0.1050595E+00
         22   -1    0    0    0    0  0.00000000000E+00  0.00000000000E+00  0.20394638757E+03  0.20394638757E+03  0.00000000000E+00 0. -1.
         22   -1    0    0    0    0 -0.00000000000E+00 -0.00000000000E+00 -0.19958295110E+04  0.19958295110E+04  0.00000000000E+00 0.  1.
        -24    2    1    2    0    0  0.13239529851E+02  0.58820191883E+02 -0.11414370955E+04  0.11458103008E+04  0.79796631762E+02 0.  0.
         25    2    1    2    0    0  0.11533998880E+03  0.45642642514E+02 -0.79848559607E+03  0.81769025595E+03  0.12510612977E+03 0.  0.
         24    2    1    2    0    0 -0.12857951865E+03 -0.10446283440E+03  0.14803956810E+03  0.23627534181E+03  0.80406138047E+02 0.  0.
        -11    1    5    5    0    0  0.40602681095E+01 -0.66571730484E+01  0.36388237188E+02  0.37214345833E+02  0.00000000000E+00 0.  1.
         12    1    5    5    0    0 -0.13263978676E+03 -0.97805661348E+02  0.11165133092E+03  0.19906099597E+03  0.00000000000E+00 0. -1.
         13    1    3    3    0    0  0.35094674992E+02  0.36214925476E+02 -0.33635688386E+03  0.34011631887E+03  0.00000000000E+00 0. -1.
        -14    1    3    3    0    0 -0.21855145140E+02  0.22605266407E+02 -0.80508021161E+03  0.80569398196E+03  0.00000000000E+00 0.  1.
          5    1    4    4  501    0  0.19587971213E+02  0.36855774118E+02 -0.61477253358E+02  0.74424201592E+02  0.41800000000E+01 0.  1.
         -5    1    4    4    0  501  0.95752017584E+02  0.87868683957E+01 -0.73700834272E+03  0.74326605436E+03  0.41800000000E+01 0.  1.
</event>
<event>
11    1  0.8864208E-009  0.1889701E+03  0.7561462E-02  0.1062610E+00
         22   -1    0    0    0    0  0.00000000000E+00  0.00000000000E+00  0.74111843161E+03  0.74111843161E+03  0.00000000000E+00 0. -1.
         22   -1    0    0    0    0 -0.00000000000E+00 -0.00000000000E+00 -0.47558056549E+03  0.47558056549E+03  0.00000000000E+00 0.  1.
        -24    2    1    2    0    0 -0.26783680517E+02 -0.49558852644E+02 -0.37608476029E+03  0.38898296848E+03  0.81820275155E+02 0.  0.
         25    2    1    2    0    0  0.25629519044E+02  0.18555893507E+03  0.71295191416E+02  0.23626299162E+03  0.12509279059E+03 0.  0.
         24    2    1    2    0    0  0.11541614730E+01 -0.13600008242E+03  0.57032743500E+03  0.59145303699E+03  0.77755754470E+02 0.  0.
        -13    1    5    5    0    0  0.10433760494E+02 -0.82638141299E+02  0.19228873610E+03  0.20955401162E+03  0.00000000000E+00 0.  1.
         14    1    5    5    0    0 -0.92795990214E+01 -0.53361941125E+02  0.37803869890E+03  0.38189902537E+03  0.00000000000E+00 0. -1.
         11    1    3    3    0    0 -0.21067250631E+02 -0.39304950910E+02 -0.72135430642E+02  0.84807007783E+02  0.00000000000E+00 0. -1.
        -12    1    3    3    0    0 -0.57164298858E+01 -0.10253901734E+02 -0.30394932965E+03  0.30417596070E+03  0.00000000000E+00 0.  1.
          5    1    4    4  501    0 -0.48149702127E+02  0.10314854513E+03  0.27195594279E+02  0.11711143806E+03  0.41800000000E+01 0.  1.
         -5    1    4    4    0  501  0.73779221171E+02  0.82410389942E+02  0.44099597137E+02  0.11915155356E+03  0.41800000000E+01 0.  1.
</event>
<event>
11    1  0.8864208E-009  0.1656570E+03  0.7561462E-02  0.1081874E+00
         22   -1    0    0    0    0  0.00000000000E+00  0.00000000000E+00  0.21070876374E+03  0.21070876374E+03  0.00000000000E+00 0.  1.
         22   -1    0    0    0    0 -0.00000000000E+00 -0.00000000000E+00 -0.27379965419E+04  0.27379965419E+04  0.00000000000E+00 0.  1.
         24    2    1    2    0    0 -0.28198098082E+02 -0.27799267429E+02 -0.21552701578E+04  0.21571683148E+04  0.81349575386E+02 0.  0.
         25    2    1    2    0    0  0.97690821542E+02 -0.55855637597E+02 -0.54626718738E+03  0.57158758979E+03  0.12506471899E+03 0.  0.
        -24    2    1    2    0    0 -0.69492723460E+02  0.83654905027E+02  0.17424956702E+03  0.21994940102E+03  0.78660318169E+02 0.  0.
        -13    1    3    3    0    0 -0.32100479712E+02  0.87501078756E+01 -0.17279199514E+04  0.17282402506E+04  0.00000000000E+00 0.  1.
         14    1    3    3    0    0  0.39023816298E+01 -0.36549375305E+02 -0.42735020636E+03  0.42892806424E+03  0.00000000000E+00 0. -1.
         13    1    5    5    0    0  0.14242714977E+02  0.28940069117E+01  0.67794044843E+01  0.16037160942E+02  0.00000000000E+00 0. -1.
        -14    1    5    5    0    0 -0.83735438437E+02  0.80760898115E+02  0.16747016253E+03  0.20391224008E+03  0.00000000000E+00 0.  1.
          5    1    4    4  501    0 -0.19858704717E+02 -0.32306456096E+02 -0.62971944474E+02  0.73627531871E+02  0.41800000000E+01 0.  1.
         -5    1    4    4    0  501  0.11754952626E+03 -0.23549181501E+02 -0.48329524290E+03  0.49796005792E+03  0.41800000000E+01 0.  1.
</event>
<event>
11    1  0.8864208E-009  0.1280322E+03  0.7561462E-02  0.1121711E+00
         22   -1    0    0    0    0  0.00000000000E+00  0.00000000000E+00  0.88471543647E+02  0.88471543647E+02  0.00000000000E+00 0. -1.
         22   -1    0    0    0    0 -0.00000000000E+00 -0.00000000000E+00 -0.10214999891E+04  0.10214999891E+04  0.00000000000E+00 0.  1.
        -24    2    1    2    0    0  0.12612116009E+02 -0.23849884321E+02 -0.86338753049E+03  0.86787593871E+03  0.83921003005E+02 0.  0.
         25    2    1    2    0    0  0.78259123016E+01  0.40064825319E+02 -0.84913663898E+02  0.15659999537E+03  0.12508714203E+03 0.  0.
         24    2    1    2    0    0 -0.20438028310E+02 -0.16214940998E+02  0.15272748930E+02  0.85495598671E+02  0.79972515400E+02 0.  0.
        -11    1    5    5    0    0  0.17936248238E+02  0.22317031469E+02 -0.12535040537E+01  0.28658858436E+02  0.00000000000E+00 0.  1.
         12    1    5    5    0    0 -0.38374276549E+02 -0.38531972467E+02  0.16526252983E+02  0.56836740234E+02  0.00000000000E+00 0. -1.
         13    1    3    3    0    0  0.33756369008E+02  0.19430464338E+02 -0.32120261205E+03  0.32355548733E+03  0.00000000000E+00 0. -1.
        -14    1    3    3    0    0 -0.21144253000E+02 -0.43280348660E+02 -0.54218491843E+03  0.54432045138E+03  0.00000000000E+00 0.  1.
          5    1    4    4  501    0  0.23105085230E+02  0.82368223329E+02 -0.47455462274E+02  0.97917631086E+02  0.41800000000E+01 0. -1.
         -5    1    4    4    0  501 -0.15279172928E+02 -0.42303398009E+02 -0.37458201624E+02  0.58682364279E+02  0.41800000000E+01 0. -1.
</event>
<event>
11    1  0.8864208E-009  0.1738573E+03  0.7561462E-02  0.1074723E+00
         22   -1    0    0    0    0  0.00000000000E+00  0.00000000000E+00  0.12965749879E+04  0.12965749879E+04  0.00000000000E+00 0.  1.
         22   -1    0    0    0    0 -0.00000000000E+00 -0.00000000000E+00 -0.14604897800E+03  0.14604897800E+03  0.00000000000E+00 0. -1.
         24    2    1    2    0    0 -0.53652403184E+02  0.10351369051E+03 -0.69609651699E+02  0.15814399793E+03  0.81057732388E+02 0.  0.
         25    2    1    2    0    0  0.55871569221E+02 -0.14087970607E+03  0.29151079396E+03  0.35156007284E+03  0.12508884038E+03 0.  0.
        -24    2    1    2    0    0 -0.22191660361E+01  0.37366015563E+02  0.92862486759E+03  0.93291989509E+03  0.81204939110E+02 0.  0.
        -11    1    3    3    0    0  0.17027311904E+02  0.49957090465E+02 -0.32717689917E+02  0.62097403101E+02  0.00000000000E+00 0.  1.
         12    1    3    3    0    0 -0.70679715088E+02  0.53556600046E+02 -0.36891961781E+02  0.96046594825E+02  0.00000000000E+00 0. -1.
         13    1    5    5    0    0 -0.95309624138E+01 -0.24880756488E+02  0.29744395235E+03  0.29863488758E+03  0.00000000000E+00 0. -1.
        -14    1    5    5    0    0  0.73117963777E+01  0.62246772051E+02  0.63118091524E+03  0.63428500752E+03  0.00000000000E+00 0.  1.
          5    1    4    4  501    0  0.41345720994E+02  0.10877299319E+02  0.49900877729E+02  0.65843407287E+02  0.41800000000E+01 0. -1.
         -5    1    4    4    0  501  0.14525848227E+02 -0.15175700539E+03  0.24160991623E+03  0.28571666555E+03  0.41800000000E+01 0. -1.
</event>
<event>
11    1  0.8864208E-009  0.1741204E+03  0.7561462E-02  0.1074501E+00
         22   -1    0    0    0    0  0.00000000000E+00  0.00000000000E+00  0.42364128354E+03  0.42364128354E+03  0.00000000000E+00 0.  1.
         22   -1    0    0    0    0 -0.00000000000E+00 -0.00000000000E+00 -0.99073404171E+03  0.99073404171E+03  0.00000000000E+00 0.  1.
         24    2    1    2    0    0 -0.58394145910E+02 -0.24150969146E+01 -0.79223246833E+03  0.79833796599E+03  0.79344281988E+02 0.  0.
         25    2    1    2    0    0 -0.49015260358E+02 -0.60894442220E+02 -0.15199112234E+03  0.21180081672E+03  0.12509059058E+03 0.  0.
        -24    2    1    2    0    0  0.10740940627E+03  0.63309539134E+02  0.37713083251E+03  0.40423654254E+03  0.75064233817E+02 0.  0.
        -13    1    3    3    0    0 -0.45136473189E+02  0.34631623745E+02 -0.38050160677E+03  0.38473123519E+03  0.00000000000E+00 0.  1.
         14    1    3    3    0    0 -0.13257672721E+02 -0.37046720660E+02 -0.41173086156E+03  0.41360673080E+03  0.00000000000E+00 0. -1.
         13    1    5    5    0    0  0.16823257119E+02  0.51458341741E+02  0.13605463929E+03  0.14643035132E+03  0.00000000000E+00 0. -1.
        -14    1    5    5    0    0  0.90586149149E+02  0.11851197394E+02  0.24107619321E+03  0.25780619122E+03  0.00000000000E+00 0.  1.
          5    1    4    4  501    0  0.36109167817E+02 -0.41595759043E+02 -0.33614296738E+02  0.64664306352E+02  0.41800000000E+01 0. -1.
         -5    1    4    4    0  501 -0.85124428175E+02 -0.19298683177E+02 -0.11837682560E+03  0.14713651037E+03  0.41800000000E+01 0. -1.
</event>
<event>
11    1  0.8864208E-009  0.1670988E+03  0.7561462E-02  0.1080584E+00
         22   -1    0    0    0    0  0.00000000000E+00  0.00000000000E+00  0.53891076555E+03  0.53891076555E+03  0.00000000000E+00 0.  1.
         22   -1    0    0    0    0 -0.00000000000E+00 -0.00000000000E+00 -0.10370627815E+04  0.10370627815E+04  0.00000000000E+00 0. -1.
        -24    2    1    2    0    0 -0.24809114293E+02  0.29913173494E+02 -0.93619243812E+03  0.94058655079E+03  0.82076112413E+02 0.  0.
         25    2    1    2    0    0  0.12345817650E+03  0.18215035823E+02 -0.14201036224E-02  0.17669270702E+03  0.12508638549E+03 0.  0.
         24    2    1    2    0    0 -0.98649062209E+02 -0.48128209317E+02  0.43804184229E+03  0.45869428923E+03  0.80447705787E+02 0.  0.
        -11    1    5    5    0    0 -0.84307278436E+01 -0.36148668775E+02  0.20832227970E+03  0.21160334507E+03  0.00000000000E+00 0.  1.
         12    1    5    5    0    0 -0.90218334366E+02 -0.11979540542E+02  0.22971956259E+03  0.24709094416E+03  0.00000000000E+00 0. -1.
         13    1    3    3    0    0  0.23052722370E+02  0.99235530997E+01 -0.58965295187E+03  0.59018684208E+03  0.00000000000E+00 0. -1.
        -14    1    3    3    0    0 -0.47861836663E+02  0.19989620394E+02 -0.34653948625E+03  0.35039970871E+03  0.00000000000E+00 0.  1.
          5    1    4    4  501    0  0.14318795759E+03  0.98733261050E+01 -0.22507764717E+02  0.14534216746E+03  0.41800000000E+01 0.  1.
         -5    1    4    4    0  501 -0.19729781091E+02  0.83417097183E+01  0.22506344613E+02  0.31350539561E+02  0.41800000000E+01 0.  1.
</event>
<event>
11    1  0.8864208E-009  0.1710846E+03  0.7561462E-02  0.1077092E+00
         22   -1    0    0    0    0  0.00000000000E+00  0.00000000000E+00  0.52473527157E+03  0.52473527157E+03  0.00000000000E+00 0.  1.
         22   -1    0    0    0    0 -0.00000000000E+00 -0.00000000000E+00 -0.57672017036E+03  0.57672017036E+03  0.00000000000E+00 0. -1.
        -24    2    1    2    0    0 -0.66256532191E+00  0.92393649306E+01 -0.44825658593E+03  0.45548602707E+03  0.80297877764E+02 0.  0.
         25    2    1    2    0    0 -0.25697806968E+02 -0.12213381676E+03 -0.45310703678E+02  0.18242519961E+03  0.12509535206E+03 0.  0.
         24    2    1    2    0    0  0.26360372290E+02  0.11289445183E+03  0.44158239081E+03  0.46354421524E+03  0.80238426728E+02 0.  0.
        -13    1    5    5    0    0 -0.56828879693E+01  0.10760696578E+03  0.35832372975E+03  0.37417569350E+03  0.00000000000E+00 0.  1.
         14    1    5    5    0    0  0.32043260259E+02  0.52874860506E+01  0.83258661060E+02  0.89368521742E+02  0.00000000000E+00 0. -1.
         11    1    3    3    0    0 -0.31231017809E+02  0.22631024970E+01 -0.80196439270E+02  0.86092781219E+02  0.00000000000E+00 0. -1.
        -12    1    3    3    0    0  0.30568452487E+02  0.69762624336E+01 -0.36806014666E+03  0.36939324585E+03  0.00000000000E+00 0.  1.
          5    1    4    4  501    0  0.50643581359E+02 -0.51675165208E+02 -0.23520351212E+02  0.76195632114E+02  0.41800000000E+01 0.  1.
         -5    1    4    4    0  501 -0.76341388327E+02 -0.70458651551E+02 -0.21790352465E+02  0.10622956750E+03  0.41800000000E+01 0.  1.
</event>
<event>
11    1  0.8864208E-009  0.1478717E+03  0.7561462E-02  0.1099074E+00
         22   -1    0    0    0    0  0.00000000000E+00  0.00000000000E+00  0.99542660081E+03  0.99542660081E+03  0.00000000000E+00 0.  1.
         22   -1    0    0    0    0 -0.00000000000E+00 -0.00000000000E+00 -0.15464862670E+04  0.15464862670E+04  0.00000000000E+00 0.  1.
         24    2    1    2    0    0 -0.77840840764E+02 -0.13055287361E+02 -0.15209394109E+04  0.15250969846E+04  0.80215233551E+02 0.  0.
         25    2    1    2    0    0  0.70296418034E+02  0.11400646222E+02  0.22216823977E+03  0.26472059469E+03  0.12508679134E+03 0.  0.
        -24    2    1    2    0    0  0.75444227295E+01  0.16546411381E+01  0.74771150496E+03  0.75209528854E+03  0.80716616862E+02 0.  0.
        -13    1    3    3    0    0 -0.44749681760E+02 -0.24548200495E+02 -0.13294752113E+04  0.13304546162E+04  0.00000000000E+00 0.  1.
         14    1    3    3    0    0 -0.33091159004E+02  0.11492913134E+02 -0.19146419961E+03  0.19464236843E+03  0.00000000000E+00 0. -1.
         13    1    5    5    0    0 -0.19931811865E+02 -0.29229345881E+02  0.22641015272E+03  0.22915756379E+03  0.00000000000E+00 0. -1.
        -14    1    5    5    0    0  0.27476234595E+02  0.30883987020E+02  0.52130135224E+03  0.52293772475E+03  0.00000000000E+00 0.  1.
          5    1    4    4  501    0 -0.64222169225E+01 -0.60494013205E+01 -0.13255402098E+02  0.16462630753E+02  0.41800000000E+01 0. -1.
         -5    1    4    4    0  501  0.76718634957E+02  0.17450047543E+02  0.23542364187E+03  0.24825796394E+03  0.41800000000E+01 0. -1.
</event>
<event>
11    1  0.8864208E-009  0.1333012E+03  0.7561462E-02  0.1115278E+00
         22   -1    0    0    0    0  0.00000000000E+00  0.00000000000E+00  0.22541810495E+03  0.22541810495E+03  0.00000000000E+00 0.  1.
         22   -1    0    0    0    0 -0.00000000000E+00 -0.00000000000E+00 -0.46133784423E+03  0.46133784423E+03  0.00000000000E+00 0.  1.
         24    2    1    2    0    0  0.41035381284E+02 -0.43403141760E+02 -0.27495798128E+03  0.29387273357E+03  0.84803047295E+02 0.  0.
         25    2    1    2    0    0 -0.26713726879E+02 -0.16538698259E+02 -0.13765137158E+03  0.18863838652E+03  0.12509751808E+03 0.  0.
        -24    2    1    2    0    0 -0.14321654405E+02  0.59941840019E+02  0.17668961358E+03  0.20424482909E+03  0.81844955207E+02 0.  0.
        -13    1    3    3    0    0  0.47201716059E+02  0.61489990519E+01 -0.18456560719E+03  0.19060502497E+03  0.00000000000E+00 0.  1.
         14    1    3    3    0    0 -0.61663347748E+01 -0.49552140812E+02 -0.90392374097E+02  0.10326770859E+03  0.00000000000E+00 0. -1.
         13    1    5    5    0    0 -0.37114019456E+01  0.55053017401E+02  0.42761046906E+02  0.69807709903E+02  0.00000000000E+00 0. -1.
        -14    1    5    5    0    0 -0.10610252460E+02  0.48888226179E+01  0.13392856667E+03  0.13443711918E+03  0.00000000000E+00 0.  1.
          5    1    4    4  501    0  0.48705615521E+02 -0.18438456629E+02 -0.69004883977E+02  0.86552643396E+02  0.41800000000E+01 0. -1.
         -5    1    4    4    0  501 -0.75419342400E+02  0.18997583700E+01 -0.68646487598E+02  0.10208574313E+03  0.41800000000E+01 0. -1.
</event>
<event>
11    1  0.8864208E-009  0.1493185E+03  0.7561462E-02  0.1097577E+00
         22   -1    0    0    0    0  0.00000000000E+00  0.00000000000E+00  0.26774377964E+03  0.26774377964E+03  0.00000000000E+00 0.  1.
         22   -1    0    0    0    0 -0.00000000000E+00 -0.00000000000E+00 -0.35239593803E+03  0.35239593803E+03  0.00000000000E+00 0.  1.
        -24    2    1    2    0    0  0.14083399450E+02 -0.47524521443E+02 -0.25400176365E+03  0.27094858584E+03  0.80245360960E+02 0.  0.
         25    2    1    2    0    0 -0.11177658994E+02  0.11917682184E+03  0.34008237948E+02  0.17644349990E+03  0.12509074101E+03 0.  0.
         24    2    1    2    0    0 -0.29057404553E+01 -0.71652300393E+02  0.13534136731E+03  0.17274763192E+03  0.79887190149E+02 0.  0.
        -13    1    5    5    0    0 -0.15963328880E+02 -0.86167125278E+02  0.10650573617E+03  0.13792415736E+03  0.00000000000E+00 0.  1.
         14    1    5    5    0    0  0.13057588425E+02  0.14514824886E+02  0.28835631144E+02  0.34823474560E+02  0.00000000000E+00 0. -1.
         13    1    3    3    0    0  0.12811351601E+02 -0.29631111479E+02 -0.23944335647E+02  0.40192843976E+02  0.00000000000E+00 0. -1.
        -14    1    3    3    0    0  0.12720478488E+01 -0.17893409963E+02 -0.23005742800E+03  0.23075574187E+03  0.00000000000E+00 0.  1.
          5    1    4    4  501    0 -0.54686534801E+02  0.75176135750E+02 -0.18858622732E+02  0.94948346622E+02  0.41800000000E+01 0.  1.
         -5    1    4    4    0  501  0.43508875807E+02  0.44000686085E+02  0.52866860679E+02  0.81495153279E+02  0.41800000000E+01 0.  1.
</event>
<event>
11    1  0.8864208E-009  0.1835983E+03  0.7561462E-02  0.1066769E+00
         22   -1    0    0    0    0  0.00000000000E+00  0.00000000000E+00  0.63858142863E+03  0.63858142863E+03  0.00000000000E+00 0. -1.
         22   -1    0    0    0    0 -0.00000000000E+00 -0.00000000000E+00 -0.25909920108E+03  0.25909920108E+03  0.00000000000E+00 0. -1.
        -24    2    1    2    0    0  0.21271002750E+02 -0.26647345380E+02 -0.14739818653E+03  0.17478861947E+03  0.87534561913E+02 0.  0.
         25    2    1    2    0    0  0.83934840409E+01  0.15507758958E+03  0.29015628085E+02  0.20151701734E+03  0.12509073603E+03 0.  0.
         24    2    1    2    0    0 -0.29664486791E+02 -0.12843024420E+03  0.49786478601E+03  0.52137499290E+03  0.81167904221E+02 0.  0.
        -13    1    5    5    0    0 -0.50316343837E+02 -0.47611120591E+02  0.26922039246E+03  0.27798951955E+03  0.00000000000E+00 0.  1.
         14    1    5    5    0    0  0.20651857046E+02 -0.80819123604E+02  0.22864439355E+03  0.24338547335E+03  0.00000000000E+00 0. -1.
         13    1    3    3    0    0  0.43498676819E+02 -0.36733511294E+02 -0.13680650472E+03  0.14818065147E+03  0.00000000000E+00 0. -1.
        -14    1    3    3    0    0 -0.22227674069E+02  0.10086165915E+02 -0.10591681815E+02  0.26607967999E+02  0.00000000000E+00 0.  1.
          5    1    4    4  501    0 -0.36010650837E+02  0.33834170384E+00 -0.59155248708E+01  0.36733462719E+02  0.41800000000E+01 0. -1.
         -5    1    4    4    0  501  0.44404134878E+02  0.15473924787E+03  0.34931152955E+02  0.16478355462E+03  0.41800000000E+01 0. -1.
</event>
<event>
11    1  0.8864208E-009  0.3675468E+03  0.7561462E-02  0.9750685E-01
         22   -1    0    0    0    0  0.00000000000E+00  0.00000000000E+00  0.10197294137E+04  0.10197294137E+04  0.00000000000E+00 0.  1.
         22   -1    0    0    0    0 -0.00000000000E+00 -0.00000000000E+00 -0.71499093133E+03  0.71499093133E+03  0.00000000000E+00 0.  1.
         24    2    1    2    0    0 -0.48598866976E+02  0.56872627922E+02 -0.29368765646E+03  0.31335871787E+03  0.79654885802E+02 0.  0.
         25    2    1    2    0    0  0.18934530068E+03  0.26178404420E+03 -0.29606250559E+03  0.45572329653E+03  0.12509271403E+03 0.  0.
        -24    2    1    2    0    0 -0.14074643370E+03 -0.31865667212E+03  0.89448864444E+03  0.96563833066E+03  0.10486094276E+03 0.  0.
        -11    1    3    3    0    0 -0.17770822307E+01 -0.99898566538E+01 -0.18415057281E+01  0.10312439118E+02  0.00000000000E+00 0.  1.
         12    1    3    3    0    0 -0.46821784746E+02  0.66862484576E+02 -0.29184615073E+03  0.30304627875E+03  0.00000000000E+00 0. -1.
         11    1    5    5    0    0 -0.49625055962E+02 -0.23464126528E+03  0.58466950191E+03  0.63194746302E+03  0.00000000000E+00 0. -1.
        -12    1    5    5    0    0 -0.91121377743E+02 -0.84015406838E+02  0.30981914253E+03  0.33369086764E+03  0.00000000000E+00 0.  1.
          5    1    4    4  501    0  0.10514231809E+03  0.10657144001E+03 -0.21339186505E+03  0.26070277972E+03  0.41800000000E+01 0.  1.
         -5    1    4    4    0  501  0.84202982588E+02  0.15521260418E+03 -0.82670640534E+02  0.19502051682E+03  0.41800000000E+01 0.  1.
</event>
<event>
11    1  0.1223724E-008  0.1698650E+03  0.7561462E-02  0.1078149E+00
         22   -1    0    0    0    0  0.00000000000E+00  0.00000000000E+00  0.75669278294E+03  0.75669278294E+03  0.00000000000E+00 0.  1.
         22   -1    0    0    0    0 -0.00000000000E+00 -0.00000000000E+00 -0.73029026956E+03  0.73029026956E+03  0.00000000000E+00 0. -1.
        -24    2    1    2    0    0 -0.83055301385E+02 -0.60449090777E+02 -0.61078561259E+03  0.62469492409E+03  0.81439597116E+02 0.  0.
         25    2    1    2    0    0 -0.18975138710E+01  0.13948053893E+03 -0.21425859189E+02  0.18859109445E+03  0.12509641147E+03 0.  0.
         24    2    1    2    0    0  0.84952815256E+02 -0.79031448153E+02  0.65861398516E+03  0.67369703396E+03  0.81439311713E+02 0.  0.
        -13    1    5    5    0    0  0.35692418719E+02  0.95712741972E+01  0.24886742952E+03  0.25159601650E+03  0.00000000000E+00 0.  1.
         14    1    5    5    0    0  0.49260396537E+02 -0.88602722350E+02  0.40974655565E+03  0.42210101746E+03  0.00000000000E+00 0. -1.
         11    1    3    3    0    0 -0.67312184488E+02 -0.30131739110E+02 -0.55037800593E+03  0.55529703879E+03  0.00000000000E+00 0. -1.
        -12    1    3    3    0    0 -0.15743116897E+02 -0.30317351667E+02 -0.60407606661E+02  0.69397885301E+02  0.00000000000E+00 0.  1.
          5    1    4    4  501    0 -0.50029780593E+02  0.12954919271E+02 -0.84832250486E+01  0.52538047039E+02  0.41800000000E+01 0. -1.
         -5    1    4    4    0  501  0.48132266721E+02  0.12652561966E+03 -0.12942634141E+02  0.13605304741E+03  0.41800000000E+01 0. -1.
</event>
<event>
11    1  0.8864208E-009  0.1659119E+03  0.7561462E-02  0.1081645E+00
         22   -1    0    0    0    0  0.00000000000E+00  0.00000000000E+00  0.22444550230E+03  0.22444550230E+03  0.00000000000E+00 0. -1.
         22   -1    0    0    0    0 -0.00000000000E+00 -0.00000000000E+00 -0.36515760343E+03  0.36515760343E+03  0.00000000000E+00 0.  1.
         24    2    1    2    0    0  0.97323428498E+02 -0.51261029741E+02 -0.26488362959E+03  0.29707737453E+03  0.77408567551E+02 0.  0.
         25    2    1    2    0    0 -0.10178526809E+03  0.26687756105E+02  0.31565440846E+02  0.16647734020E+03  0.12508337466E+03 0.  0.
        -24    2    1    2    0    0  0.44618395956E+01  0.24573273636E+02  0.92606087608E+02  0.12604839100E+03  0.81783590171E+02 0.  0.
        -11    1    3    3    0    0  0.77414087562E+02 -0.22225068987E+01 -0.19177116206E+03  0.20681890408E+03  0.00000000000E+00 0.  1.
         12    1    3    3    0    0  0.19909340936E+02 -0.49038522842E+02 -0.73112467532E+02  0.90258470448E+02  0.00000000000E+00 0. -1.
         11    1    5    5    0    0  0.15087983560E+02  0.32605158936E+01  0.99943700591E+02  0.10112873726E+03  0.00000000000E+00 0. -1.
        -12    1    5    5    0    0 -0.10626143964E+02  0.21312757742E+02 -0.73376129835E+01  0.24919653738E+02  0.00000000000E+00 0.  1.
          5    1    4    4  501    0 -0.82081490649E+02  0.57865611237E+02 -0.20451776412E+02  0.10257459544E+03  0.41800000000E+01 0. -1.
         -5    1    4    4    0  501 -0.19703777444E+02 -0.31177855132E+02  0.52017217258E+02  0.63902744757E+02  0.41800000000E+01 0. -1.
</event>
<event>
11    1  0.8864208E-009  0.1496384E+03  0.7561462E-02  0.1097249E+00
         22   -1    0    0    0    0  0.00000000000E+00  0.00000000000E+00  0.10792517437E+04  0.10792517437E+04  0.00000000000E+00 0. -1.
         22   -1    0    0    0    0 -0.00000000000E+00 -0.00000000000E+00 -0.61637391858E+03  0.61637391858E+03  0.00000000000E+00 0.  1.
         24    2    1    2    0    0  0.46964382629E+02  0.37844347399E+02 -0.44718126068E+03  0.45949702791E+03  0.86767452925E+02 0.  0.
         25    2    1    2    0    0  0.35106208788E+02 -0.49700879372E+02 -0.12956468230E+03  0.19009877447E+03  0.12509162183E+03 0.  0.
        -24    2    1    2    0    0 -0.82070591417E+02  0.11856531973E+02  0.10396237681E+04  0.10460298599E+04  0.80527816771E+02 0.  0.
        -13    1    3    3    0    0  0.56538347065E+02  0.27893086009E+02 -0.43887986468E+03  0.44338487182E+03  0.00000000000E+00 0.  1.
         14    1    3    3    0    0 -0.95739644362E+01  0.99512613902E+01 -0.83013959988E+01  0.16112156088E+02  0.00000000000E+00 0. -1.
         11    1    5    5    0    0 -0.51172194158E+02  0.91970592697E+01  0.94550292662E+03  0.94693134049E+03  0.00000000000E+00 0. -1.
        -12    1    5    5    0    0 -0.30898397259E+02  0.26594727028E+01  0.94120841499E+02  0.99098519428E+02  0.00000000000E+00 0.  1.
          5    1    4    4  501    0  0.72910912816E+02 -0.29580145918E+02 -0.12371180544E+03  0.14667334265E+03  0.41800000000E+01 0.  1.
         -5    1    4    4    0  501 -0.37804704028E+02 -0.20120733454E+02 -0.58528768646E+01  0.43425431822E+02  0.41800000000E+01 0.  1.
</event>
<event>
11    1  0.1122573E-008  0.1673777E+03  0.7561462E-02  0.1080336E+00
         22   -1    0    0    0    0  0.00000000000E+00  0.00000000000E+00  0.39093059852E+03  0.39093059852E+03  0.00000000000E+00 0. -1.
         22   -1    0    0    0    0 -0.00000000000E+00 -0.00000000000E+00 -0.98941098034E+03  0.98941098034E+03  0.00000000000E+00 0.  1.
         24    2    1    2    0    0 -0.15529035159E-01  0.52719806513E+02 -0.74130388633E+03  0.74742700979E+03  0.79600909690E+02 0.  0.
         25    2    1    2    0    0  0.99667458444E+02 -0.64080120923E+00 -0.20490188770E+03  0.25993609267E+03  0.12509186940E+03 0.  0.
        -24    2    1    2    0    0 -0.99651929409E+02 -0.52079005304E+02  0.34772539221E+03  0.37297847641E+03  0.74547070016E+02 0.  0.
        -13    1    3    3    0    0  0.68412947783E+01 -0.34114701256E+01 -0.48059667149E+03  0.48065746857E+03  0.00000000000E+00 0.  1.
         14    1    3    3    0    0 -0.68568238134E+01  0.56131276639E+02 -0.26070721484E+03  0.26676954121E+03  0.00000000000E+00 0. -1.
         13    1    5    5    0    0 -0.87453946233E+02 -0.15848069038E+02  0.29328370684E+03  0.30645503210E+03  0.00000000000E+00 0. -1.
        -14    1    5    5    0    0 -0.12197983176E+02 -0.36230936265E+02  0.54441685370E+02  0.66523444304E+02  0.00000000000E+00 0.  1.
          5    1    4    4  501    0  0.29412992745E+02  0.31542421412E+02 -0.16928998606E+03  0.17474730404E+03  0.41800000000E+01 0.  1.
         -5    1    4    4    0  501  0.70254465699E+02 -0.32183222622E+02 -0.35611901642E+02  0.85188788626E+02  0.41800000000E+01 0.  1.
</event>
<event>
11    1  0.8864208E-009  0.1442223E+03  0.7561462E-02  0.1102933E+00
         22   -1    0    0    0    0  0.00000000000E+00  0.00000000000E+00  0.20884465985E+04  0.20884465985E+04  0.00000000000E+00 0.  1.
         22   -1    0    0    0    0 -0.00000000000E+00 -0.00000000000E+00 -0.84192134233E+02  0.84192134233E+02  0.00000000000E+00 0. -1.
         24    2    1    2    0    0  0.36793780301E+02 -0.64252221922E+02 -0.36299125007E+02  0.11686908873E+03  0.82816828803E+02 0.  0.
         25    2    1    2    0    0 -0.49130713750E+02  0.10405241709E+01  0.82001826267E+03  0.83095699887E+03  0.12507866781E+03 0.  0.
        -24    2    1    2    0    0  0.12336933449E+02  0.63211697751E+02  0.12205353266E+04  0.12248126451E+04  0.79445664000E+02 0.  0.
        -11    1    3    3    0    0  0.44253090957E+02 -0.43369562807E+02  0.12552270192E+02  0.63220364791E+02  0.00000000000E+00 0.  1.
         12    1    3    3    0    0 -0.74593106559E+01 -0.20882659115E+02 -0.48851395199E+02  0.53648723937E+02  0.00000000000E+00 0. -1.
         11    1    5    5    0    0 -0.21280974770E+01  0.68698354937E+02  0.57518982167E+03  0.57928173087E+03  0.00000000000E+00 0. -1.
        -12    1    5    5    0    0  0.14465030926E+02 -0.54866571866E+01  0.64534550489E+03  0.64553091421E+03  0.00000000000E+00 0.  1.
          5    1    4    4  501    0 -0.32389230701E+02 -0.55177063824E+02  0.25705924936E+03  0.26493489903E+03  0.41800000000E+01 0. -1.
         -5    1    4    4    0  501 -0.16741483049E+02  0.56217587995E+02  0.56295901331E+03  0.56602209985E+03  0.41800000000E+01 0. -1.
</event>
<event>
11    1  0.8864208E-009  0.1347748E+03  0.7561462E-02  0.1113538E+00
         22   -1    0    0    0    0  0.00000000000E+00  0.00000000000E+00  0.10355998283E+03  0.10355998283E+03  0.00000000000E+00 0.  1.
         22   -1    0    0    0    0 -0.00000000000E+00 -0.00000000000E+00 -0.36617419673E+03  0.36617419673E+03  0.00000000000E+00 0. -1.
        -24    2    1    2    0    0 -0.26060176572E+02  0.52175846715E+01 -0.20811859997E+03  0.22617525222E+03  0.84472108250E+02 0.  0.
         25    2    1    2    0    0  0.14864533160E+02 -0.53819367194E+02 -0.66373367848E+02  0.15221638631E+03  0.12508767193E+03 0.  0.
         24    2    1    2    0    0  0.11195643412E+02  0.48601782522E+02  0.11877753922E+02  0.91342541025E+02  0.75596977895E+02 0.  0.
        -11    1    5    5    0    0 -0.23381603357E+01  0.66844072853E+02  0.29917062037E+01  0.66951828767E+02  0.00000000000E+00 0.  1.
         12    1    5    5    0    0  0.13533803748E+02 -0.18242290330E+02  0.88860477184E+01  0.24390712258E+02  0.00000000000E+00 0. -1.
         13    1    3    3    0    0  0.26621492736E+02  0.10297788636E+02 -0.12030895784E+03  0.12364867028E+03  0.00000000000E+00 0. -1.
        -14    1    3    3    0    0 -0.52681669308E+02 -0.50802039644E+01 -0.87809642132E+02  0.10252658194E+03  0.00000000000E+00 0.  1.
          5    1    4    4  501    0  0.24595750164E+02  0.35062413324E+01 -0.86848956034E+02  0.90429299558E+02  0.41800000000E+01 0. -1.
         -5    1    4    4    0  501 -0.97312170042E+01 -0.57325608526E+02  0.20475588186E+02  0.61787086748E+02  0.41800000000E+01 0. -1.
</event>
<event>
11    1  0.8864208E-009  0.1276146E+03  0.7561462E-02  0.1122235E+00
         22   -1    0    0    0    0  0.00000000000E+00  0.00000000000E+00  0.44939366024E+03  0.44939366024E+03  0.00000000000E+00 0.  1.
         22   -1    0    0    0    0 -0.00000000000E+00 -0.00000000000E+00 -0.80175495534E+03  0.80175495534E+03  0.00000000000E+00 0.  1.
        -24    2    1    2    0    0 -0.63471345081E+02 -0.19756131242E+02 -0.57578443344E+03  0.58510560452E+03  0.80012113339E+02 0.  0.
         25    2    1    2    0    0  0.86760807463E+02  0.16834395517E+02 -0.18741471684E+03  0.24203556512E+03  0.12508438796E+03 0.  0.
         24    2    1    2    0    0 -0.23289462382E+02  0.29217357246E+01  0.41083785517E+03  0.42400744594E+03  0.10219410634E+03 0.  0.
        -13    1    5    5    0    0 -0.17726957478E+02  0.14293194399E+02  0.41071704200E+03  0.41134782000E+03  0.00000000000E+00 0.  1.
         14    1    5    5    0    0 -0.55625049044E+01 -0.11371458674E+02  0.12081317587E+00  0.12659625943E+02  0.00000000000E+00 0. -1.
         13    1    3    3    0    0 -0.32137357099E+02 -0.28922877341E+02 -0.11020290591E+03  0.11838083893E+03  0.00000000000E+00 0. -1.
        -14    1    3    3    0    0 -0.31333987982E+02  0.91667460993E+01 -0.46558152753E+03  0.46672476559E+03  0.00000000000E+00 0.  1.
          5    1    4    4  501    0 -0.27741688016E+02  0.16923628634E+02 -0.73469399232E+02  0.80443989730E+02  0.41800000000E+01 0.  1.
         -5    1    4    4    0  501  0.11450249548E+03 -0.89233116995E-01 -0.11394531760E+03  0.16159157539E+03  0.41800000000E+01 0.  1.
</event>
<event>
11    1  0.8864208E-009  0.1752303E+03  0.7561462E-02  0.1073568E+00
         22   -1    0    0    0    0  0.00000000000E+00  0.00000000000E+00  0.67719788229E+02  0.67719788229E+02  0.00000000000E+00 0.  1.
         22   -1    0    0    0    0 -0.00000000000E+00 -0.00000000000E+00 -0.15519728847E+04  0.15519728847E+04  0.00000000000E+00 0.  1.
        -24    2    1    2    0    0 -0.61508779944E+02 -0.10343118456E+03 -0.11438120771E+04  0.11529170468E+04  0.80189207636E+02 0.  0.
         25    2    1    2    0    0  0.93930884660E+01  0.16186693017E+03 -0.18975547670E+03  0.27918392639E+03  0.12508953045E+03 0.  0.
         24    2    1    2    0    0  0.52115691478E+02 -0.58435745610E+02 -0.15068554269E+03  0.18759169980E+03  0.79710296671E+02 0.  0.
        -13    1    5    5    0    0  0.71184785511E+02 -0.32934455073E+02 -0.12007373788E+03  0.14342124859E+03  0.00000000000E+00 0.  1.
         14    1    5    5    0    0 -0.19069094033E+02 -0.25501290537E+02 -0.30611804809E+02  0.44170451209E+02  0.00000000000E+00 0. -1.
         13    1    3    3    0    0 -0.36282583558E+02 -0.54640011649E+01 -0.48469363518E+03  0.48608044721E+03  0.00000000000E+00 0. -1.
        -14    1    3    3    0    0 -0.25226196386E+02 -0.97967183391E+02 -0.65911844195E+03  0.66683659957E+03  0.00000000000E+00 0.  1.
          5    1    4    4  501    0 -0.32007945342E+02 -0.50776771026E+01 -0.27949989748E+02  0.42999601122E+02  0.41800000000E+01 0. -1.
         -5    1    4    4    0  501  0.41401033808E+02  0.16694460727E+03 -0.16180548695E+03  0.23618432527E+03  0.41800000000E+01 0. -1.
</event>
<event>
11    1  0.8864208E-009  0.1650557E+03  0.7561462E-02  0.1082416E+00
         22   -1    0    0    0    0  0.00000000000E+00  0.00000000000E+00  0.11725630294E+04  0.11725630294E+04  0.00000000000E+00 0.  1.
         22   -1    0    0    0    0 -0.00000000000E+00 -0.00000000000E+00 -0.59298283758E+02  0.59298283758E+02  0.00000000000E+00 0. -1.
         24    2    1    2    0    0  0.79817525093E+02  0.88642624346E+02  0.92252795869E+02  0.17400462196E+03  0.86825560497E+02 0.  0.
         25    2    1    2    0    0 -0.71786133788E+02 -0.35586143506E+02  0.35386087410E+03  0.38377647347E+03  0.12508893138E+03 0.  0.
        -24    2    1    2    0    0 -0.80313913052E+01 -0.53056480840E+02  0.66715107567E+03  0.67408021772E+03  0.80088006338E+02 0.  0.
        -11    1    3    3    0    0  0.24131816831E+02 -0.29628497956E+01  0.55643133775E+02  0.60722989046E+02  0.00000000000E+00 0.  1.
         12    1    3    3    0    0  0.55685708262E+02  0.91605474142E+02  0.36609662094E+02  0.11328163292E+03  0.00000000000E+00 0. -1.
         13    1    5    5    0    0  0.47878812181E+01 -0.33195986356E+02  0.83972652930E+02  0.90422916104E+02  0.00000000000E+00 0. -1.
        -14    1    5    5    0    0 -0.12819272523E+02 -0.19860494484E+02  0.58317842274E+03  0.58365730162E+03  0.00000000000E+00 0.  1.
          5    1    4    4  501    0 -0.49949368619E+02 -0.70303463946E+02  0.31675077583E+03  0.32830784769E+03  0.41800000000E+01 0.  1.
         -5    1    4    4    0  501 -0.21836765169E+02  0.34717320440E+02  0.37110098274E+02  0.55468625776E+02  0.41800000000E+01 0.  1.
</event>
<event>
11    1  0.8864208E-009  0.1300845E+03  0.7561462E-02  0.1119165E+00
         22   -1    0    0    0    0  0.00000000000E+00  0.00000000000E+00  0.93823173817E+03  0.93823173817E+03  0.00000000000E+00 0. -1.
         22   -1    0    0    0    0 -0.00000000000E+00 -0.00000000000E+00 -0.63993196977E+03  0.63993196977E+03  0.00000000000E+00 0. -1.
         24    2    1    2    0    0  0.15360996334E+02  0.28732869578E+02 -0.40730585496E+03  0.41645686968E+03  0.80478113904E+02 0.  0.
         25    2    1    2    0    0 -0.70973531188E+01  0.62996770722E+01 -0.20843094489E+03  0.24327288827E+03  0.12509268975E+03 0.  0.
        -24    2    1    2    0    0 -0.82636432157E+01 -0.35032546650E+02  0.91403656825E+03  0.91843394998E+03  0.82234452903E+02 0.  0.
        -11    1    3    3    0    0 -0.19763766484E+02  0.11470969703E+02 -0.33169613953E+02  0.40279186950E+02  0.00000000000E+00 0.  1.
         12    1    3    3    0    0  0.35124762818E+02  0.17261899874E+02 -0.37413624101E+03  0.37617768273E+03  0.00000000000E+00 0. -1.
         11    1    5    5    0    0  0.17764554963E+02 -0.52525268200E+02  0.68824806393E+03  0.69047800886E+03  0.00000000000E+00 0. -1.
        -12    1    5    5    0    0 -0.26028198179E+02  0.17492721550E+02  0.22578850432E+03  0.22795594112E+03  0.00000000000E+00 0.  1.
          5    1    4    4  501    0 -0.50080281161E+02 -0.37440212188E+02 -0.87623183260E+02  0.10772696364E+03  0.41800000000E+01 0. -1.
         -5    1    4    4    0  501  0.42982928042E+02  0.43739889261E+02 -0.12080776163E+03  0.13554592464E+03  0.41800000000E+01 0. -1.
</event>
<event>
11    1  0.8864208E-009  0.1571966E+03  0.7561462E-02  0.1089744E+00
         22   -1    0    0    0    0  0.00000000000E+00  0.00000000000E+00  0.40860374869E+03  0.40860374869E+03  0.00000000000E+00 0. -1.
         22   -1    0    0    0    0 -0.00000000000E+00 -0.00000000000E+00 -0.19716042912E+03  0.19716042912E+03  0.00000000000E+00 0. -1.
         24    2    1    2    0    0  0.59242991386E+01  0.51541600121E+02 -0.10217590639E+03  0.13885418719E+03  0.78415148990E+02 0.  0.
         25    2    1    2    0    0 -0.94597858136E+02 -0.74135319419E+02  0.56653572303E+02  0.18248254265E+03  0.12508177632E+03 0.  0.
        -24    2    1    2    0    0  0.88673558997E+02  0.22593719297E+02  0.25696565365E+03  0.28442744797E+03  0.80586287834E+02 0.  0.
        -13    1    3    3    0    0  0.29807634756E+01  0.44791419342E+02 -0.94981508883E+01  0.45884322681E+02  0.00000000000E+00 0.  1.
         14    1    3    3    0    0  0.29435356630E+01  0.67501807792E+01 -0.92677755500E+02  0.92969864511E+02  0.00000000000E+00 0. -1.
         13    1    5    5    0    0  0.90819894369E+02  0.54711450857E+01  0.14529759182E+03  0.17143388472E+03  0.00000000000E+00 0. -1.
        -14    1    5    5    0    0 -0.21463353715E+01  0.17122574212E+02  0.11166806183E+03  0.11299356325E+03  0.00000000000E+00 0.  1.
          5    1    4    4  501    0 -0.16173594551E+02  0.13924456218E+02 -0.29309283382E+02  0.36496330419E+02  0.41800000000E+01 0.  1.
         -5    1    4    4    0  501 -0.78424263585E+02 -0.88059775637E+02  0.85962855685E+02  0.14598621223E+03  0.41800000000E+01 0.  1.
</event>
<event>
11    1  0.8864208E-009  0.1414687E+03  0.7561462E-02  0.1105929E+00
         22   -1    0    0    0    0  0.00000000000E+00  0.00000000000E+00  0.13219083650E+04  0.13219083650E+04  0.00000000000E+00 0.  1.
         22   -1    0    0    0    0 -0.00000000000E+00 -0.00000000000E+00 -0.40284499921E+03  0.40284499921E+03  0.00000000000E+00 0. -1.
        -24    2    1    2    0    0 -0.23048490093E+02 -0.61878001777E+02 -0.37767371560E+03  0.39182166808E+03  0.80787772077E+02 0.  0.
         25    2    1    2    0    0  0.34942092053E+02  0.59239920897E+02  0.29287138423E+03  0.32581008097E+03  0.12509293800E+03 0.  0.
         24    2    1    2    0    0 -0.11893601960E+02  0.26380808791E+01  0.10038656972E+04  0.10071216152E+04  0.79994953199E+02 0.  0.
        -13    1    5    5    0    0  0.22807965110E+02 -0.26421379742E+02  0.50617287197E+03  0.50737488004E+03  0.00000000000E+00 0.  1.
         14    1    5    5    0    0 -0.34701567070E+02  0.29059460621E+02  0.49769282521E+03  0.49974673513E+03  0.00000000000E+00 0. -1.
         11    1    3    3    0    0 -0.17596766899E+02 -0.25466794787E+02 -0.33066812923E+03  0.33211385928E+03  0.00000000000E+00 0. -1.
        -12    1    3    3    0    0 -0.54517231945E+01 -0.36411206990E+02 -0.47005586377E+02  0.59707808793E+02  0.00000000000E+00 0.  1.
          5    1    4    4  501    0  0.49924578411E+02  0.87260958185E+02  0.26455570657E+03  0.28304440046E+03  0.41800000000E+01 0. -1.
         -5    1    4    4    0  501 -0.14982486358E+02 -0.28021037288E+02  0.28315677658E+02  0.42765680509E+02  0.41800000000E+01 0. -1.
</event>
<event>
11    1  0.8864208E-009  0.1351666E+03  0.7561462E-02  0.1113079E+00
         22   -1    0    0    0    0  0.00000000000E+00  0.00000000000E+00  0.53100595548E+03  0.53100595548E+03  0.00000000000E+00 0.  1.
         22   -1    0    0    0    0 -0.00000000000E+00 -0.00000000000E+00 -0.13435603645E+04  0.13435603645E+04  0.00000000000E+00 0. -1.
         24    2    1    2    0    0 -0.39473659827E+02  0.32667983820E+02 -0.12622423404E+04  0.12658277339E+04  0.80241878017E+02 0.  0.
         25    2    1    2    0    0  0.58592520544E+02 -0.74537732639E+01 -0.12167830171E+02  0.13886818580E+03  0.12509066607E+03 0.  0.
        -24    2    1    2    0    0 -0.19118860717E+02 -0.25214210556E+02  0.46185576155E+03  0.46987040030E+03  0.80412445309E+02 0.  0.
        -13    1    3    3    0    0  0.18101146611E+02  0.51518012973E+01 -0.95217816776E+02  0.97059905197E+02  0.00000000000E+00 0.  1.
         14    1    3    3    0    0 -0.57574806438E+02  0.27516182523E+02 -0.11670245236E+04  0.11687678287E+04  0.00000000000E+00 0. -1.
         11    1    5    5    0    0  0.29464449961E+02 -0.16380171533E+02  0.12721263772E+03  0.13160364366E+03  0.00000000000E+00 0. -1.
        -12    1    5    5    0    0 -0.48583310678E+02 -0.88340390233E+01  0.33464312383E+03  0.33826675664E+03  0.00000000000E+00 0.  1.
          5    1    4    4  501    0 -0.26220014960E+02 -0.33459442521E+02  0.16133247389E+02  0.45659364315E+02  0.41800000000E+01 0.  1.
         -5    1    4    4    0  501  0.84812535504E+02  0.26005669257E+02 -0.28301077559E+02  0.93208821488E+02  0.41800000000E+01 0.  1.
</event>
<event>
11    1  0.8864208E-009  0.2167919E+03  0.7561462E-02  0.1043246E+00
         22   -1    0    0    0    0  0.00000000000E+00  0.00000000000E+00  0.12223515820E+04  0.12223515820E+04  0.00000000000E+00 0.  1.
         22   -1    0    0    0    0 -0.00000000000E+00 -0.00000000000E+00 -0.17244081439E+04  0.17244081439E+04  0.00000000000E+00 0. -1.
         24    2    1    2    0    0 -0.17596546355E+03  0.12960990409E+02 -0.15883886815E+04  0.16001556339E+04  0.79922572419E+02 0.  0.
         25    2    1    2    0    0  0.18608013000E+03 -0.26196569072E+02 -0.28974168525E+02  0.22759466630E+03  0.12509098558E+03 0.  0.
        -24    2    1    2    0    0 -0.10114666451E+02  0.13235578662E+02  0.11153062880E+04  0.11190094257E+04  0.89423104899E+02 0.  0.
        -13    1    3    3    0    0 -0.51949084016E+02 -0.30537904769E+02 -0.61251732249E+03  0.61547440345E+03  0.00000000000E+00 0.  1.
         14    1    3    3    0    0 -0.12401637954E+03  0.43498895179E+02 -0.97587135897E+03  0.98468123042E+03  0.00000000000E+00 0. -1.
         11    1    5    5    0    0  0.20742437676E+02  0.19705587055E+02  0.12626968270E+03  0.12947042771E+03  0.00000000000E+00 0. -1.
        -12    1    5    5    0    0 -0.30857104127E+02 -0.64700083926E+01  0.98903660534E+03  0.98953899801E+03  0.00000000000E+00 0.  1.
          5    1    4    4  501    0  0.37873313712E+02  0.27275113457E+02 -0.50068720226E+02  0.68576007836E+02  0.41800000000E+01 0.  1.
         -5    1    4    4    0  501  0.14820681629E+03 -0.53471682529E+02  0.21094551702E+02  0.15901865846E+03  0.41800000000E+01 0.  1.
</event>
<event>
11    1  0.8864208E-009  0.3072825E+03  0.7561462E-02  0.9971554E-01
         22   -1    0    0    0    0  0.00000000000E+00  0.00000000000E+00  0.10530705633E+04  0.10530705633E+04  0.00000000000E+00 0.  1.
         22   -1    0    0    0    0 -0.00000000000E+00 -0.00000000000E+00 -0.50943339989E+03  0.50943339989E+03  0.00000000000E+00 0. -1.
        -24    2    1    2    0    0 -0.17079352950E+03  0.21588241683E+03 -0.38610517448E+03  0.48076060215E+03  0.79233220333E+02 0.  0.
         25    2    1    2    0    0  0.30149009361E+03 -0.22601515488E+03  0.68938574394E+03  0.79553726036E+03  0.12509077458E+03 0.  0.
         24    2    1    2    0    0 -0.13069656411E+03  0.10132738055E+02  0.24035659390E+03  0.28620610064E+03  0.83416878178E+02 0.  0.
        -13    1    5    5    0    0 -0.10700430437E+03  0.42273225516E+02  0.18709327992E+03  0.21963797973E+03  0.00000000000E+00 0.  1.
         14    1    5    5    0    0 -0.23692259735E+02 -0.32140487461E+02  0.53263313976E+02  0.66568120909E+02  0.00000000000E+00 0. -1.
         11    1    3    3    0    0 -0.53015695702E+02  0.12397029791E+03 -0.15346583630E+03  0.20428181922E+03  0.00000000000E+00 0. -1.
        -12    1    3    3    0    0 -0.11777783380E+03  0.91912118918E+02 -0.23263933818E+03  0.27647878293E+03  0.00000000000E+00 0.  1.
          5    1    4    4  501    0  0.21975048652E+03 -0.18023395499E+03  0.60881689145E+03  0.67190031594E+03  0.41800000000E+01 0.  1.
         -5    1    4    4    0  501  0.81739607091E+02 -0.45781199899E+02  0.80568852495E+02  0.12363694441E+03  0.41800000000E+01 0.  1.
</event>
<event>
11    1  0.8864208E-009  0.1358530E+03  0.7561462E-02  0.1112280E+00
         22   -1    0    0    0    0  0.00000000000E+00  0.00000000000E+00  0.11217049018E+04  0.11217049018E+04  0.00000000000E+00 0. -1.
         22   -1    0    0    0    0 -0.00000000000E+00 -0.00000000000E+00 -0.13789928692E+04  0.13789928692E+04  0.00000000000E+00 0.  1.
         24    2    1    2    0    0  0.61671200280E+01  0.15857104712E+02 -0.11196703063E+04  0.11224846542E+04  0.77593318439E+02 0.  0.
         25    2    1    2    0    0 -0.43408507908E+02  0.21895232754E+02 -0.23837188052E+03  0.27355856226E+03  0.12509769696E+03 0.  0.
        -24    2    1    2    0    0  0.37241387880E+02 -0.37752337466E+02  0.11007542195E+04  0.11046545545E+04  0.76089901322E+02 0.  0.
        -11    1    3    3    0    0 -0.13040674646E+02  0.13873038496E+02 -0.10504189493E+04  0.10505914950E+04  0.00000000000E+00 0.  1.
         12    1    3    3    0    0  0.19207794674E+02  0.19840662167E+01 -0.69251357036E+02  0.71893159246E+02  0.00000000000E+00 0. -1.
         13    1    5    5    0    0  0.46951038513E+02 -0.10294429433E+02  0.94366518166E+03  0.94488853860E+03  0.00000000000E+00 0. -1.
        -14    1    5    5    0    0 -0.97096506331E+01 -0.27457908033E+02  0.15708903779E+03  0.15976601586E+03  0.00000000000E+00 0.  1.
          5    1    4    4  501    0 -0.86578176242E+02  0.11871047016E+02 -0.13330140922E+03  0.15944729681E+03  0.41800000000E+01 0. -1.
         -5    1    4    4    0  501  0.43169668335E+02  0.10024185737E+02 -0.10507047130E+03  0.11411126545E+03  0.41800000000E+01 0. -1.
</event>
<event>
11    1  0.8864208E-009  0.1916629E+03  0.7561462E-02  0.1060581E+00
         22   -1    0    0    0    0  0.00000000000E+00  0.00000000000E+00  0.35226270844E+03  0.35226270844E+03  0.00000000000E+00 0. -1.
         22   -1    0    0    0    0 -0.00000000000E+00 -0.00000000000E+00 -0.74721028713E+03  0.74721028713E+03  0.00000000000E+00 0.  1.
         24    2    1    2    0    0  0.12818258553E+03  0.68234048592E+02 -0.65172979652E+03  0.67264110104E+03  0.81287529957E+02 0.  0.
         25    2    1    2    0    0 -0.80639891112E+02 -0.15398334979E+03  0.14906347076E+03  0.26092629714E+03  0.12509576401E+03 0.  0.
        -24    2    1    2    0    0 -0.47542694417E+02  0.85749301194E+02  0.10771874707E+03  0.16590559739E+03  0.79423474657E+02 0.  0.
        -11    1    3    3    0    0  0.72518246212E+02  0.81531423688E+02 -0.43666747866E+03  0.45009416348E+03  0.00000000000E+00 0.  1.
         12    1    3    3    0    0  0.55664339318E+02 -0.13297375096E+02 -0.21506231786E+03  0.22254693757E+03  0.00000000000E+00 0. -1.
         11    1    5    5    0    0 -0.36126036526E+02  0.76521732591E+02  0.34755171237E+02  0.91479986890E+02  0.00000000000E+00 0. -1.
        -12    1    5    5    0    0 -0.11416657891E+02  0.92275686036E+01  0.72963575831E+02  0.74425610496E+02  0.00000000000E+00 0.  1.
          5    1    4    4  501    0 -0.39791022162E+02 -0.11704623013E+03  0.16236600728E+03  0.20411599190E+03  0.41800000000E+01 0. -1.
         -5    1    4    4    0  501 -0.40848868950E+02 -0.36937119661E+02 -0.13302536517E+02  0.56810305237E+02  0.41800000000E+01 0. -1.
</event>
<event>
11    1  0.8864208E-009  0.1364585E+03  0.7561462E-02  0.1111579E+00
         22   -1    0    0    0    0  0.00000000000E+00  0.00000000000E+00  0.12730084822E+04  0.12730084822E+04  0.00000000000E+00 0. -1.
         22   -1    0    0    0    0 -0.00000000000E+00 -0.00000000000E+00 -0.19772084606E+04  0.19772084606E+04  0.00000000000E+00 0. -1.
         24    2    1    2    0    0  0.44325402073E+02  0.80218724613E+01 -0.19065608546E+04  0.19084426654E+04  0.71763661901E+02 0.  0.
         25    2    1    2    0    0 -0.89596693653E+02 -0.36304747630E+02  0.24365398865E+02  0.15995894546E+03  0.12509032479E+03 0.  0.
        -24    2    1    2    0    0  0.45271291580E+02  0.28282875169E+02  0.11779954774E+04  0.11818153319E+04  0.78515749363E+02 0.  0.
        -13    1    3    3    0    0 -0.49763958760E+01  0.60632464820E-01 -0.95006523432E+01  0.10725231333E+02  0.00000000000E+00 0.  1.
         14    1    3    3    0    0  0.49301797949E+02  0.79612399965E+01 -0.18970602023E+04  0.18977174341E+04  0.00000000000E+00 0. -1.
         11    1    5    5    0    0 -0.52968147252E+01  0.31711337308E+02  0.77188490290E+03  0.77255418482E+03  0.00000000000E+00 0. -1.
        -12    1    5    5    0    0  0.50568106306E+02 -0.34284621394E+01  0.40611057453E+03  0.40926114703E+03  0.00000000000E+00 0.  1.
          5    1    4    4  501    0 -0.14148159190E+02 -0.70552024933E+02 -0.42412715213E+01  0.72202627478E+02  0.41800000000E+01 0. -1.
         -5    1    4    4    0  501 -0.75448534463E+02  0.34247277303E+02  0.28606670387E+02  0.87756317983E+02  0.41800000000E+01 0. -1.
</event>
<event>
11    1  0.8864208E-009  0.1309826E+03  0.7561462E-02  0.1118067E+00
         22   -1    0    0    0    0  0.00000000000E+00  0.00000000000E+00  0.23592253733E+03  0.23592253733E+03  0.00000000000E+00 0.  1.
         22   -1    0    0    0    0 -0.00000000000E+00 -0.00000000000E+00 -0.44273710028E+03  0.44273710028E+03  0.00000000000E+00 0.  1.
         24    2    1    2    0    0 -0.23538335965E+02 -0.30983276848E+02 -0.37023826141E+03  0.38098635253E+03  0.80995147410E+02 0.  0.
         25    2    1    2    0    0  0.42822598295E+02  0.14273777514E+02  0.24708074765E+02  0.13526230943E+03  0.12509151748E+03 0.  0.
        -24    2    1    2    0    0 -0.19284262330E+02  0.16709499334E+02  0.13871562370E+03  0.16241097565E+03  0.80524596311E+02 0.  0.
        -11    1    3    3    0    0 -0.27111773062E+02  0.23089443305E+02 -0.15336659777E+03  0.15744676542E+03  0.00000000000E+00 0.  1.
         12    1    3    3    0    0  0.35734370969E+01 -0.54072720153E+02 -0.21687166364E+03  0.22353958711E+03  0.00000000000E+00 0. -1.
         11    1    5    5    0    0  0.30405718034E+02  0.91023133667E+01  0.73578644234E+02  0.80132244978E+02  0.00000000000E+00 0. -1.
        -12    1    5    5    0    0 -0.49689980364E+02  0.76071859677E+01  0.65136979462E+02  0.82278730668E+02  0.00000000000E+00 0.  1.
          5    1    4    4  501    0  0.81944099236E+02  0.33149920220E+02  0.23699307106E+02  0.91612674710E+02  0.41800000000E+01 0. -1.
         -5    1    4    4    0  501 -0.39121500941E+02 -0.18876142707E+02  0.10087676588E+01  0.43649634724E+02  0.41800000000E+01 0. -1.
</event>
<event>
11    1  0.8864208E-009  0.3355351E+03  0.7561462E-02  0.9861811E-01
         22   -1    0    0    0    0  0.00000000000E+00  0.00000000000E+00  0.38924683809E+03  0.38924683809E+03  0.00000000000E+00 0.  1.
         22   -1    0    0    0    0 -0.00000000000E+00 -0.00000000000E+00 -0.17942824812E+04  0.17942824812E+04  0.00000000000E+00 0.  1.
         24    2    1    2    0    0 -0.24415062596E+03  0.15655529288E+03 -0.11658049630E+04  0.12038976244E+04  0.78416773458E+02 0.  0.
         25    2    1    2    0    0  0.37555540320E+03 -0.14275515654E+03 -0.51408471094E+03  0.66434294920E+03  0.12509024159E+03 0.  0.
        -24    2    1    2    0    0 -0.13140477724E+03 -0.13800136339E+02  0.27485403084E+03  0.31528874569E+03  0.80028717595E+02 0.  0.
        -13    1    3    3    0    0 -0.18034163752E+03  0.71543899941E+02 -0.77044387267E+03  0.79449694573E+03  0.00000000000E+00 0.  1.
         14    1    3    3    0    0 -0.63808988438E+02  0.85011392937E+02 -0.39536109035E+03  0.40940067868E+03  0.00000000000E+00 0. -1.
         13    1    5    5    0    0 -0.19707773024E+02 -0.35455039578E+02  0.78111730445E+02  0.88016467675E+02  0.00000000000E+00 0. -1.
        -14    1    5    5    0    0 -0.11169700422E+03  0.21654903238E+02  0.19674230040E+03  0.22727227801E+03  0.00000000000E+00 0.  1.
          5    1    4    4  501    0  0.53176682083E+02 -0.25345583266E+02 -0.19108571260E+02  0.62070669434E+02  0.41800000000E+01 0.  1.
         -5    1    4    4    0  501  0.32237872112E+03 -0.11740957327E+03 -0.49497613968E+03  0.60227227977E+03  0.41800000000E+01 0.  1.
</event>
<event>
11    1  0.8864208E-009  0.1355650E+03  0.7561462E-02  0.1112614E+00
         22   -1    0    0    0    0  0.00000000000E+00  0.00000000000E+00  0.48953133819E+03  0.48953133819E+03  0.00000000000E+00 0. -1.
         22   -1    0    0    0    0 -0.00000000000E+00 -0.00000000000E+00 -0.38864161087E+03  0.38864161087E+03  0.00000000000E+00 0.  1.
         24    2    1    2    0    0 -0.21054775774E+02  0.45347965284E+02 -0.28329919388E+03  0.29996978303E+03  0.84992328711E+02 0.  0.
         25    2    1    2    0    0  0.31003395055E+02 -0.59362859129E+02 -0.39122635173E+02  0.14718256851E+03  0.12508784250E+03 0.  0.
        -24    2    1    2    0    0 -0.99486192805E+01  0.14014893844E+02  0.42331155638E+03  0.43102059752E+03  0.79313866684E+02 0.  0.
        -13    1    3    3    0    0 -0.48140050822E+02  0.42837558127E+02 -0.24263594307E+03  0.25104725003E+03  0.00000000000E+00 0.  1.
         14    1    3    3    0    0  0.27085275048E+02  0.25104071577E+01 -0.40663250814E+02  0.48922533001E+02  0.00000000000E+00 0. -1.
         11    1    5    5    0    0  0.25805269242E+02 -0.66848663553E+01  0.29545195425E+03  0.29665208010E+03  0.00000000000E+00 0. -1.
        -12    1    5    5    0    0 -0.35753888522E+02  0.20699760199E+02  0.12785960213E+03  0.13436851742E+03  0.00000000000E+00 0.  1.
          5    1    4    4  501    0  0.64119495028E+02  0.82094166884E+01 -0.29586815853E+02  0.71214859667E+02  0.41800000000E+01 0.  1.
         -5    1    4    4    0  501 -0.33116099973E+02 -0.67572275817E+02 -0.95358193199E+01  0.75967708842E+02  0.41800000000E+01 0.  1.
</event>
<event>
11    1  0.8864208E-009  0.1601302E+03  0.7561462E-02  0.1086955E+00
         22   -1    0    0    0    0  0.00000000000E+00  0.00000000000E+00  0.11120971272E+03  0.11120971272E+03  0.00000000000E+00 0.  1.
         22   -1    0    0    0    0 -0.00000000000E+00 -0.00000000000E+00 -0.12935048805E+04  0.12935048805E+04  0.00000000000E+00 0. -1.
        -24    2    1    2    0    0 -0.52142110133E+02  0.87061278343E+02 -0.11266680629E+04  0.11342602061E+04  0.82866309874E+02 0.  0.
         25    2    1    2    0    0  0.43500114406E+02 -0.71541114752E+02 -0.95971436078E+02  0.17850894396E+03  0.12507811750E+03 0.  0.
         24    2    1    2    0    0  0.86419957262E+01 -0.15520163592E+02  0.40344331249E+02  0.91945443126E+02  0.80689155899E+02 0.  0.
        -13    1    5    5    0    0 -0.32331743096E+02 -0.22958540684E+02  0.27889102224E+02  0.48479255613E+02  0.00000000000E+00 0.  1.
         14    1    5    5    0    0  0.40973738822E+02  0.74383770919E+01  0.12455229025E+02  0.43466187513E+02  0.00000000000E+00 0. -1.
         11    1    3    3    0    0 -0.69781997657E+01  0.83386082982E+02 -0.63075313435E+03  0.63627938093E+03  0.00000000000E+00 0. -1.
        -12    1    3    3    0    0 -0.45163910367E+02  0.36751953617E+01 -0.49591492860E+03  0.49798082520E+03  0.00000000000E+00 0.  1.
          5    1    4    4  501    0 -0.25456584508E+02 -0.36956575509E+02  0.11155792377E+02  0.46430057848E+02  0.41800000000E+01 0.  1.
         -5    1    4    4    0  501  0.68956698914E+02 -0.34584539242E+02 -0.10712722845E+03  0.13207888611E+03  0.41800000000E+01 0.  1.
</event>
<event>
11    1  0.8864208E-009  0.1376002E+03  0.7561462E-02  0.1110268E+00
         22   -1    0    0    0    0  0.00000000000E+00  0.00000000000E+00  0.86208475548E+03  0.86208475548E+03  0.00000000000E+00 0. -1.
         22   -1    0    0    0    0 -0.00000000000E+00 -0.00000000000E+00 -0.87589960556E+03  0.87589960556E+03  0.00000000000E+00 0.  1.
         24    2    1    2    0    0  0.38102901003E+02  0.43123004941E+02 -0.83257868791E+03  0.83835516994E+03  0.79628479712E+02 0.  0.
         25    2    1    2    0    0 -0.19535030972E+02 -0.43241570583E+02  0.79351529973E+02  0.15557636993E+03  0.12512350182E+03 0.  0.
        -24    2    1    2    0    0 -0.18567870031E+02  0.11856564159E+00  0.73941230787E+03  0.74405282117E+03  0.80865689945E+02 0.  0.
        -11    1    3    3    0    0 -0.19676998213E+02  0.34426449894E+02 -0.31327635549E+03  0.31577593262E+03  0.00000000000E+00 0.  1.
         12    1    3    3    0    0  0.57779899216E+02  0.86965550473E+01 -0.51930233242E+03  0.52257923733E+03  0.00000000000E+00 0. -1.
         13    1    5    5    0    0  0.65605888303E+01  0.27961638836E+02  0.56130843510E+03  0.56204275094E+03  0.00000000000E+00 0. -1.
        -14    1    5    5    0    0 -0.25128458861E+02 -0.27843073195E+02  0.17810387277E+03  0.18201007023E+03  0.00000000000E+00 0.  1.
          5    1    4    4  501    0 -0.56313744924E+02 -0.52450619240E+02  0.11756234908E+02  0.77961444222E+02  0.41800000000E+01 0.  1.
         -5    1    4    4    0  501  0.36778713952E+02  0.92090486567E+01  0.67595295065E+02  0.77614925704E+02  0.41800000000E+01 0.  1.
</event>
<event>
11    1  0.8864208E-009  0.1286158E+03  0.7561462E-02  0.1120981E+00
         22   -1    0    0    0    0  0.00000000000E+00  0.00000000000E+00  0.30209062689E+03  0.30209062689E+03  0.00000000000E+00 0.  1.
         22   -1    0    0    0    0 -0.00000000000E+00 -0.00000000000E+00 -0.43599621015E+03  0.43599621015E+03  0.00000000000E+00 0.  1.
        -24    2    1    2    0    0 -0.28908122697E+02  0.63627148937E+01 -0.36727351049E+03  0.37741551690E+03  0.81709712929E+02 0.  0.
         25    2    1    2    0    0  0.36819535825E+02  0.77700618744E+01  0.19939031744E+02  0.13214048790E+03  0.12508993356E+03 0.  0.
         24    2    1    2    0    0 -0.79114131279E+01 -0.14132776768E+02  0.21342889548E+03  0.22853083224E+03  0.80075726775E+02 0.  0.
        -13    1    5    5    0    0  0.29741939940E+02 -0.27980893784E+02  0.12301578358E+03  0.12961634318E+03  0.00000000000E+00 0.  1.
         14    1    5    5    0    0 -0.37653353068E+02  0.13848117016E+02  0.90413111901E+02  0.98914489059E+02  0.00000000000E+00 0. -1.
         11    1    3    3    0    0 -0.33253306510E+02  0.23542589600E+01 -0.50043921745E+02  0.60130849260E+02  0.00000000000E+00 0. -1.
        -12    1    3    3    0    0  0.43451838127E+01  0.40084559337E+01 -0.31722958875E+03  0.31728466764E+03  0.00000000000E+00 0.  1.
          5    1    4    4  501    0  0.10510376128E+02  0.33002833171E+02  0.65156416623E+02  0.73908632992E+02  0.41800000000E+01 0. -1.
         -5    1    4    4    0  501  0.26309159697E+02 -0.25232771297E+02 -0.45217384879E+02  0.58231854913E+02  0.41800000000E+01 0. -1.
</event>
<event>
11    1  0.9802129E-009  0.1535123E+03  0.7561462E-02  0.1093343E+00
         22   -1    0    0    0    0  0.00000000000E+00  0.00000000000E+00  0.96932225366E+03  0.96932225366E+03  0.00000000000E+00 0.  1.
         22   -1    0    0    0    0 -0.00000000000E+00 -0.00000000000E+00 -0.79966502752E+03  0.79966502752E+03  0.00000000000E+00 0.  1.
        -24    2    1    2    0    0 -0.46191493611E+01  0.89487168401E+02 -0.69636679915E+03  0.70690138463E+03  0.82180038890E+02 0.  0.
         25    2    1    2    0    0 -0.73327256000E+02 -0.81146887379E+02 -0.21503853441E+02  0.16757654656E+03  0.12513104907E+03 0.  0.
         24    2    1    2    0    0  0.77946405361E+02 -0.83402810222E+01  0.88752787873E+03  0.89450934998E+03  0.79347585204E+02 0.  0.
        -13    1    5    5    0    0  0.61020231910E+02 -0.11388688347E+02  0.85870221619E+03  0.86094289416E+03  0.00000000000E+00 0.  1.
         14    1    5    5    0    0  0.16926173451E+02  0.30484073251E+01  0.28825662544E+02  0.33566455816E+02  0.00000000000E+00 0. -1.
         13    1    3    3    0    0 -0.36467914708E+02  0.44292521166E+02 -0.22083722073E+03  0.22816839022E+03  0.00000000000E+00 0. -1.
        -14    1    3    3    0    0  0.31848765347E+02  0.45194647235E+02 -0.47552957841E+03  0.47873299441E+03  0.00000000000E+00 0.  1.
          5    1    4    4  501    0  0.23018174850E+02 -0.30928658978E+02 -0.41747298793E+02  0.56980063848E+02  0.41800000000E+01 0. -1.
         -5    1    4    4    0  501 -0.96345430850E+02 -0.50218228401E+02  0.20243445352E+02  0.11059648272E+03  0.41800000000E+01 0. -1.
</event>
<event>
11    1  0.8864208E-009  0.1330328E+03  0.7561462E-02  0.1115598E+00
         22   -1    0    0    0    0  0.00000000000E+00  0.00000000000E+00  0.32315810155E+04  0.32315810155E+04  0.00000000000E+00 0.  1.
         22   -1    0    0    0    0 -0.00000000000E+00 -0.00000000000E+00 -0.11739846416E+03  0.11739846416E+03  0.00000000000E+00 0.  1.
        -24    2    1    2    0    0  0.36568634575E+02  0.33768188068E+02 -0.52900993809E+02  0.10914665002E+03  0.81467297144E+02 0.  0.
         25    2    1    2    0    0 -0.12026594344E+02  0.56717819558E+01  0.75992378459E+02  0.14696567911E+03  0.12508901299E+03 0.  0.
         24    2    1    2    0    0 -0.24542040231E+02 -0.39439970024E+02  0.30910911667E+04  0.30928671505E+04  0.93940337480E+02 0.  0.
        -13    1    5    5    0    0  0.14477151430E+02 -0.34164400732E+02  0.25781464867E+04  0.25784134852E+04  0.00000000000E+00 0.  1.
         14    1    5    5    0    0 -0.39019191661E+02 -0.52755692919E+01  0.51294467999E+03  0.51445366524E+03  0.00000000000E+00 0. -1.
         13    1    3    3    0    0 -0.37255213019E+01  0.22737710998E+02  0.16362353090E+02  0.28259681686E+02  0.00000000000E+00 0. -1.
        -14    1    3    3    0    0  0.40294155877E+02  0.11030477071E+02 -0.69263346898E+02  0.80886968331E+02  0.00000000000E+00 0.  1.
          5    1    4    4  501    0  0.19560966323E+02  0.49811690566E+02  0.23652336358E+00  0.53678340733E+02  0.41800000000E+01 0. -1.
         -5    1    4    4    0  501 -0.31587560667E+02 -0.44139908610E+02  0.75755855095E+02  0.93287338381E+02  0.41800000000E+01 0. -1.
</event>
<event>
11    1  0.8864208E-009  0.1824803E+03  0.7561462E-02  0.1067654E+00
         22   -1    0    0    0    0  0.00000000000E+00  0.00000000000E+00  0.61709466266E+03  0.61709466266E+03  0.00000000000E+00 0.  1.
         22   -1    0    0    0    0 -0.00000000000E+00 -0.00000000000E+00 -0.79874642352E+03  0.79874642352E+03  0.00000000000E+00 0. -1.
        -24    2    1    2    0    0 -0.95134339215E+02 -0.85483211238E+02 -0.54942223373E+03  0.56991214607E+03  0.81099577184E+02 0.  0.
         25    2    1    2    0    0  0.71417184802E+02  0.14831439757E+03 -0.18856611841E+03  0.27982503319E+03  0.12508914172E+03 0.  0.
         24    2    1    2    0    0  0.23717154413E+02 -0.62831186328E+02  0.55633659127E+03  0.56610390694E+03  0.80330375778E+02 0.  0.
        -11    1    5    5    0    0  0.52007718091E+02 -0.25741998540E+02  0.30184001553E+03  0.30736761086E+03  0.00000000000E+00 0.  1.
         12    1    5    5    0    0 -0.28290563678E+02 -0.37089187788E+02  0.25449657574E+03  0.25873629608E+03  0.00000000000E+00 0. -1.
         11    1    3    3    0    0 -0.53512547740E+02 -0.94262886753E+02 -0.37267578986E+03  0.38811896235E+03  0.00000000000E+00 0. -1.
        -12    1    3    3    0    0 -0.41621791475E+02  0.87796755151E+01 -0.17674644387E+03  0.18179318372E+03  0.00000000000E+00 0.  1.
          5    1    4    4  501    0  0.44980489992E+02  0.50429969675E+02 -0.16102013201E+03  0.17467507445E+03  0.41800000000E+01 0. -1.
         -5    1    4    4    0  501  0.26436694810E+02  0.97884427891E+02 -0.27545986399E+02  0.10514995874E+03  0.41800000000E+01 0. -1.
</event>
<event>
11    1  0.8864208E-009  0.1597625E+03  0.7561462E-02  0.1087301E+00
         22   -1    0    0    0    0  0.00000000000E+00  0.00000000000E+00  0.48053586209E+03  0.48053586209E+03  0.00000000000E+00 0. -1.
         22   -1    0    0    0    0 -0.00000000000E+00 -0.00000000000E+00 -0.69296730980E+03  0.69296730980E+03  0.00000000000E+00 0.  1.
        -24    2    1    2    0    0  0.92888665127E+02 -0.43065319960E+02 -0.52467164064E+03  0.54061586804E+03  0.80636594651E+02 0.  0.
         25    2    1    2    0    0 -0.79019187604E+02  0.32958748598E+02 -0.11979465710E+03  0.19320437966E+03  0.12508741475E+03 0.  0.
         24    2    1    2    0    0 -0.13869477524E+02  0.10106571362E+02  0.43203485004E+03  0.43968292419E+03  0.79827670527E+02 0.  0.
        -13    1    5    5    0    0 -0.15571882371E+02  0.19842399417E+02  0.38516473309E+02  0.46040450165E+02  0.00000000000E+00 0.  1.
         14    1    5    5    0    0  0.17024048469E+01 -0.97358280554E+01  0.39351837673E+03  0.39364247402E+03  0.00000000000E+00 0. -1.
         13    1    3    3    0    0  0.10746680380E+02  0.22686740909E+02 -0.10325298721E+03  0.10626080520E+03  0.00000000000E+00 0. -1.
        -14    1    3    3    0    0  0.82141984748E+02 -0.65752060868E+02 -0.42141865343E+03  0.43435506285E+03  0.00000000000E+00 0.  1.
          5    1    4    4  501    0  0.22344454169E+02 -0.20758547324E+02 -0.50423027675E+02  0.59077457960E+02  0.41800000000E+01 0.  1.
         -5    1    4    4    0  501 -0.10136364177E+03  0.53717295922E+02 -0.69371629428E+02  0.13412692170E+03  0.41800000000E+01 0.  1.
</event>
<event>
11    1  0.8864208E-009  0.1723634E+03  0.7561462E-02  0.1075993E+00
         22   -1    0    0    0    0  0.00000000000E+00  0.00000000000E+00  0.16651871560E+03  0.16651871560E+03  0.00000000000E+00 0.  1.
         22   -1    0    0    0    0 -0.00000000000E+00 -0.00000000000E+00 -0.55595979923E+03  0.55595979923E+03  0.00000000000E+00 0. -1.
         24    2    1    2    0    0  0.23589817417E+02  0.12132355837E+03 -0.22945757284E+03  0.27429590001E+03  0.85507764115E+02 0.  0.
         25    2    1    2    0    0 -0.55416131668E+02 -0.10178831260E+03 -0.26231000782E+03  0.31286698769E+03  0.12508958212E+03 0.  0.
        -24    2    1    2    0    0  0.31826314251E+02 -0.19535245770E+02  0.10232649702E+03  0.13531562713E+03  0.80281173669E+02 0.  0.
        -11    1    3    3    0    0 -0.14295804498E+02  0.14556409613E+02 -0.23979837332E+01  0.20542867693E+02  0.00000000000E+00 0.  1.
         12    1    3    3    0    0  0.37885621915E+02  0.10676714876E+03 -0.22705958911E+03  0.25375303231E+03  0.00000000000E+00 0. -1.
         13    1    5    5    0    0  0.83608316103E+01 -0.29128503757E+02  0.42450237514E+00  0.30307646537E+02  0.00000000000E+00 0. -1.
        -14    1    5    5    0    0  0.23465482640E+02  0.95932579865E+01  0.10190199465E+03  0.10500798059E+03  0.00000000000E+00 0.  1.
          5    1    4    4  501    0 -0.70258352501E+02 -0.92325172498E+02 -0.11146617753E+03  0.16094208495E+03  0.41800000000E+01 0. -1.
         -5    1    4    4    0  501  0.14842220833E+02 -0.94631401056E+01 -0.15084383029E+03  0.15192490275E+03  0.41800000000E+01 0. -1.
</event>
<event>
11    1  0.8864208E-009  0.1334860E+03  0.7561462E-02  0.1115059E+00
         22   -1    0    0    0    0  0.00000000000E+00  0.00000000000E+00  0.35075046146E+03  0.35075046146E+03  0.00000000000E+00 0.  1.
         22   -1    0    0    0    0 -0.00000000000E+00 -0.00000000000E+00 -0.11650037010E+04  0.11650037010E+04  0.00000000000E+00 0.  1.
        -24    2    1    2    0    0  0.45122424952E+02 -0.12713621940E+02 -0.82705018667E+03  0.83226289111E+03  0.80323341747E+02 0.  0.
         25    2    1    2    0    0 -0.31300282273E+02  0.46811671976E+02 -0.31510146084E+03  0.34366737122E+03  0.12508913267E+03 0.  0.
         24    2    1    2    0    0 -0.13822142679E+02 -0.34098050036E+02  0.32789840796E+03  0.33982390014E+03  0.81296915819E+02 0.  0.
        -13    1    5    5    0    0 -0.31681072086E+02 -0.20961644808E+01  0.26601421447E+03  0.26790230782E+03  0.00000000000E+00 0.  1.
         14    1    5    5    0    0  0.17858929407E+02 -0.32001885555E+02  0.61884193482E+02  0.71921592318E+02  0.00000000000E+00 0. -1.
         13    1    3    3    0    0  0.12664593061E+02  0.16209710107E+02 -0.50948421303E+02  0.54944410566E+02  0.00000000000E+00 0. -1.
        -14    1    3    3    0    0  0.32457831891E+02 -0.28923332047E+02 -0.77610176536E+03  0.77731848054E+03  0.00000000000E+00 0.  1.
          5    1    4    4  501    0 -0.32095392938E+02 -0.38287985916E+02 -0.14491910223E+03  0.15334634884E+03  0.41800000000E+01 0.  1.
         -5    1    4    4    0  501  0.79511066418E+00  0.85099657892E+02 -0.17018235861E+03  0.19032102237E+03  0.41800000000E+01 0.  1.
</event>
<event>
11    1  0.8864208E-009  0.1300606E+03  0.7561462E-02  0.1119194E+00
         22   -1    0    0    0    0  0.00000000000E+00  0.00000000000E+00  0.16242205160E+03  0.16242205160E+03  0.00000000000E+00 0.  1.
         22   -1    0    0    0    0 -0.00000000000E+00 -0.00000000000E+00 -0.19667175724E+04  0.19667175724E+04  0.00000000000E+00 0.  1.
         24    2    1    2    0    0  0.38651307403E+02  0.11558146015E+02 -0.18578966398E+04  0.18599861082E+04  0.78363792928E+02 0.  0.
         25    2    1    2    0    0 -0.38347384616E+01  0.11655968925E+02 -0.46489293100E+02  0.13400902542E+03  0.12508636093E+03 0.  0.
        -24    2    1    2    0    0 -0.34816568941E+02 -0.23214114940E+02  0.10009041211E+03  0.13514449042E+03  0.80590657572E+02 0.  0.
        -13    1    3    3    0    0  0.57158180802E+01  0.36536414408E+02 -0.13142766633E+04  0.13147968390E+04  0.00000000000E+00 0.  1.
         14    1    3    3    0    0  0.32935489323E+02 -0.24978268393E+02 -0.54361997655E+03  0.54518926920E+03  0.00000000000E+00 0. -1.
         13    1    5    5    0    0 -0.45293973721E+01 -0.33214242330E+02  0.38327103986E+01  0.33740050431E+02  0.00000000000E+00 0. -1.
        -14    1    5    5    0    0 -0.30287171569E+02  0.10000127390E+02  0.96257701716E+02  0.10140443999E+03  0.00000000000E+00 0.  1.
          5    1    4    4  501    0  0.59460231936E+02 -0.94052892397E+00 -0.32287978471E+02  0.67796679346E+02  0.41800000000E+01 0. -1.
         -5    1    4    4    0  501 -0.63294970398E+02  0.12596497849E+02 -0.14201314629E+02  0.66212346076E+02  0.41800000000E+01 0. -1.
</event>
<event>
11    1  0.8864208E-009  0.1657448E+03  0.7561462E-02  0.1081795E+00
         22   -1    0    0    0    0  0.00000000000E+00  0.00000000000E+00  0.17608387444E+03  0.17608387444E+03  0.00000000000E+00 0.  1.
         22   -1    0    0    0    0 -0.00000000000E+00 -0.00000000000E+00 -0.15839741902E+04  0.15839741902E+04  0.00000000000E+00 0.  1.
        -24    2    1    2    0    0 -0.89709590325E+02  0.63891797630E+02 -0.15001274345E+04  0.15062972287E+04  0.80118968712E+02 0.  0.
         25    2    1    2    0    0  0.62064346945E+02 -0.29340880614E+02  0.34891675146E+02  0.14689220004E+03  0.12508804500E+03 0.  0.
         24    2    1    2    0    0  0.27645243380E+02 -0.34550917017E+02  0.57345443603E+02  0.10686863587E+03  0.78577223683E+02 0.  0.
        -13    1    5    5    0    0 -0.13076825102E+02 -0.13602885937E+02  0.58080350816E+02  0.61068559926E+02  0.00000000000E+00 0.  1.
         14    1    5    5    0    0  0.40722068482E+02 -0.20948031079E+02 -0.73490721309E+00  0.45800075941E+02  0.00000000000E+00 0. -1.
         13    1    3    3    0    0 -0.43288362564E+02  0.47547678079E+02 -0.40572643955E+03  0.41079022356E+03  0.00000000000E+00 0. -1.
        -14    1    3    3    0    0 -0.46421227761E+02  0.16344119552E+02 -0.10944009949E+04  0.10955070051E+04  0.00000000000E+00 0.  1.
          5    1    4    4  501    0  0.73965961444E+02 -0.24347813899E+02 -0.27769509093E+02  0.82779209523E+02  0.41800000000E+01 0. -1.
         -5    1    4    4    0  501 -0.11901614498E+02 -0.49930667147E+01  0.62661184239E+02  0.64112990518E+02  0.41800000000E+01 0. -1.
</event>
<event>
11    1  0.8864208E-009  0.1298904E+03  0.7561462E-02  0.1119404E+00
         22   -1    0    0    0    0  0.00000000000E+00  0.00000000000E+00  0.67818227666E+03  0.67818227666E+03  0.00000000000E+00 0. -1.
         22   -1    0    0    0    0 -0.00000000000E+00 -0.00000000000E+00 -0.62374077786E+03  0.62374077786E+03  0.00000000000E+00 0. -1.
        -24    2    1    2    0    0 -0.35030965942E+02  0.15057181426E+01 -0.54692844568E+03  0.55395149849E+03  0.80635613828E+02 0.  0.
         25    2    1    2    0    0  0.32951598496E+02  0.84208028018E+01 -0.11208698003E+02  0.13013032669E+03  0.12510615193E+03 0.  0.
         24    2    1    2    0    0  0.20793674453E+01 -0.99265209444E+01  0.61257864248E+03  0.61784122934E+03  0.79826886823E+02 0.  0.
        -11    1    5    5    0    0  0.22740769330E+02 -0.21061037253E+02  0.99271821541E+02  0.10399809821E+03  0.00000000000E+00 0.  1.
         12    1    5    5    0    0 -0.20661401885E+02  0.11134516309E+02  0.51330682094E+03  0.51384313112E+03  0.00000000000E+00 0. -1.
         11    1    3    3    0    0  0.98162114440E+01 -0.23012848590E+02 -0.33554586662E+03  0.33647730653E+03  0.00000000000E+00 0. -1.
        -12    1    3    3    0    0 -0.44847177385E+02  0.24518566733E+02 -0.21138257907E+03  0.21747419196E+03  0.00000000000E+00 0.  1.
          5    1    4    4  501    0 -0.64626641273E+01 -0.40812760384E+02 -0.42654915643E+02  0.59534541792E+02  0.41800000000E+01 0.  1.
         -5    1    4    4    0  501  0.39414262623E+02  0.49233563186E+02  0.31446217640E+02  0.70595784903E+02  0.41800000000E+01 0.  1.
</event>
<event>
11    1  0.8864208E-009  0.1449600E+03  0.7561462E-02  0.1102143E+00
         22   -1    0    0    0    0  0.00000000000E+00  0.00000000000E+00  0.30439922588E+03  0.30439922588E+03  0.00000000000E+00 0. -1.
         22   -1    0    0    0    0 -0.00000000000E+00 -0.00000000000E+00 -0.10802998193E+04  0.10802998193E+04  0.00000000000E+00 0.  1.
        -24    2    1    2    0    0  0.86218619197E+02  0.57704230727E+01 -0.86275010099E+03  0.87091280352E+03  0.81758342093E+02 0.  0.
         25    2    1    2    0    0 -0.69753418401E+01  0.33160095187E+02 -0.18026279495E+03  0.22201151244E+03  0.12508472770E+03 0.  0.
         24    2    1    2    0    0 -0.79243277357E+02 -0.38930518260E+02  0.26711230256E+03  0.29177472918E+03  0.77384934918E+02 0.  0.
        -11    1    5    5    0    0 -0.84679944629E+01 -0.11538275990E+02  0.23229245285E+00  0.14314073593E+02  0.00000000000E+00 0.  1.
         12    1    5    5    0    0 -0.70775282894E+02 -0.27392242270E+02  0.26688001010E+03  0.27746065559E+03  0.00000000000E+00 0. -1.
         11    1    3    3    0    0  0.18980608514E+02 -0.35136901714E+02 -0.26101517016E+03  0.26405261675E+03  0.00000000000E+00 0. -1.
        -12    1    3    3    0    0  0.67238010683E+02  0.40907324786E+02 -0.60173493083E+03  0.60686018677E+03  0.00000000000E+00 0.  1.
          5    1    4    4  501    0 -0.65666352276E+02  0.15644013623E+02 -0.10482692195E+03  0.12475159698E+03  0.41800000000E+01 0. -1.
         -5    1    4    4    0  501  0.58691010436E+02  0.17516081564E+02 -0.75435872996E+02  0.97259915454E+02  0.41800000000E+01 0. -1.
</event>
<event>
11    1  0.8864208E-009  0.1377158E+03  0.7561462E-02  0.1110136E+00
         22   -1    0    0    0    0  0.00000000000E+00  0.00000000000E+00  0.16373937542E+03  0.16373937542E+03  0.00000000000E+00 0.  1.
         22   -1    0    0    0    0 -0.00000000000E+00 -0.00000000000E+00 -0.66391613678E+03  0.66391613678E+03  0.00000000000E+00 0. -1.
         24    2    1    2    0    0 -0.53121889968E+02 -0.86147126382E+01 -0.43001940245E+03  0.44067737072E+03  0.79898123317E+02 0.  0.
         25    2    1    2    0    0  0.79203823998E+02 -0.23184698419E+02 -0.18702922500E+03  0.23966197593E+03  0.12508859151E+03 0.  0.
        -24    2    1    2    0    0 -0.26081934030E+02  0.31799411057E+02  0.11687186608E+03  0.14731616555E+03  0.79696610498E+02 0.  0.
        -13    1    3    3    0    0 -0.84533812455E+01  0.18760869790E+02 -0.25441645337E+02  0.32721662660E+02  0.00000000000E+00 0.  1.
         14    1    3    3    0    0 -0.44668508722E+02 -0.27375582428E+02 -0.40457775711E+03  0.40795570806E+03  0.00000000000E+00 0. -1.
         11    1    5    5    0    0 -0.38138860120E+02  0.20380474663E+02  0.17636549342E+02  0.46701009319E+02  0.00000000000E+00 0. -1.
        -12    1    5    5    0    0  0.12056926090E+02  0.11418936395E+02  0.99235316742E+02  0.10061515623E+03  0.00000000000E+00 0.  1.
          5    1    4    4  501    0  0.55950421184E+02 -0.39406949241E+02 -0.21769578671E+02  0.71935695136E+02  0.41800000000E+01 0.  1.
         -5    1    4    4    0  501  0.23253402814E+02  0.16222250822E+02 -0.16525964633E+03  0.16772628079E+03  0.41800000000E+01 0.  1.
</event>
<event>
11    1  0.8864208E-009  0.1303194E+03  0.7561462E-02  0.1118877E+00
         22   -1    0    0    0    0  0.00000000000E+00  0.00000000000E+00  0.15223165495E+04  0.15223165495E+04  0.00000000000E+00 0. -1.
         22   -1    0    0    0    0 -0.00000000000E+00 -0.00000000000E+00 -0.30491583940E+04  0.30491583940E+04  0.00000000000E+00 0.  1.
        -24    2    1    2    0    0  0.98483984714E+01  0.76877911210E+00 -0.30109291787E+04  0.30120176079E+04  0.80361489089E+02 0.  0.
         25    2    1    2    0    0  0.27068829035E+02 -0.10862647496E+01  0.76491023191E+02  0.14910204137E+03  0.12508653259E+03 0.  0.
         24    2    1    2    0    0 -0.36917227506E+02  0.31748563749E+00  0.14075963111E+04  0.14103552942E+04  0.80073082069E+02 0.  0.
        -11    1    5    5    0    0 -0.40527015755E+02  0.33631365482E+02  0.70740628532E+03  0.70936391243E+03  0.00000000000E+00 0.  1.
         12    1    5    5    0    0  0.36097882490E+01 -0.33313879844E+02  0.70019002575E+03  0.70099138177E+03  0.00000000000E+00 0. -1.
         11    1    3    3    0    0 -0.21022371830E+02 -0.20280293617E+02 -0.22335684505E+04  0.22337594440E+04  0.00000000000E+00 0. -1.
        -12    1    3    3    0    0  0.30870770301E+02  0.21049072730E+02 -0.77736072822E+03  0.77825816392E+03  0.00000000000E+00 0.  1.
          5    1    4    4  501    0 -0.33348015522E+02 -0.16731681700E+02 -0.13163466010E+02  0.39784275149E+02  0.41800000000E+01 0.  1.
         -5    1    4    4    0  501  0.60416844556E+02  0.15645416951E+02  0.89654489201E+02  0.10931776622E+03  0.41800000000E+01 0.  1.
</event>
<event>
11    1  0.8864208E-009  0.1283777E+03  0.7561462E-02  0.1121278E+00
         22   -1    0    0    0    0  0.00000000000E+00  0.00000000000E+00  0.14829610371E+04  0.14829610371E+04  0.00000000000E+00 0. -1.
         22   -1    0    0    0    0 -0.00000000000E+00 -0.00000000000E+00 -0.12396007079E+04  0.12396007079E+04  0.00000000000E+00 0.  1.
        -24    2    1    2    0    0  0.27812433864E+02  0.74666278893E+01 -0.12243041984E+04  0.12276895422E+04  0.86438184926E+02 0.  0.
         25    2    1    2    0    0 -0.33362628211E+02 -0.45707685580E+02  0.38676498552E+03  0.41041104409E+03  0.12509122114E+03 0.  0.
         24    2    1    2    0    0  0.55501943473E+01  0.38241057691E+02  0.10808995421E+04  0.10844611587E+04  0.78860646342E+02 0.  0.
        -13    1    5    5    0    0 -0.57911892588E+01 -0.80851318353E+01  0.18603325511E+02  0.21094808600E+02  0.00000000000E+00 0.  1.
         14    1    5    5    0    0  0.11341383606E+02  0.46326189526E+02  0.10622962166E+04  0.10633663501E+04  0.00000000000E+00 0. -1.
         11    1    3    3    0    0  0.19788021716E+02 -0.26574166503E+01 -0.58490259554E+02  0.61804030042E+02  0.00000000000E+00 0. -1.
        -12    1    3    3    0    0  0.80244121484E+01  0.10124044540E+02 -0.11658139388E+04  0.11658855122E+04  0.00000000000E+00 0.  1.
          5    1    4    4  501    0 -0.26661875203E+02 -0.87099671095E+02  0.30623503258E+03  0.31952241842E+03  0.41800000000E+01 0. -1.
         -5    1    4    4    0  501 -0.67007530084E+01  0.41391985514E+02  0.80529952936E+02  0.90888625667E+02  0.41800000000E+01 0. -1.
</event>
<event>
11    1  0.8864208E-009  0.1464953E+03  0.7561462E-02  0.1100515E+00
         22   -1    0    0    0    0  0.00000000000E+00  0.00000000000E+00  0.60078785007E+03  0.60078785007E+03  0.00000000000E+00 0. -1.
         22   -1    0    0    0    0 -0.00000000000E+00 -0.00000000000E+00 -0.43891634426E+03  0.43891634426E+03  0.00000000000E+00 0. -1.
        -24    2    1    2    0    0 -0.23923289684E+02  0.30298436352E+02 -0.35332203425E+03  0.36452103554E+03  0.80924696061E+02 0.  0.
         25    2    1    2    0    0 -0.57732902001E+01 -0.98982975361E+02  0.12118477473E+02  0.16007712620E+03  0.12508744360E+03 0.  0.
         24    2    1    2    0    0  0.29696579884E+02  0.68684539009E+02  0.50307506258E+03  0.51510603259E+03  0.81549086220E+02 0.  0.
        -13    1    5    5    0    0 -0.20467370234E+02  0.34266109401E+01  0.19928584050E+03  0.20036342263E+03  0.00000000000E+00 0.  1.
         14    1    5    5    0    0  0.50163950118E+02  0.65257928068E+02  0.30378922208E+03  0.31474260995E+03  0.00000000000E+00 0. -1.
         13    1    3    3    0    0 -0.30931194169E+02  0.53137758431E+02 -0.29774098885E+03  0.30402311850E+03  0.00000000000E+00 0. -1.
        -14    1    3    3    0    0  0.70079044851E+01 -0.22839322079E+02 -0.55581045395E+02  0.60497917035E+02  0.00000000000E+00 0.  1.
          5    1    4    4  501    0  0.52957550534E+02 -0.15676661135E+02  0.17028464325E+02  0.57945671626E+02  0.41800000000E+01 0. -1.
         -5    1    4    4    0  501 -0.58730840734E+02 -0.83306314226E+02 -0.49099868529E+01  0.10213145458E+03  0.41800000000E+01 0. -1.
</event>
<event>
11    1  0.8864208E-009  0.1531038E+03  0.7561462E-02  0.1093749E+00
         22   -1    0    0    0    0  0.00000000000E+00  0.00000000000E+00  0.28515603818E+03  0.28515603818E+03  0.00000000000E+00 0. -1.
         22   -1    0    0    0    0 -0.00000000000E+00 -0.00000000000E+00 -0.24088342454E+03  0.24088342454E+03  0.00000000000E+00 0.  1.
        -24    2    1    2    0    0 -0.30608324487E+02 -0.20216734621E+02 -0.11210852184E+03  0.15961831708E+03  0.10753650818E+03 0.  0.
         25    2    1    2    0    0 -0.29058058231E+02 -0.52943068108E+02 -0.30864560079E+02  0.14229404500E+03  0.12509050709E+03 0.  0.
         24    2    1    2    0    0  0.59666382718E+02  0.73159802729E+02  0.18724569556E+03  0.22412710065E+03  0.79117461895E+02 0.  0.
        -13    1    5    5    0    0  0.27804308088E+01 -0.68095053153E+01  0.73624119185E+02  0.73990614836E+02  0.00000000000E+00 0.  1.
         14    1    5    5    0    0  0.56885951909E+02  0.79969308044E+02  0.11362157638E+03  0.15013648581E+03  0.00000000000E+00 0. -1.
         13    1    3    3    0    0 -0.30029465114E+02 -0.19448323619E+02  0.10280964785E+02  0.37225049409E+02  0.00000000000E+00 0. -1.
        -14    1    3    3    0    0 -0.57885937234E+00 -0.76841100185E+00 -0.12238948663E+03  0.12239326767E+03  0.00000000000E+00 0.  1.
          5    1    4    4  501    0 -0.26914339181E+02 -0.73408176571E+01 -0.74094385467E+02  0.79282530328E+02  0.41800000000E+01 0. -1.
         -5    1    4    4    0  501 -0.21437190498E+01 -0.45602250451E+02  0.43229825388E+02  0.63011514667E+02  0.41800000000E+01 0. -1.
</event>
<event>
11    1  0.8864208E-009  0.1676971E+03  0.7561462E-02  0.1080053E+00
         22   -1    0    0    0    0  0.00000000000E+00  0.00000000000E+00  0.16268027556E+03  0.16268027556E+03  0.00000000000E+00 0.  1.
         22   -1    0    0    0    0 -0.00000000000E+00 -0.00000000000E+00 -0.23159746000E+04  0.23159746000E+04  0.00000000000E+00 0. -1.
         24    2    1    2    0    0 -0.11723244649E+02  0.16623380693E+02 -0.20381435944E+04  0.20397532102E+04  0.78422419554E+02 0.  0.
         25    2    1    2    0    0 -0.39121543038E+02  0.85747415509E+02 -0.21544193751E+03  0.26636054761E+03  0.12509835527E+03 0.  0.
        -24    2    1    2    0    0  0.50844787687E+02 -0.10237079620E+03  0.10029120753E+03  0.17254111769E+03  0.81529986115E+02 0.  0.
        -13    1    3    3    0    0  0.22607372608E+02  0.31852569469E+02 -0.70545205902E+03  0.70653258032E+03  0.00000000000E+00 0.  1.
         14    1    3    3    0    0 -0.34330617258E+02 -0.15229188776E+02 -0.13326915354E+04  0.13332206299E+04  0.00000000000E+00 0. -1.
         11    1    5    5    0    0  0.36850546446E+02 -0.26543920753E+02  0.81307232492E+02  0.93131136350E+02  0.00000000000E+00 0. -1.
        -12    1    5    5    0    0  0.13994241241E+02 -0.75826875449E+02  0.18983975039E+02  0.79409981341E+02  0.00000000000E+00 0.  1.
          5    1    4    4  501    0  0.42783988480E+02  0.82592305292E+01 -0.58050874676E+02  0.72705302488E+02  0.41800000000E+01 0.  1.
         -5    1    4    4    0  501 -0.81905531518E+02  0.77488184979E+02 -0.15739106283E+03  0.19365524512E+03  0.41800000000E+01 0.  1.
</event>
<event>
11    1  0.8864208E-009  0.1598370E+03  0.7561462E-02  0.1087231E+00
         22   -1    0    0    0    0  0.00000000000E+00  0.00000000000E+00  0.11555866480E+04  0.11555866480E+04  0.00000000000E+00 0. -1.
         22   -1    0    0    0    0 -0.00000000000E+00 -0.00000000000E+00 -0.96909785406E+03  0.96909785406E+03  0.00000000000E+00 0. -1.
         24    2    1    2    0    0  0.98575372607E+02  0.13118285666E+02 -0.91292180295E+03  0.92181753225E+03  0.80200691750E+02 0.  0.
         25    2    1    2    0    0 -0.96392057972E+02 -0.40901676579E+02  0.83215438491E+02  0.18313216372E+03  0.12509278236E+03 0.  0.
        -24    2    1    2    0    0 -0.21833146357E+01  0.27783390913E+02  0.10161951584E+04  0.10197348061E+04  0.80185978451E+02 0.  0.
        -11    1    3    3    0    0  0.14449987726E+02 -0.31338519350E+01 -0.20412745306E+02  0.25205224541E+02  0.00000000000E+00 0.  1.
         12    1    3    3    0    0  0.84125384882E+02  0.16252137601E+02 -0.89250905764E+03  0.89661230770E+03  0.00000000000E+00 0. -1.
         11    1    5    5    0    0  0.15161411616E+02 -0.33410225981E+01  0.83089516190E+03  0.83104019211E+03  0.00000000000E+00 0. -1.
        -12    1    5    5    0    0 -0.17344726252E+02  0.31124413511E+02  0.18529999648E+03  0.18869461397E+03  0.00000000000E+00 0.  1.
          5    1    4    4  501    0 -0.72850380794E+02 -0.85505772581E+02  0.54166967510E+02  0.12477959727E+03  0.41800000000E+01 0. -1.
         -5    1    4    4    0  501 -0.23541677178E+02  0.44604096002E+02  0.29048470981E+02  0.58352566446E+02  0.41800000000E+01 0. -1.
</event>
<event>
11    1  0.8864208E-009  0.1824399E+03  0.7561462E-02  0.1067686E+00
         22   -1    0    0    0    0  0.00000000000E+00  0.00000000000E+00  0.14661959321E+04  0.14661959321E+04  0.00000000000E+00 0.  1.
         22   -1    0    0    0    0 -0.00000000000E+00 -0.00000000000E+00 -0.30475482041E+04  0.30475482041E+04  0.00000000000E+00 0.  1.
        -24    2    1    2    0    0 -0.43818405214E+02  0.11344780615E+02 -0.30111711508E+04  0.30125742123E+04  0.80018302538E+02 0.  0.
         25    2    1    2    0    0  0.11987635396E+03 -0.11381625448E+03  0.32193520840E+03  0.38290210629E+03  0.12508902656E+03 0.  0.
         24    2    1    2    0    0 -0.76057948750E+02  0.10247147387E+03  0.11078836704E+04  0.11182678176E+04  0.82652708488E+02 0.  0.
        -13    1    5    5    0    0 -0.45418069623E+02  0.89457702591E+02  0.52911726661E+03  0.53854485740E+03  0.00000000000E+00 0.  1.
         14    1    5    5    0    0 -0.30639879127E+02  0.13013771277E+02  0.57876640378E+03  0.57972296020E+03  0.00000000000E+00 0. -1.
         13    1    3    3    0    0  0.60279508069E+01 -0.71246202544E+01 -0.46538727692E+02  0.47465246022E+02  0.00000000000E+00 0. -1.
        -14    1    3    3    0    0 -0.49846356021E+02  0.18469400869E+02 -0.29646324231E+04  0.29651089663E+04  0.00000000000E+00 0.  1.
          5    1    4    4  501    0  0.12606957512E+03 -0.39251834173E+02  0.19620629875E+03  0.23653462394E+03  0.41800000000E+01 0. -1.
         -5    1    4    4    0  501 -0.61932211541E+01 -0.74564420310E+02  0.12572890966E+03  0.14636748235E+03  0.41800000000E+01 0. -1.
</event>
<event>
11    1  0.8864208E-009  0.2429705E+03  0.7561462E-02  0.1027712E+00
         22   -1    0    0    0    0  0.00000000000E+00  0.00000000000E+00  0.59142462747E+03  0.59142462747E+03  0.00000000000E+00 0. -1.
         22   -1    0    0    0    0 -0.00000000000E+00 -0.00000000000E+00 -0.42851220766E+03  0.42851220766E+03  0.00000000000E+00 0. -1.
        -24    2    1    2    0    0  0.13743219913E+03 -0.41293719191E+02 -0.30059521733E+03  0.34297046527E+03  0.81721935638E+02 0.  0.
         25    2    1    2    0    0 -0.28509031351E+03  0.73850190330E+02  0.33459870993E+03  0.46296276144E+03  0.12509150380E+03 0.  0.
         24    2    1    2    0    0  0.14765811439E+03 -0.32556471139E+02  0.12890892720E+03  0.21400360842E+03  0.79480754571E+02 0.  0.
        -13    1    5    5    0    0  0.88767418069E+00 -0.16455056511E+02 -0.20974083821E+01  0.16611922591E+02  0.00000000000E+00 0.  1.
         14    1    5    5    0    0  0.14677044021E+03 -0.16101414628E+02  0.13100633558E+03  0.19739168583E+03  0.00000000000E+00 0. -1.
         13    1    3    3    0    0  0.13586613094E+03 -0.46471330929E+02 -0.30425622173E+03  0.33643875906E+03  0.00000000000E+00 0. -1.
        -14    1    3    3    0    0  0.15660681854E+01  0.51776117379E+01  0.36610043974E+01  0.65317062141E+01  0.00000000000E+00 0.  1.
          5    1    4    4  501    0 -0.21172685581E+03  0.61573756096E+02  0.15800779825E+03  0.27129969704E+03  0.41800000000E+01 0.  1.
         -5    1    4    4    0  501 -0.73363457708E+02  0.12276434234E+02  0.17659091169E+03  0.19166306440E+03  0.41800000000E+01 0.  1.
</event>
<event>
11    1  0.8864208E-009  0.1629210E+03  0.7561462E-02  0.1084362E+00
         22   -1    0    0    0    0  0.00000000000E+00  0.00000000000E+00  0.13378014303E+03  0.13378014303E+03  0.00000000000E+00 0. -1.
         22   -1    0    0    0    0 -0.00000000000E+00 -0.00000000000E+00 -0.17395312129E+04  0.17395312129E+04  0.00000000000E+00 0.  1.
        -24    2    1    2    0    0 -0.29935903131E+01 -0.10617257894E+03 -0.12568716463E+04  0.12639489425E+04  0.80987750846E+02 0.  0.
         25    2    1    2    0    0 -0.77316370608E+02  0.92555181010E+02 -0.43252689361E+03  0.46612378164E+03  0.12509030106E+03 0.  0.
         24    2    1    2    0    0  0.80309960921E+02  0.13617397933E+02  0.83647470054E+02  0.14323863182E+03  0.82977605708E+02 0.  0.
        -11    1    5    5    0    0  0.11726967277E+02 -0.16333431220E+01 -0.16864329904E+02  0.20605707811E+02  0.00000000000E+00 0.  1.
         12    1    5    5    0    0  0.68582993644E+02  0.15250741055E+02  0.10051179996E+03  0.12263292401E+03  0.00000000000E+00 0. -1.
         13    1    3    3    0    0 -0.14939690625E+02 -0.19312713483E+02 -0.75979678463E+02  0.79806558611E+02  0.00000000000E+00 0. -1.
        -14    1    3    3    0    0  0.11946100311E+02 -0.86859865459E+02 -0.11808919678E+04  0.11841423838E+04  0.00000000000E+00 0.  1.
          5    1    4    4  501    0  0.13940510184E+01 -0.22644026823E+02 -0.19694208569E+02  0.30331989386E+02  0.41800000000E+01 0.  1.
         -5    1    4    4    0  501 -0.78710421626E+02  0.11519920783E+03 -0.41283268504E+03  0.43579179225E+03  0.41800000000E+01 0.  1.
</event>
<event>
11    1  0.8864208E-009  0.2247795E+03  0.7561462E-02  0.1038264E+00
         22   -1    0    0    0    0  0.00000000000E+00  0.00000000000E+00  0.60390797382E+03  0.60390797382E+03  0.00000000000E+00 0. -1.
         22   -1    0    0    0    0 -0.00000000000E+00 -0.00000000000E+00 -0.23113356770E+04  0.23113356770E+04  0.00000000000E+00 0. -1.
         24    2    1    2    0    0  0.52951659018E+02 -0.35236048811E+02 -0.18724063541E+04  0.18751968254E+04  0.80075724891E+02 0.  0.
         25    2    1    2    0    0 -0.73089726545E+02 -0.15163990797E+03 -0.39321619155E+03  0.44564906945E+03  0.12508936801E+03 0.  0.
        -24    2    1    2    0    0  0.20138067527E+02  0.18687595678E+03  0.55819484247E+03  0.59439775599E+03  0.79994032156E+02 0.  0.
        -11    1    3    3    0    0  0.31353086338E+02 -0.14607452566E+02 -0.23632055925E+03  0.23883843999E+03  0.00000000000E+00 0.  1.
         12    1    3    3    0    0  0.21598572681E+02 -0.20628596246E+02 -0.16360857948E+04  0.16363583854E+04  0.00000000000E+00 0. -1.
         11    1    5    5    0    0 -0.16905878776E+02  0.11762103458E+03  0.40738791704E+03  0.42436473871E+03  0.00000000000E+00 0. -1.
        -12    1    5    5    0    0  0.37043946303E+02  0.69254922204E+02  0.15080692542E+03  0.17003301727E+03  0.00000000000E+00 0.  1.
          5    1    4    4  501    0 -0.74725291254E+02 -0.51126739185E+02 -0.96744159598E+02  0.13256967009E+03  0.41800000000E+01 0.  1.
         -5    1    4    4    0  501  0.16355647090E+01 -0.10051316878E+03 -0.29647203195E+03  0.31307939936E+03  0.41800000000E+01 0.  1.
</event>
<event>
11    1  0.8864208E-009  0.1725554E+03  0.7561462E-02  0.1075829E+00
         22   -1    0    0    0    0  0.00000000000E+00  0.00000000000E+00  0.49801415713E+03  0.49801415713E+03  0.00000000000E+00 0.  1.
         22   -1    0    0    0    0 -0.00000000000E+00 -0.00000000000E+00 -0.22725677719E+03  0.22725677719E+03  0.00000000000E+00 0.  1.
         24    2    1    2    0    0  0.69481780730E+02  0.95451858971E+02 -0.15414304724E+03  0.21044533411E+03  0.81168863510E+02 0.  0.
         25    2    1    2    0    0 -0.47625724319E+02 -0.11918373248E+03  0.17417904553E+03  0.24991713359E+03  0.12508901652E+03 0.  0.
        -24    2    1    2    0    0 -0.21856056411E+02  0.23731873510E+02  0.25072138166E+03  0.26490846662E+03  0.79211081589E+02 0.  0.
        -13    1    3    3    0    0  0.83338650489E+02  0.62753119891E+02 -0.13329108968E+03  0.16926251596E+03  0.00000000000E+00 0.  1.
         14    1    3    3    0    0 -0.13856869759E+02  0.32698739080E+02 -0.20851957559E+02  0.41182818153E+02  0.00000000000E+00 0. -1.
         13    1    5    5    0    0 -0.22661138821E+02 -0.24483822570E+02  0.65422603140E+02  0.73437740855E+02  0.00000000000E+00 0. -1.
        -14    1    5    5    0    0  0.80508240997E+00  0.48215696080E+02  0.18529877852E+03  0.19147072577E+03  0.00000000000E+00 0.  1.
          5    1    4    4  501    0 -0.17299758787E+01 -0.94699134457E+02  0.17351514514E+03  0.19772682386E+03  0.41800000000E+01 0.  1.
         -5    1    4    4    0  501 -0.45895748440E+02 -0.24484598023E+02  0.66390039051E+00  0.52190309723E+02  0.41800000000E+01 0.  1.
</event>
<event>
11    1  0.8864208E-009  0.1469106E+03  0.7561462E-02  0.1100078E+00
         22   -1    0    0    0    0  0.00000000000E+00  0.00000000000E+00  0.15156807370E+04  0.15156807370E+04  0.00000000000E+00 0. -1.
         22   -1    0    0    0    0 -0.00000000000E+00 -0.00000000000E+00 -0.46655329240E+02  0.46655329240E+02  0.00000000000E+00 0. -1.
        -24    2    1    2    0    0  0.40247597198E+02 -0.68562167717E+02  0.63090110903E+02  0.12938622522E+03  0.80248322485E+02 0.  0.
         25    2    1    2    0    0 -0.24683190435E+02  0.61439261542E+02  0.43798824601E+03  0.46028701185E+03  0.12508551828E+03 0.  0.
         24    2    1    2    0    0 -0.15564406764E+02  0.71229061749E+01  0.96794705087E+03  0.97266282920E+03  0.94119601869E+02 0.  0.
        -13    1    5    5    0    0  0.28923016812E+02  0.16340373931E+02  0.15860335986E+03  0.16204497672E+03  0.00000000000E+00 0.  1.
         14    1    5    5    0    0 -0.44487423576E+02 -0.92174677561E+01  0.80934369102E+03  0.81061785248E+03  0.00000000000E+00 0. -1.
         11    1    3    3    0    0  0.32918299651E+02 -0.27649678498E+02 -0.11052787981E+02  0.44387873289E+02  0.00000000000E+00 0. -1.
        -12    1    3    3    0    0  0.73292975469E+01 -0.40912489220E+02  0.74142898885E+02  0.84998351935E+02  0.00000000000E+00 0.  1.
          5    1    4    4  501    0 -0.39595184137E+02  0.60597157555E+02  0.43880575145E+03  0.44475583641E+03  0.41800000000E+01 0. -1.
         -5    1    4    4    0  501  0.14911993702E+02  0.84210398683E+00 -0.81750544462E+00  0.15531175437E+02  0.41800000000E+01 0. -1.
</event>
<event>
11    1  0.8864208E-009  0.1610607E+03  0.7561462E-02  0.1086084E+00
         22   -1    0    0    0    0  0.00000000000E+00  0.00000000000E+00  0.64614257705E+03  0.64614257705E+03  0.00000000000E+00 0. -1.
         22   -1    0    0    0    0 -0.00000000000E+00 -0.00000000000E+00 -0.78727244474E+03  0.78727244474E+03  0.00000000000E+00 0. -1.
         24    2    1    2    0    0  0.91531811694E+02 -0.69502769480E+02 -0.62733928802E+03  0.64286772434E+03  0.80719397804E+02 0.  0.
         25    2    1    2    0    0 -0.48874474341E+02  0.13881034184E+02 -0.11600196686E+03  0.17800346565E+03  0.12508948844E+03 0.  0.
        -24    2    1    2    0    0 -0.42657337353E+02  0.55621735296E+02  0.60221138719E+03  0.61254383181E+03  0.87395452718E+02 0.  0.
        -13    1    3    3    0    0 -0.14076535235E+01  0.15963930682E+01  0.18923467982E+01  0.28479704484E+01  0.00000000000E+00 0.  1.
         14    1    3    3    0    0  0.92939465218E+02 -0.71099162548E+02 -0.62923163482E+03  0.64001975389E+03  0.00000000000E+00 0. -1.
         13    1    5    5    0    0 -0.34667517192E+02  0.28575498040E+02  0.55987308187E+03  0.56167273713E+03  0.00000000000E+00 0. -1.
        -14    1    5    5    0    0 -0.79898201611E+01  0.27046237256E+02  0.42338305321E+02  0.50871094675E+02  0.00000000000E+00 0.  1.
          5    1    4    4  501    0 -0.77552167324E+02 -0.27428464024E+02 -0.55983284018E+02  0.99590460310E+02  0.41800000000E+01 0. -1.
         -5    1    4    4    0  501  0.28677692983E+02  0.41309498208E+02 -0.60018682837E+02  0.78413005340E+02  0.41800000000E+01 0. -1.
</event>
<event>
11    1  0.8864208E-009  0.2989784E+03  0.7561462E-02  0.1000624E+00
         22   -1    0    0    0    0  0.00000000000E+00  0.00000000000E+00  0.81522081733E+03  0.81522081733E+03  0.00000000000E+00 0. -1.
         22   -1    0    0    0    0 -0.00000000000E+00 -0.00000000000E+00 -0.45491407351E+03  0.45491407351E+03  0.00000000000E+00 0. -1.
         24    2    1    2    0    0 -0.20397202878E+03 -0.17748619501E+03 -0.32661137629E+03  0.43126024403E+03  0.78768451889E+02 0.  0.
         25    2    1    2    0    0  0.21316234453E+03  0.17974943578E+03  0.25204491584E+03  0.39613418504E+03  0.12509039997E+03 0.  0.
        -24    2    1    2    0    0 -0.91903157489E+01 -0.22632407699E+01  0.43487320427E+03  0.44274046178E+03  0.82551974781E+02 0.  0.
        -11    1    3    3    0    0 -0.13987344551E+03 -0.97030900419E+02 -0.15007861576E+03  0.22694309265E+03  0.00000000000E+00 0.  1.
         12    1    3    3    0    0 -0.64098583273E+02 -0.80455294592E+02 -0.17653276054E+03  0.20431715138E+03  0.00000000000E+00 0. -1.
         13    1    5    5    0    0 -0.11601201686E+02 -0.20067693629E+01  0.43834654798E+03  0.43850463068E+03  0.00000000000E+00 0. -1.
        -14    1    5    5    0    0  0.24108859370E+01 -0.25647140706E+00 -0.34733437069E+01  0.42358310979E+01  0.00000000000E+00 0.  1.
          5    1    4    4  501    0  0.10924842498E+03  0.16481512820E+03  0.13858909531E+03  0.24150290803E+03  0.41800000000E+01 0. -1.
         -5    1    4    4    0  501  0.10391391955E+03  0.14934307578E+02  0.11345582053E+03  0.15463127701E+03  0.41800000000E+01 0. -1.
</event>
<event>
11    1  0.8864208E-009  0.1385894E+03  0.7561462E-02  0.1109144E+00
         22   -1    0    0    0    0  0.00000000000E+00  0.00000000000E+00  0.20849633568E+04  0.20849633568E+04  0.00000000000E+00 0.  1.
         22   -1    0    0    0    0 -0.00000000000E+00 -0.00000000000E+00 -0.14319355996E+04  0.14319355996E+04  0.00000000000E+00 0. -1.
         24    2    1    2    0    0 -0.22200167793E+01  0.60594194626E+02 -0.13500611770E+04  0.13537531153E+04  0.79408629852E+02 0.  0.
         25    2    1    2    0    0  0.51130147252E+02 -0.24426114117E+02 -0.19123282526E+02  0.13866700351E+03  0.12510759737E+03 0.  0.
        -24    2    1    2    0    0 -0.48910130472E+02 -0.36168080508E+02  0.20222122167E+04  0.20244788376E+04  0.73972855180E+02 0.  0.
        -11    1    3    3    0    0 -0.12294424761E+02 -0.12687447443E+02 -0.10332977935E+03  0.10482923020E+03  0.00000000000E+00 0.  1.
         12    1    3    3    0    0  0.10074407981E+02  0.73281642069E+02 -0.12467313977E+04  0.12489238851E+04  0.00000000000E+00 0. -1.
         13    1    5    5    0    0  0.35573407249E+01  0.10894088765E+02  0.65316762233E+02  0.66314517804E+02  0.00000000000E+00 0. -1.
        -14    1    5    5    0    0 -0.52467471197E+02 -0.47062169273E+02  0.19568954545E+04  0.19581643198E+04  0.00000000000E+00 0.  1.
          5    1    4    4  501    0  0.77607452217E+02 -0.16691352292E+02 -0.52425460594E+02  0.95222997219E+02  0.41800000000E+01 0. -1.
         -5    1    4    4    0  501 -0.26477304965E+02 -0.77347618251E+01  0.33302178068E+02  0.43444006293E+02  0.41800000000E+01 0. -1.
</event>
<event>
11    1  0.8864208E-009  0.1795967E+03  0.7561462E-02  0.1069969E+00
         22   -1    0    0    0    0  0.00000000000E+00  0.00000000000E+00  0.52224276709E+03  0.52224276709E+03  0.00000000000E+00 0. -1.
         22   -1    0    0    0    0 -0.00000000000E+00 -0.00000000000E+00 -0.47951029124E+03  0.47951029124E+03  0.00000000000E+00 0.  1.
         24    2    1    2    0    0 -0.18248937915E+01  0.37060218896E+02 -0.38112274026E+03  0.39128234376E+03  0.80439662682E+02 0.  0.
         25    2    1    2    0    0  0.11578587765E+02 -0.15997886403E+03  0.51112394144E+02  0.20973200487E+03  0.12509091254E+03 0.  0.
        -24    2    1    2    0    0 -0.97536939735E+01  0.12291864513E+03  0.37274282196E+03  0.40073870971E+03  0.80312976963E+02 0.  0.
        -13    1    3    3    0    0 -0.72838485197E+01  0.19725202178E+02 -0.36862836389E+03  0.36922758391E+03  0.00000000000E+00 0.  1.
         14    1    3    3    0    0  0.54589547281E+01  0.17335016718E+02 -0.12494376363E+02  0.22054759850E+02  0.00000000000E+00 0. -1.
         11    1    5    5    0    0 -0.44247247973E+02  0.65525974762E+02  0.22625427268E+03  0.23967158411E+03  0.00000000000E+00 0. -1.
        -12    1    5    5    0    0  0.34493553999E+02  0.57392670373E+02  0.14648854928E+03  0.16106712560E+03  0.00000000000E+00 0.  1.
          5    1    4    4  501    0 -0.56043496532E+02 -0.62600421987E+02  0.12954854779E+02  0.85117489382E+02  0.41800000000E+01 0.  1.
         -5    1    4    4    0  501  0.67622084297E+02 -0.97378442045E+02  0.38157539365E+02  0.12461451549E+03  0.41800000000E+01 0.  1.
</event>
<event>
11    1  0.8864208E-009  0.1405448E+03  0.7561462E-02  0.1106952E+00
         22   -1    0    0    0    0  0.00000000000E+00  0.00000000000E+00  0.41490914719E+03  0.41490914719E+03  0.00000000000E+00 0. -1.
         22   -1    0    0    0    0 -0.00000000000E+00 -0.00000000000E+00 -0.29163046525E+03  0.29163046525E+03  0.00000000000E+00 0.  1.
         24    2    1    2    0    0  0.59090284875E+02  0.26336146007E+02 -0.24512857983E+03  0.26585093228E+03  0.80021517069E+02 0.  0.
         25    2    1    2    0    0 -0.48345818279E+02 -0.25989425228E+02  0.12838287555E+03  0.18746035979E+03  0.12508579212E+03 0.  0.
        -24    2    1    2    0    0 -0.10744466596E+02 -0.34672077935E+00  0.24002438621E+03  0.25322832037E+03  0.79983201259E+02 0.  0.
        -13    1    3    3    0    0  0.75162396509E+02  0.35560387749E+02 -0.21450266684E+03  0.23005503930E+03  0.00000000000E+00 0.  1.
         14    1    3    3    0    0 -0.16072111634E+02 -0.92242417412E+01 -0.30625912984E+02  0.35795892980E+02  0.00000000000E+00 0. -1.
         13    1    5    5    0    0 -0.12174375322E+01  0.12022869194E+02  0.23702106189E+03  0.23732891799E+03  0.00000000000E+00 0. -1.
        -14    1    5    5    0    0 -0.95270290638E+01 -0.12369589973E+02  0.30033243219E+01  0.15899402375E+02  0.00000000000E+00 0.  1.
          5    1    4    4  501    0 -0.61517693778E+02 -0.36599937222E+02  0.15653679977E+02  0.73392725452E+02  0.41800000000E+01 0.  1.
         -5    1    4    4    0  501  0.13171875499E+02  0.10610511994E+02  0.11272919557E+03  0.11406763434E+03  0.41800000000E+01 0.  1.
</event>
<event>
11    1  0.8864208E-009  0.1422398E+03  0.7561462E-02  0.1105083E+00
         22   -1    0    0    0    0  0.00000000000E+00  0.00000000000E+00  0.65909666298E+03  0.65909666298E+03  0.00000000000E+00 0.  1.
         22   -1    0    0    0    0 -0.00000000000E+00 -0.00000000000E+00 -0.27031768612E+03  0.27031768612E+03  0.00000000000E+00 0. -1.
        -24    2    1    2    0    0 -0.60011432601E+02 -0.25065558261E+02 -0.21211628895E+03  0.23635805371E+03  0.81499418760E+02 0.  0.
         25    2    1    2    0    0  0.10105763175E+03  0.23114838566E+02  0.11505031219E+03  0.19907639868E+03  0.12509155638E+03 0.  0.
         24    2    1    2    0    0 -0.41046199152E+02  0.19507196943E+01  0.48584495363E+03  0.49397989672E+03  0.79260479616E+02 0.  0.
        -11    1    5    5    0    0 -0.37434192720E+02  0.31265457376E+02  0.40466420827E+03  0.40759289624E+03  0.00000000000E+00 0.  1.
         12    1    5    5    0    0 -0.36120064321E+01 -0.29314737682E+02  0.81180745353E+02  0.86387000480E+02  0.00000000000E+00 0. -1.
         13    1    3    3    0    0 -0.79703599266E+02 -0.14639657007E+02 -0.17842132700E+03  0.19596212191E+03  0.00000000000E+00 0. -1.
        -14    1    3    3    0    0  0.19692166665E+02 -0.10425901254E+02 -0.33694961952E+02  0.40395931799E+02  0.00000000000E+00 0.  1.
          5    1    4    4  501    0 -0.23127481847E+02 -0.15733671871E+02  0.39417409971E+02  0.48514260336E+02  0.41800000000E+01 0. -1.
         -5    1    4    4    0  501  0.12418511360E+03  0.38848510438E+02  0.75632902220E+02  0.15056213834E+03  0.41800000000E+01 0. -1.
</event>
<event>
11    1  0.8864208E-009  0.1427843E+03  0.7561462E-02  0.1104488E+00
         22   -1    0    0    0    0  0.00000000000E+00  0.00000000000E+00  0.51914990254E+03  0.51914990254E+03  0.00000000000E+00 0. -1.
         22   -1    0    0    0    0 -0.00000000000E+00 -0.00000000000E+00 -0.11474772292E+04  0.11474772292E+04  0.00000000000E+00 0. -1.
         24    2    1    2    0    0 -0.19557784200E+02 -0.58966403331E+02 -0.11131044028E+04  0.11176942989E+04  0.79872338207E+02 0.  0.
         25    2    1    2    0    0 -0.50448975937E+02  0.20091097163E+02  0.17371448438E+03  0.22084428170E+03  0.12508686309E+03 0.  0.
        -24    2    1    2    0    0  0.70006760136E+02  0.38875306167E+02  0.31106259183E+03  0.32808855116E+03  0.66857501225E+02 0.  0.
        -11    1    3    3    0    0  0.94247047822E+01 -0.49227983592E+02 -0.31147268395E+03  0.31547971769E+03  0.00000000000E+00 0.  1.
         12    1    3    3    0    0 -0.28982488982E+02 -0.97384197386E+01 -0.80163171890E+03  0.80221458116E+03  0.00000000000E+00 0. -1.
         11    1    5    5    0    0  0.52912848281E+02 -0.18739502595E+01  0.22729302505E+03  0.23337823472E+03  0.00000000000E+00 0. -1.
        -12    1    5    5    0    0  0.17093911855E+02  0.40749256427E+02  0.83769566781E+02  0.94710316442E+02  0.00000000000E+00 0.  1.
          5    1    4    4  501    0 -0.83240608077E+02 -0.10585940000E+02  0.14437938765E+03  0.16704472735E+03  0.41800000000E+01 0.  1.
         -5    1    4    4    0  501  0.32791632140E+02  0.30677037163E+02  0.29335096733E+02  0.53799554346E+02  0.41800000000E+01 0.  1.
</event>
<event>
11    1  0.8864208E-009  0.1384819E+03  0.7561462E-02  0.1109266E+00
         22   -1    0    0    0    0  0.00000000000E+00  0.00000000000E+00  0.10875818638E+04  0.10875818638E+04  0.00000000000E+00 0.  1.
         22   -1    0    0    0    0 -0.00000000000E+00 -0.00000000000E+00 -0.45953006206E+03  0.45953006206E+03  0.00000000000E+00 0.  1.
        -24    2    1    2    0    0 -0.40552797044E+02 -0.32848952785E+02 -0.43626516611E+03  0.44651678488E+03  0.79538424520E+02 0.  0.
         25    2    1    2    0    0  0.83306396884E+02  0.46637454888E+02  0.46964435969E+03  0.49530472240E+03  0.12508371389E+03 0.  0.
         24    2    1    2    0    0 -0.42753599839E+02 -0.13788502102E+02  0.59467260818E+03  0.60529041860E+03  0.10355185579E+03 0.  0.
        -11    1    5    5    0    0 -0.17180913499E+02  0.68110235454E+01  0.54751109946E+03  0.54782294390E+03  0.00000000000E+00 0.  1.
         12    1    5    5    0    0 -0.25572686340E+02 -0.20599525648E+02  0.47161508719E+02  0.57467474698E+02  0.00000000000E+00 0. -1.
         13    1    3    3    0    0 -0.41757604417E+02 -0.36677115248E+02 -0.14595146071E+03  0.15617534118E+03  0.00000000000E+00 0. -1.
        -14    1    3    3    0    0  0.12048073723E+01  0.38281624628E+01 -0.29031370540E+03  0.29034144370E+03  0.00000000000E+00 0.  1.
          5    1    4    4  501    0  0.25522255680E+02  0.79272560705E+02  0.18383343980E+03  0.20186067077E+03  0.41800000000E+01 0.  1.
         -5    1    4    4    0  501  0.57784141204E+02 -0.32635105817E+02  0.28581091989E+03  0.29344405163E+03  0.41800000000E+01 0.  1.
</event>
<event>
11    1  0.8864208E-009  0.2652132E+03  0.7561462E-02  0.1016093E+00
         22   -1    0    0    0    0  0.00000000000E+00  0.00000000000E+00  0.94207478454E+03  0.94207478454E+03  0.00000000000E+00 0. -1.
         22   -1    0    0    0    0 -0.00000000000E+00 -0.00000000000E+00 -0.10120715142E+04  0.10120715142E+04  0.00000000000E+00 0.  1.
        -24    2    1    2    0    0  0.30716770067E+02 -0.64154307427E+02 -0.88462161904E+03  0.89194436533E+03  0.89163035221E+02 0.  0.
         25    2    1    2    0    0  0.20815508456E+03  0.55743274200E+02  0.46299203899E+02  0.25342805328E+03  0.12508521120E+03 0.  0.
         24    2    1    2    0    0 -0.23887185463E+03  0.84110332272E+01  0.76832568545E+03  0.80877388015E+03  0.81610795147E+02 0.  0.
        -11    1    5    5    0    0 -0.75967924289E+01  0.18167675615E+02  0.86937458411E+02  0.89139763110E+02  0.00000000000E+00 0.  1.
         12    1    5    5    0    0 -0.23127506220E+03 -0.97566423882E+01  0.68138822704E+03  0.71963411704E+03  0.00000000000E+00 0. -1.
         13    1    3    3    0    0 -0.36962404466E+01  0.12587983098E+01  0.32333022318E+00  0.39180746620E+01  0.00000000000E+00 0. -1.
        -14    1    3    3    0    0  0.34413010514E+02 -0.65413105737E+02 -0.88494494926E+03  0.88802629067E+03  0.00000000000E+00 0.  1.
          5    1    4    4  501    0  0.50956805822E+02  0.28499721002E+02 -0.41047655881E+02  0.71492745157E+02  0.41800000000E+01 0.  1.
         -5    1    4    4    0  501  0.15719827874E+03  0.27243553198E+02  0.87346859780E+02  0.18193530813E+03  0.41800000000E+01 0.  1.
</event>
<event>
11    1  0.8864208E-009  0.1384696E+03  0.7561462E-02  0.1109279E+00
         22   -1    0    0    0    0  0.00000000000E+00  0.00000000000E+00  0.39496976410E+03  0.39496976410E+03  0.00000000000E+00 0. -1.
         22   -1    0    0    0    0 -0.00000000000E+00 -0.00000000000E+00 -0.58166004282E+03  0.58166004282E+03  0.00000000000E+00 0.  1.
         24    2    1    2    0    0 -0.56683241751E+02 -0.77085461149E+01 -0.47368278002E+03  0.48408501493E+03  0.81795562347E+02 0.  0.
         25    2    1    2    0    0  0.80556018959E+02  0.31486592533E+02 -0.37296578805E+02  0.15658654279E+03  0.12509049881E+03 0.  0.
        -24    2    1    2    0    0 -0.23872777208E+02 -0.23778046418E+02  0.32428908010E+03  0.33595824920E+03  0.81050803491E+02 0.  0.
        -11    1    3    3    0    0 -0.15351022150E+02 -0.41016430497E+02 -0.15742336897E+03  0.16340170914E+03  0.00000000000E+00 0.  1.
         12    1    3    3    0    0 -0.41332219601E+02  0.33307884382E+02 -0.31625941104E+03  0.32068330579E+03  0.00000000000E+00 0. -1.
         11    1    5    5    0    0  0.29304425536E+01 -0.50091822271E+02  0.18061139695E+03  0.18745200681E+03  0.00000000000E+00 0. -1.
        -12    1    5    5    0    0 -0.26803219762E+02  0.26313775854E+02  0.14367768316E+03  0.14850624238E+03  0.00000000000E+00 0.  1.
          5    1    4    4  501    0  0.11842307148E+02  0.39403382113E+02 -0.68952377552E+02  0.80403790524E+02  0.41800000000E+01 0. -1.
         -5    1    4    4    0  501  0.68713711811E+02 -0.79167895807E+01  0.31655798746E+02  0.76182752263E+02  0.41800000000E+01 0. -1.
</event>
<event>
11    1  0.8864208E-009  0.1763460E+03  0.7561462E-02  0.1072637E+00
         22   -1    0    0    0    0  0.00000000000E+00  0.00000000000E+00  0.83748933332E+03  0.83748933332E+03  0.00000000000E+00 0.  1.
         22   -1    0    0    0    0 -0.00000000000E+00 -0.00000000000E+00 -0.13005387829E+03  0.13005387829E+03  0.00000000000E+00 0.  1.
         24    2    1    2    0    0 -0.10344802033E+02  0.10614293121E+02 -0.61363176414E+02  0.10424159981E+03  0.82952959943E+02 0.  0.
         25    2    1    2    0    0  0.12478748730E+03  0.35118526661E+02  0.17116780102E+03  0.24849923726E+03  0.12509287314E+03 0.  0.
        -24    2    1    2    0    0 -0.11444268527E+03 -0.45732819783E+02  0.59763083042E+03  0.61480237455E+03  0.75038198677E+02 0.  0.
        -11    1    3    3    0    0 -0.10638563619E+02 -0.24539566595E+02 -0.63620578906E+02  0.69014110331E+02  0.00000000000E+00 0.  1.
         12    1    3    3    0    0  0.29376158554E+00  0.35153859716E+02  0.22574024917E+01  0.35227489477E+02  0.00000000000E+00 0. -1.
         11    1    5    5    0    0 -0.19677549126E+02 -0.25192542244E+02  0.55327652818E+02  0.63898507734E+02  0.00000000000E+00 0. -1.
        -12    1    5    5    0    0 -0.94765136144E+02 -0.20540277539E+02  0.54230317760E+03  0.55090386681E+03  0.00000000000E+00 0.  1.
          5    1    4    4  501    0  0.67013944368E+02  0.35663356395E+02  0.93194107787E+01  0.76596785483E+02  0.41800000000E+01 0.  1.
         -5    1    4    4    0  501  0.57773542936E+02 -0.54482973373E+00  0.16184839024E+03  0.17190245178E+03  0.41800000000E+01 0.  1.
</event>
<event>
11    1  0.8864208E-009  0.1670371E+03  0.7561462E-02  0.1080639E+00
         22   -1    0    0    0    0  0.00000000000E+00  0.00000000000E+00  0.61320782119E+02  0.61320782119E+02  0.00000000000E+00 0.  1.
         22   -1    0    0    0    0 -0.00000000000E+00 -0.00000000000E+00 -0.25459878420E+04  0.25459878420E+04  0.00000000000E+00 0. -1.
         24    2    1    2    0    0  0.93277690690E+02  0.49812623356E+02 -0.16554864329E+04  0.16608457233E+04  0.81185972009E+02 0.  0.
         25    2    1    2    0    0 -0.11680651039E+03 -0.53035429371E+02 -0.84304594256E+03  0.86187646227E+03  0.12509219530E+03 0.  0.
        -24    2    1    2    0    0  0.23528819703E+02  0.32228060153E+01  0.13865315534E+02  0.84586438587E+02  0.79991416932E+02 0.  0.
        -13    1    3    3    0    0  0.60563712353E+02 -0.73121123943E+01 -0.54358500523E+03  0.54699733834E+03  0.00000000000E+00 0.  1.
         14    1    3    3    0    0  0.32713978337E+02  0.57124735750E+02 -0.11119014277E+04  0.11138483849E+04  0.00000000000E+00 0. -1.
         11    1    5    5    0    0  0.50174194458E+02 -0.13025078081E+02  0.12628946359E+02  0.53353469753E+02  0.00000000000E+00 0. -1.
        -12    1    5    5    0    0 -0.26645374755E+02  0.16247884096E+02  0.12363691750E+01  0.31232968834E+02  0.00000000000E+00 0.  1.
          5    1    4    4  501    0 -0.40696563810E+02  0.27996912118E+02 -0.11290475005E+03  0.12330852516E+03  0.41800000000E+01 0. -1.
         -5    1    4    4    0  501 -0.76109946583E+02 -0.81032341489E+02 -0.73014119250E+03  0.73856793711E+03  0.41800000000E+01 0. -1.
</event>
<event>
11    1  0.8864208E-009  0.1686396E+03  0.7561462E-02  0.1079222E+00
         22   -1    0    0    0    0  0.00000000000E+00  0.00000000000E+00  0.86323261074E+03  0.86323261074E+03  0.00000000000E+00 0. -1.
         22   -1    0    0    0    0 -0.00000000000E+00 -0.00000000000E+00 -0.16885452411E+04  0.16885452411E+04  0.00000000000E+00 0. -1.
         24    2    1    2    0    0  0.55454659525E+02 -0.94275676487E+02 -0.13501177158E+04  0.13569314444E+04  0.80510719139E+02 0.  0.
         25    2    1    2    0    0 -0.89010939660E+02  0.11340062112E+03 -0.30523501653E+03  0.35999741824E+03  0.12508827912E+03 0.  0.
        -24    2    1    2    0    0  0.33556280135E+02 -0.19124944637E+02  0.83004010199E+03  0.83484898917E+03  0.80712306108E+02 0.  0.
        -13    1    3    3    0    0  0.59168166288E+02 -0.21646227084E+02 -0.60283412499E+03  0.60611749134E+03  0.00000000000E+00 0.  1.
         14    1    3    3    0    0 -0.37135067627E+01 -0.72629449403E+02 -0.74728359082E+03  0.75081395310E+03  0.00000000000E+00 0. -1.
         13    1    5    5    0    0  0.42707232290E+02 -0.28080525646E+02  0.80593689549E+03  0.80755600619E+03  0.00000000000E+00 0. -1.
        -14    1    5    5    0    0 -0.91509521547E+01  0.89555810086E+01  0.24103206497E+02  0.27292982980E+02  0.00000000000E+00 0.  1.
          5    1    4    4  501    0 -0.11280432740E+03  0.70442830801E+02 -0.16882139594E+03  0.21495382020E+03  0.41800000000E+01 0. -1.
         -5    1    4    4    0  501  0.23793387742E+02  0.42957790323E+02 -0.13641362059E+03  0.14504359804E+03  0.41800000000E+01 0. -1.
</event>
<event>
11    1  0.8864208E-009  0.2533380E+03  0.7561462E-02  0.1022136E+00
         22   -1    0    0    0    0  0.00000000000E+00  0.00000000000E+00  0.40088068295E+03  0.40088068295E+03  0.00000000000E+00 0.  1.
         22   -1    0    0    0    0 -0.00000000000E+00 -0.00000000000E+00 -0.12810222366E+04  0.12810222366E+04  0.00000000000E+00 0.  1.
         24    2    1    2    0    0  0.38744282650E+01 -0.22162579657E+03 -0.12062728182E+04  0.12291078209E+04  0.80491730155E+02 0.  0.
         25    2    1    2    0    0  0.19490486337E+02  0.18580017418E+03  0.24967041111E+03  0.33598242131E+03  0.12508912606E+03 0.  0.
        -24    2    1    2    0    0 -0.23364914602E+02  0.35825622397E+02  0.76460853428E+02  0.11681267734E+03  0.77262830817E+02 0.  0.
        -11    1    3    3    0    0 -0.36806806176E+02 -0.85251204371E+02 -0.52162758275E+03  0.52982812676E+03  0.00000000000E+00 0.  1.
         12    1    3    3    0    0  0.40681234441E+02 -0.13637459220E+03 -0.68464523548E+03  0.69927969418E+03  0.00000000000E+00 0. -1.
         13    1    5    5    0    0 -0.35526996557E+01  0.39065224394E+02  0.86046745121E+02  0.94566144987E+02  0.00000000000E+00 0. -1.
        -14    1    5    5    0    0 -0.19812214946E+02 -0.32396019971E+01 -0.95858916929E+01  0.22246532353E+02  0.00000000000E+00 0.  1.
          5    1    4    4  501    0 -0.45862805554E+02  0.31909104454E+02  0.80669147497E+02  0.98216962070E+02  0.41800000000E+01 0. -1.
         -5    1    4    4    0  501  0.65353291891E+02  0.15389106972E+03  0.16900126362E+03  0.23776545924E+03  0.41800000000E+01 0. -1.
</event>
<event>
11    1  0.8864208E-009  0.1563405E+03  0.7561462E-02  0.1090571E+00
         22   -1    0    0    0    0  0.00000000000E+00  0.00000000000E+00  0.31489676318E+03  0.31489676318E+03  0.00000000000E+00 0.  1.
         22   -1    0    0    0    0 -0.00000000000E+00 -0.00000000000E+00 -0.42106718924E+03  0.42106718924E+03  0.00000000000E+00 0. -1.
        -24    2    1    2    0    0  0.98490714947E+02 -0.28847246716E+02 -0.28251370669E+03  0.31096340766E+03  0.79697313998E+02 0.  0.
         25    2    1    2    0    0 -0.96625559414E+02 -0.68408559103E+02 -0.34935260514E+02  0.17573941860E+03  0.12509053174E+03 0.  0.
         24    2    1    2    0    0 -0.18651555330E+01  0.97255805818E+02  0.21127854115E+03  0.24926112617E+03  0.89612033220E+02 0.  0.
        -11    1    5    5    0    0  0.23592474755E+02  0.72335988586E+02  0.19645774985E+03  0.21067687957E+03  0.00000000000E+00 0.  1.
         12    1    5    5    0    0 -0.25457630288E+02  0.24919817232E+02  0.14820791302E+02  0.38584246599E+02  0.00000000000E+00 0. -1.
         11    1    3    3    0    0  0.47329725416E+02  0.67004598205E+00 -0.21969945377E+03  0.22474074365E+03  0.00000000000E+00 0. -1.
        -12    1    3    3    0    0  0.51160989531E+02 -0.29517292698E+02 -0.62814252919E+02  0.86222664003E+02  0.00000000000E+00 0.  1.
          5    1    4    4  501    0 -0.20976230405E+01  0.89755865203E+01  0.33953024656E+02  0.35429386942E+02  0.41800000000E+01 0.  1.
         -5    1    4    4    0  501 -0.94527936374E+02 -0.77384145623E+02 -0.68888285170E+02  0.14031003165E+03  0.41800000000E+01 0.  1.
</event>
<event>
11    1  0.8864208E-009  0.1313399E+03  0.7561462E-02  0.1117634E+00
         22   -1    0    0    0    0  0.00000000000E+00  0.00000000000E+00  0.21061652450E+04  0.21061652450E+04  0.00000000000E+00 0.  1.
         22   -1    0    0    0    0 -0.00000000000E+00 -0.00000000000E+00 -0.40726893215E+03  0.40726893215E+03  0.00000000000E+00 0.  1.
         24    2    1    2    0    0  0.18144079154E+02 -0.50287385695E+02 -0.33906131272E+03  0.35336972648E+03  0.83961664126E+02 0.  0.
         25    2    1    2    0    0  0.14113103258E+02  0.73420334367E+02  0.29157764440E+02  0.14862042676E+03  0.12509248914E+03 0.  0.
        -24    2    1    2    0    0 -0.32257182412E+02 -0.23132948672E+02  0.20087998612E+04  0.20114440240E+04  0.95155242128E+02 0.  0.
        -13    1    3    3    0    0  0.29841092218E+02 -0.67816194274E+02 -0.29969718524E+03  0.30871982417E+03  0.00000000000E+00 0.  1.
         14    1    3    3    0    0 -0.11697013064E+02  0.17528808579E+02 -0.39364127474E+02  0.44649902314E+02  0.00000000000E+00 0. -1.
         11    1    5    5    0    0 -0.34548335239E+01 -0.77614921684E+01  0.13993640109E+02  0.16370662750E+02  0.00000000000E+00 0. -1.
        -12    1    5    5    0    0 -0.28802348888E+02 -0.15371456504E+02  0.19948062211E+04  0.19950733612E+04  0.00000000000E+00 0.  1.
          5    1    4    4  501    0  0.48558784486E+02  0.93215267109E+02  0.27084507715E+02  0.10861898789E+03  0.41800000000E+01 0. -1.
         -5    1    4    4    0  501 -0.34445681228E+02 -0.19794932742E+02  0.20732567242E+01  0.40001438861E+02  0.41800000000E+01 0. -1.
</event>
<event>
11    1  0.8864208E-009  0.1419586E+03  0.7561462E-02  0.1105391E+00
         22   -1    0    0    0    0  0.00000000000E+00  0.00000000000E+00  0.38429929222E+03  0.38429929222E+03  0.00000000000E+00 0.  1.
         22   -1    0    0    0    0 -0.00000000000E+00 -0.00000000000E+00 -0.18454610807E+04  0.18454610807E+04  0.00000000000E+00 0. -1.
        -24    2    1    2    0    0 -0.72102381861E+02  0.88464043545E+01 -0.13526884590E+04  0.13570665299E+04  0.81157174904E+02 0.  0.
         25    2    1    2    0    0  0.44362666439E+02  0.41962829511E+02 -0.47426542961E+03  0.49427063526E+03  0.12508732117E+03 0.  0.
         24    2    1    2    0    0  0.27739715422E+02 -0.50809233865E+02  0.36579210013E+03  0.37842320779E+03  0.77776562153E+02 0.  0.
        -11    1    5    5    0    0  0.54350012929E+02 -0.39806362212E+02  0.27720133410E+03  0.28527013514E+03  0.00000000000E+00 0.  1.
         12    1    5    5    0    0 -0.26610297507E+02 -0.11002871654E+02  0.88590766032E+02  0.93153072650E+02  0.00000000000E+00 0. -1.
         13    1    3    3    0    0 -0.86130813497E+02  0.17713425075E+02 -0.95735233137E+03  0.96138221787E+03  0.00000000000E+00 0. -1.
        -14    1    3    3    0    0  0.14028431637E+02 -0.88670207204E+01 -0.39533612763E+03  0.39568431200E+03  0.00000000000E+00 0.  1.
          5    1    4    4  501    0  0.75845808884E+02 -0.10326239129E+02 -0.29748158071E+03  0.30720022982E+03  0.41800000000E+01 0. -1.
         -5    1    4    4    0  501 -0.31483142445E+02  0.52289068640E+02 -0.17678384890E+03  0.18707040544E+03  0.41800000000E+01 0. -1.
</event>
<event>
11    1  0.8864208E-009  0.1301789E+03  0.7561462E-02  0.1119049E+00
         22   -1    0    0    0    0  0.00000000000E+00  0.00000000000E+00  0.36242486058E+04  0.36242486058E+04  0.00000000000E+00 0.  1.
         22   -1    0    0    0    0 -0.00000000000E+00 -0.00000000000E+00 -0.20271195123E+02  0.20271195123E+02  0.00000000000E+00 0.  1.
        -24    2    1    2    0    0 -0.11137406475E+02 -0.38785894768E+02  0.11625402489E+03  0.14689846990E+03  0.80223280283E+02 0.  0.
         25    2    1    2    0    0 -0.27210569422E+01  0.64293533544E+01  0.93248700795E+03  0.94086519070E+03  0.12508615566E+03 0.  0.
         24    2    1    2    0    0  0.13858463417E+02  0.32356541413E+02  0.25552363778E+04  0.25567561403E+04  0.80808487731E+02 0.  0.
        -13    1    5    5    0    0  0.27827840136E+02  0.42326473236E+02  0.89582214215E+03  0.89725315792E+03  0.00000000000E+00 0.  1.
         14    1    5    5    0    0 -0.13969376719E+02 -0.99699318225E+01  0.16594142357E+04  0.16595029824E+04  0.00000000000E+00 0. -1.
         11    1    3    3    0    0  0.98217220994E+00 -0.18322133383E+02  0.12122114931E+03  0.12260192606E+03  0.00000000000E+00 0. -1.
        -12    1    3    3    0    0 -0.12119578684E+02 -0.20463761384E+02 -0.49671244188E+01  0.24296543838E+02  0.00000000000E+00 0.  1.
          5    1    4    4  501    0 -0.33083496571E+02 -0.38654573516E+02  0.70860372466E+03  0.71044028940E+03  0.41800000000E+01 0.  1.
         -5    1    4    4    0  501  0.30362439629E+02  0.45083926871E+02  0.22388328329E+03  0.23042490130E+03  0.41800000000E+01 0.  1.
</event>
<event>
11    1  0.8864208E-009  0.1427357E+03  0.7561462E-02  0.1104541E+00
         22   -1    0    0    0    0  0.00000000000E+00  0.00000000000E+00  0.12295452267E+04  0.12295452267E+04  0.00000000000E+00 0.  1.
         22   -1    0    0    0    0 -0.00000000000E+00 -0.00000000000E+00 -0.81739783073E+03  0.81739783073E+03  0.00000000000E+00 0. -1.
        -24    2    1    2    0    0 -0.55782296961E+01 -0.30525461157E+01 -0.79994355348E+03  0.80412911376E+03  0.81691542788E+02 0.  0.
         25    2    1    2    0    0 -0.63716942718E+02 -0.74127246834E+01  0.40239499210E+03  0.42624394238E+03  0.12508945386E+03 0.  0.
         24    2    1    2    0    0  0.69295172414E+02  0.10465270799E+02  0.80969595734E+03  0.81657000129E+03  0.79168686096E+02 0.  0.
        -13    1    5    5    0    0  0.17657418121E+02  0.12706514335E+02  0.60694245370E+03  0.60733218425E+03  0.00000000000E+00 0.  1.
         14    1    5    5    0    0  0.51637754294E+02 -0.22412435356E+01  0.20275350364E+03  0.20923781704E+03  0.00000000000E+00 0. -1.
         13    1    3    3    0    0  0.36037107273E+01 -0.71719895427E+01 -0.78979841271E+03  0.78983919685E+03  0.00000000000E+00 0. -1.
        -14    1    3    3    0    0 -0.91819404233E+01  0.41194434269E+01 -0.10145140771E+02  0.14289916912E+02  0.00000000000E+00 0.  1.
          5    1    4    4  501    0 -0.98011166943E+02 -0.25278278510E+02  0.27626243872E+03  0.29425089237E+03  0.41800000000E+01 0.  1.
         -5    1    4    4    0  501  0.34294224225E+02  0.17865553826E+02  0.12613255338E+03  0.13199305001E+03  0.41800000000E+01 0.  1.
</event>
<event>
11    1  0.8864208E-009  0.1342799E+03  0.7561462E-02  0.1114119E+00
         22   -1    0    0    0    0  0.00000000000E+00  0.00000000000E+00  0.82881099773E+03  0.82881099773E+03  0.00000000000E+00 0. -1.
         22   -1    0    0    0    0 -0.00000000000E+00 -0.00000000000E+00 -0.33759516105E+03  0.33759516105E+03  0.00000000000E+00 0.  1.
        -24    2    1    2    0    0  0.37261469540E+02 -0.31337368400E+02 -0.31510957382E+03  0.32859706681E+03  0.79445207718E+02 0.  0.
         25    2    1    2    0    0 -0.37881367884E+02  0.47552661454E+02  0.41451569142E+03  0.43722250546E+03  0.12507600570E+03 0.  0.
         24    2    1    2    0    0  0.61989834402E+00 -0.16215293054E+02  0.39180971909E+03  0.40058658651E+03  0.81801206093E+02 0.  0.
        -11    1    5    5    0    0 -0.74204350876E+00  0.26884030751E+02  0.57168877553E+02  0.63178970383E+02  0.00000000000E+00 0.  1.
         12    1    5    5    0    0  0.13619418528E+01 -0.43099323805E+02  0.33464084153E+03  0.33740761613E+03  0.00000000000E+00 0. -1.
         13    1    3    3    0    0  0.38190985782E+01  0.73374345411E+01  0.10425893155E+01  0.83372928506E+01  0.00000000000E+00 0. -1.
        -14    1    3    3    0    0  0.33442370962E+02 -0.38674802941E+02 -0.31615216314E+03  0.32025977396E+03  0.00000000000E+00 0.  1.
          5    1    4    4  501    0 -0.67982815407E+02 -0.13791364241E+02  0.18113997962E+03  0.19401296228E+03  0.41800000000E+01 0. -1.
         -5    1    4    4    0  501  0.30101447523E+02  0.61344025694E+02  0.23337571180E+03  0.24320954317E+03  0.41800000000E+01 0. -1.
</event>
<event>
11    1  0.8864208E-009  0.1412308E+03  0.7561462E-02  0.1106192E+00
         22   -1    0    0    0    0  0.00000000000E+00  0.00000000000E+00  0.10541259797E+03  0.10541259797E+03  0.00000000000E+00 0.  1.
         22   -1    0    0    0    0 -0.00000000000E+00 -0.00000000000E+00 -0.11975962896E+04  0.11975962896E+04  0.00000000000E+00 0.  1.
        -24    2    1    2    0    0 -0.35009747662E+02 -0.25020492716E+02 -0.93829622731E+03  0.94271498849E+03  0.80374323271E+02 0.  0.
         25    2    1    2    0    0  0.52576470336E+02  0.83524658232E+02 -0.19523911853E+03  0.25199412593E+03  0.12506827069E+03 0.  0.
         24    2    1    2    0    0 -0.17566722674E+02 -0.58504165517E+02  0.41351654248E+02  0.10829977311E+03  0.79294100780E+02 0.  0.
        -11    1    5    5    0    0 -0.75705972422E+01 -0.76281050514E+02  0.20982976656E+02  0.79475769386E+02  0.00000000000E+00 0.  1.
         12    1    5    5    0    0 -0.99961254319E+01  0.17776884998E+02  0.20368677592E+02  0.28824003725E+02  0.00000000000E+00 0. -1.
         11    1    3    3    0    0 -0.27513785410E+02  0.24680400945E+02 -0.53934070822E+03  0.54060570670E+03  0.00000000000E+00 0. -1.
        -12    1    3    3    0    0 -0.74959622517E+01 -0.49700893661E+02 -0.39895551909E+03  0.40210928178E+03  0.00000000000E+00 0.  1.
          5    1    4    4  501    0  0.89910552383E+02  0.81126941860E+02 -0.15715382623E+03  0.19844466641E+03  0.41800000000E+01 0.  1.
         -5    1    4    4    0  501 -0.37334082048E+02  0.23977163724E+01 -0.38085292299E+02  0.53549459527E+02  0.41800000000E+01 0.  1.
</event>
<event>
11    1  0.8864208E-009  0.4244678E+03  0.7561462E-02  0.9580201E-01
         22   -1    0    0    0    0  0.00000000000E+00  0.00000000000E+00  0.89236121550E+03  0.89236121550E+03  0.00000000000E+00 0. -1.
         22   -1    0    0    0    0 -0.00000000000E+00 -0.00000000000E+00 -0.18776434088E+04  0.18776434088E+04  0.00000000000E+00 0. -1.
         24    2    1    2    0    0  0.39552195091E+03 -0.87761656873E+02 -0.14696498421E+04  0.15264681083E+04  0.78067312356E+02 0.  0.
         25    2    1    2    0    0 -0.42358287055E+03 -0.44327221103E+02 -0.23810337755E+03  0.50370771764E+03  0.12506356648E+03 0.  0.
        -24    2    1    2    0    0  0.28060919635E+02  0.13208887798E+03  0.72247102631E+03  0.73982879837E+03  0.84542179649E+02 0.  0.
        -11    1    3    3    0    0  0.13926541509E+03 -0.56323938190E+02 -0.64926557872E+03  0.66641806216E+03  0.00000000000E+00 0.  1.
         12    1    3    3    0    0  0.25625653582E+03 -0.31437718684E+02 -0.82038426337E+03  0.86005004616E+03  0.00000000000E+00 0. -1.
         11    1    5    5    0    0  0.41413282835E+02  0.13517603765E+03  0.59233799640E+03  0.60897612690E+03  0.00000000000E+00 0. -1.
        -12    1    5    5    0    0 -0.13352363200E+02 -0.30871596688E+01  0.13013302991E+03  0.13085267147E+03  0.00000000000E+00 0.  1.
          5    1    4    4  501    0 -0.42771761037E+03 -0.51593005168E+02 -0.24132521298E+03  0.49382134748E+03  0.41800000000E+01 0. -1.
         -5    1    4    4    0  501  0.41347398268E+01  0.72657840650E+01  0.32218354292E+01  0.98863701654E+01  0.41800000000E+01 0. -1.
</event>
<event>
11    1  0.8864208E-009  0.1821246E+03  0.7561462E-02  0.1067937E+00
         22   -1    0    0    0    0  0.00000000000E+00  0.00000000000E+00  0.34796900766E+03  0.34796900766E+03  0.00000000000E+00 0. -1.
         22   -1    0    0    0    0 -0.00000000000E+00 -0.00000000000E+00 -0.31643532221E+04  0.31643532221E+04  0.00000000000E+00 0.  1.
        -24    2    1    2    0    0 -0.92942216863E+01  0.19197142662E+02 -0.29415408087E+04  0.29426314298E+04  0.77217155364E+02 0.  0.
         25    2    1    2    0    0 -0.81135452265E+02  0.79993975757E+02 -0.16655273772E+03  0.23742739341E+03  0.12509977989E+03 0.  0.
         24    2    1    2    0    0  0.90429673952E+02 -0.99191118419E+02  0.29170933200E+03  0.33226340661E+03  0.85371149077E+02 0.  0.
        -11    1    5    5    0    0 -0.12840647649E+02 -0.34386167427E+02  0.78475660887E+02  0.86635559062E+02  0.00000000000E+00 0.  1.
         12    1    5    5    0    0  0.10327032160E+03 -0.64804950992E+02  0.21323367111E+03  0.24562784755E+03  0.00000000000E+00 0. -1.
         11    1    3    3    0    0 -0.48270569849E+00  0.44382337639E+02 -0.10968615427E+04  0.10977592034E+04  0.00000000000E+00 0. -1.
        -12    1    3    3    0    0 -0.88115159878E+01 -0.25185194977E+02 -0.18446792661E+04  0.18448722263E+04  0.00000000000E+00 0.  1.
          5    1    4    4  501    0 -0.88855970213E+02  0.64256767383E+02 -0.18277121729E+03  0.21318326826E+03  0.41800000000E+01 0. -1.
         -5    1    4    4    0  501  0.77205179475E+01  0.15737208374E+02  0.16218479568E+02  0.24244125150E+02  0.41800000000E+01 0. -1.
</event>
<event>
11    1  0.8864208E-009  0.1845964E+03  0.7561462E-02  0.1065984E+00
         22   -1    0    0    0    0  0.00000000000E+00  0.00000000000E+00  0.26597337554E+03  0.26597337554E+03  0.00000000000E+00 0.  1.
         22   -1    0    0    0    0 -0.00000000000E+00 -0.00000000000E+00 -0.21600164919E+04  0.21600164919E+04  0.00000000000E+00 0.  1.
         24    2    1    2    0    0 -0.12707589042E+03 -0.51196067128E+02 -0.17298231942E+04  0.17370556403E+04  0.79402109886E+02 0.  0.
         25    2    1    2    0    0  0.12001938367E+03  0.47676777045E+02 -0.40084450461E+03  0.43931744189E+03  0.12508305382E+03 0.  0.
        -24    2    1    2    0    0  0.70565067546E+01  0.35192900836E+01  0.23662458240E+03  0.24961678530E+03  0.79089612547E+02 0.  0.
        -13    1    3    3    0    0 -0.13002154249E+03 -0.54577124602E+02 -0.13764844216E+04  0.13836884140E+04  0.00000000000E+00 0.  1.
         14    1    3    3    0    0  0.29456520740E+01  0.33810574736E+01 -0.35333877255E+03  0.35336722627E+03  0.00000000000E+00 0. -1.
         13    1    5    5    0    0  0.14169131419E+02 -0.12779783988E+02  0.86508946113E+01  0.20950540363E+02  0.00000000000E+00 0. -1.
        -14    1    5    5    0    0 -0.71126246642E+01  0.16299074072E+02  0.22797368779E+03  0.22866624493E+03  0.00000000000E+00 0.  1.
          5    1    4    4  501    0  0.97232696085E+02  0.48114873524E+02 -0.40171807312E+03  0.41612993273E+03  0.41800000000E+01 0.  1.
         -5    1    4    4    0  501  0.22786687582E+02 -0.43809647909E+00  0.87356850766E+00  0.23187509168E+02  0.41800000000E+01 0.  1.
</event>
<event>
11    1  0.8864208E-009  0.1576964E+03  0.7561462E-02  0.1089264E+00
         22   -1    0    0    0    0  0.00000000000E+00  0.00000000000E+00  0.94701955810E+03  0.94701955810E+03  0.00000000000E+00 0. -1.
         22   -1    0    0    0    0 -0.00000000000E+00 -0.00000000000E+00 -0.78337636576E+03  0.78337636576E+03  0.00000000000E+00 0.  1.
        -24    2    1    2    0    0 -0.40943514644E+02 -0.86957861209E+02 -0.70397748637E+03  0.71520631849E+03  0.81839694934E+02 0.  0.
         25    2    1    2    0    0  0.32994699083E+02  0.89002754330E+02  0.14005741871E+02  0.15765245017E+03  0.12509194136E+03 0.  0.
         24    2    1    2    0    0  0.79488155611E+01 -0.20448931212E+01  0.85361493684E+03  0.85753715521E+03  0.81511636587E+02 0.  0.
        -13    1    5    5    0    0 -0.26438305052E+02 -0.23391386682E+01  0.11110207958E+03  0.11422840115E+03  0.00000000000E+00 0.  1.
         14    1    5    5    0    0  0.34387120613E+02  0.29424554699E+00  0.74251285727E+03  0.74330875405E+03  0.00000000000E+00 0. -1.
         13    1    3    3    0    0 -0.61846809383E+02 -0.84834674746E+02 -0.56921083456E+03  0.57881164817E+03  0.00000000000E+00 0. -1.
        -14    1    3    3    0    0  0.20903294739E+02 -0.21231864629E+01 -0.13476665181E+03  0.13639467032E+03  0.00000000000E+00 0.  1.
          5    1    4    4  501    0  0.77654196754E+02  0.79283059691E+02  0.76570249745E+01  0.11131972089E+03  0.41800000000E+01 0.  1.
         -5    1    4    4    0  501 -0.44659497671E+02  0.97196946390E+01  0.63487168969E+01  0.46332729278E+02  0.41800000000E+01 0.  1.
</event>
<event>
11    1  0.8864208E-009  0.5659282E+03  0.7561462E-02  0.9257183E-01
         22   -1    0    0    0    0  0.00000000000E+00  0.00000000000E+00  0.59947754759E+03  0.59947754759E+03  0.00000000000E+00 0.  1.
         22   -1    0    0    0    0 -0.00000000000E+00 -0.00000000000E+00 -0.77200065410E+03  0.77200065410E+03  0.00000000000E+00 0.  1.
        -24    2    1    2    0    0  0.62907739811E+02  0.58828637871E+02 -0.68723383197E+02  0.13659319744E+03  0.80725496757E+02 0.  0.
         25    2    1    2    0    0  0.26537202355E+03 -0.49829682860E+03 -0.29393808340E+03  0.64866698606E+03  0.12508885506E+03 0.  0.
         24    2    1    2    0    0 -0.32827976336E+03  0.43946819072E+03  0.19013836008E+03  0.58621801819E+03  0.81234691989E+02 0.  0.
        -13    1    5    5    0    0 -0.79054550077E+02  0.16093823280E+03  0.81764134162E+02  0.19706879586E+03  0.00000000000E+00 0.  1.
         14    1    5    5    0    0 -0.24922521328E+03  0.27852995792E+03  0.10837422592E+03  0.38914922233E+03  0.00000000000E+00 0. -1.
         13    1    3    3    0    0  0.55291664033E+02  0.13376783385E+02 -0.70358265104E+02  0.90478682096E+02  0.00000000000E+00 0. -1.
        -14    1    3    3    0    0  0.76160757773E+01  0.45451854486E+02  0.16348819076E+01  0.46114515343E+02  0.00000000000E+00 0.  1.
          5    1    4    4  501    0  0.20737159934E+03 -0.32825829135E+03 -0.25573079115E+03  0.46494321803E+03  0.41800000000E+01 0. -1.
         -5    1    4    4    0  501  0.58000424214E+02 -0.17003853725E+03 -0.38207292250E+02  0.18372376803E+03  0.41800000000E+01 0. -1.
</event>
<event>
11    1  0.8864208E-009  0.1332480E+03  0.7561462E-02  0.1115341E+00
         22   -1    0    0    0    0  0.00000000000E+00  0.00000000000E+00  0.15563722373E+03  0.15563722373E+03  0.00000000000E+00 0. -1.
         22   -1    0    0    0    0 -0.00000000000E+00 -0.00000000000E+00 -0.69936915002E+03  0.69936915002E+03  0.00000000000E+00 0.  1.
         24    2    1    2    0    0 -0.15731435134E+02  0.20914185242E+02 -0.59239422093E+03  0.59818987563E+03  0.78837384026E+02 0.  0.
         25    2    1    2    0    0  0.54975119714E+02  0.88427856082E+00 -0.24718964142E+02  0.13882800408E+03  0.12505655437E+03 0.  0.
        -24    2    1    2    0    0 -0.39243684580E+02 -0.21798463802E+02  0.73381258784E+02  0.11798849404E+03  0.80754168825E+02 0.  0.
        -13    1    3    3    0    0  0.44000386396E+01  0.17129027441E+02 -0.55710985656E+03  0.55739048808E+03  0.00000000000E+00 0.  1.
         14    1    3    3    0    0 -0.20131473773E+02  0.37851578008E+01 -0.35284364371E+02  0.40799387556E+02  0.00000000000E+00 0. -1.
         13    1    5    5    0    0 -0.19989431463E+02 -0.16671882081E+02  0.88963957315E+02  0.92693660644E+02  0.00000000000E+00 0. -1.
        -14    1    5    5    0    0 -0.19254253117E+02 -0.51265817218E+01 -0.15582698532E+02  0.25294833401E+02  0.00000000000E+00 0.  1.
          5    1    4    4  501    0  0.93543522355E+01 -0.57073946438E+01 -0.71832479355E+02  0.72783622812E+02  0.41800000000E+01 0. -1.
         -5    1    4    4    0  501  0.45620767478E+02  0.65916732046E+01  0.47113515213E+02  0.66044381265E+02  0.41800000000E+01 0. -1.
</event>
<event>
11    1  0.8864208E-009  0.1833354E+03  0.7561462E-02  0.1066976E+00
         22   -1    0    0    0    0  0.00000000000E+00  0.00000000000E+00  0.68517866729E+03  0.68517866729E+03  0.00000000000E+00 0.  1.
         22   -1    0    0    0    0 -0.00000000000E+00 -0.00000000000E+00 -0.22560055270E+03  0.22560055270E+03  0.00000000000E+00 0.  1.
         24    2    1    2    0    0  0.50924267176E+02  0.23779762704E+02 -0.15991090086E+03  0.18694499899E+03  0.78855426763E+02 0.  0.
         25    2    1    2    0    0 -0.66958606258E+02  0.11326794817E+03  0.17676891115E+03  0.25339266587E+03  0.12509001612E+03 0.  0.
        -24    2    1    2    0    0  0.16034339083E+02 -0.13704771087E+03  0.44272010430E+03  0.47044155513E+03  0.79214840530E+02 0.  0.
        -11    1    3    3    0    0  0.47703745662E+02 -0.20804405444E+02 -0.90058406831E+02  0.10401436092E+03  0.00000000000E+00 0.  1.
         12    1    3    3    0    0  0.32205215140E+01  0.44584168148E+02 -0.69852494032E+02  0.82930638070E+02  0.00000000000E+00 0. -1.
         13    1    5    5    0    0 -0.15163559658E+02 -0.49672678978E+02  0.26415708474E+03  0.26921417867E+03  0.00000000000E+00 0. -1.
        -14    1    5    5    0    0  0.31197898741E+02 -0.87375031894E+02  0.17856301956E+03  0.20122737646E+03  0.00000000000E+00 0.  1.
          5    1    4    4  501    0 -0.16177923611E+02  0.80390872426E+02  0.17433706353E+03  0.19270521970E+03  0.41800000000E+01 0. -1.
         -5    1    4    4    0  501 -0.50780682648E+02  0.32877075740E+02  0.24318476264E+01  0.60687446167E+02  0.41800000000E+01 0. -1.
</event>
<event>
11    1  0.8864208E-009  0.2528901E+03  0.7561462E-02  0.1022371E+00
         22   -1    0    0    0    0  0.00000000000E+00  0.00000000000E+00  0.75338023044E+03  0.75338023044E+03  0.00000000000E+00 0. -1.
         22   -1    0    0    0    0 -0.00000000000E+00 -0.00000000000E+00 -0.25482354519E+03  0.25482354519E+03  0.00000000000E+00 0.  1.
         24    2    1    2    0    0 -0.14686371619E+03 -0.15775363051E+03 -0.12039847543E+03  0.25943648395E+03  0.79726640754E+02 0.  0.
         25    2    1    2    0    0  0.10431335821E+03  0.23096998623E+03  0.31773004185E+03  0.42524055265E+03  0.12509491151E+03 0.  0.
        -24    2    1    2    0    0  0.42550357978E+02 -0.73216355723E+02  0.30122511883E+03  0.32352673904E+03  0.82230231350E+02 0.  0.
        -13    1    3    3    0    0 -0.22749244008E+02 -0.63766520270E+02 -0.65920755093E+02  0.94494672666E+02  0.00000000000E+00 0.  1.
         14    1    3    3    0    0 -0.12411447218E+03 -0.93987110236E+02 -0.54477720336E+02  0.16494181128E+03  0.00000000000E+00 0. -1.
         13    1    5    5    0    0  0.79005009018E+01 -0.72142752120E+02  0.25856611919E+03  0.26855806186E+03  0.00000000000E+00 0. -1.
        -14    1    5    5    0    0  0.34649857076E+02 -0.10736036028E+01  0.42658999643E+02  0.54968677178E+02  0.00000000000E+00 0.  1.
          5    1    4    4  501    0  0.13035820226E+03  0.16417167074E+03  0.25265233148E+03  0.32832342496E+03  0.41800000000E+01 0. -1.
         -5    1    4    4    0  501 -0.26044844054E+02  0.66798315492E+02  0.65077710369E+02  0.96917127698E+02  0.41800000000E+01 0. -1.
</event>
<event>
11    1  0.8864208E-009  0.1575138E+03  0.7561462E-02  0.1089439E+00
         22   -1    0    0    0    0  0.00000000000E+00  0.00000000000E+00  0.23484540276E+04  0.23484540276E+04  0.00000000000E+00 0.  1.
         22   -1    0    0    0    0 -0.00000000000E+00 -0.00000000000E+00 -0.42017841357E+03  0.42017841357E+03  0.00000000000E+00 0.  1.
         24    2    1    2    0    0 -0.53564050105E+02 -0.34086026942E+02 -0.40015036947E+03  0.41251330903E+03  0.77562537647E+02 0.  0.
         25    2    1    2    0    0  0.53611797843E+02 -0.66776910533E+02  0.48380986370E+03  0.50700354051E+03  0.12508886935E+03 0.  0.
        -24    2    1    2    0    0 -0.47747737571E-01  0.10086293748E+03  0.18446161198E+04  0.18491155916E+04  0.80290144528E+02 0.  0.
        -13    1    3    3    0    0 -0.21674821350E+02 -0.53342593436E+01 -0.32649120481E+03  0.32725335601E+03  0.00000000000E+00 0.  1.
         14    1    3    3    0    0 -0.31889228755E+02 -0.28751767599E+02 -0.73659164659E+02  0.85259953019E+02  0.00000000000E+00 0. -1.
         13    1    5    5    0    0 -0.26976840475E+02  0.55917970867E+02  0.55993414261E+03  0.56336561259E+03  0.00000000000E+00 0. -1.
        -14    1    5    5    0    0  0.26929092737E+02  0.44944966608E+02  0.12846819772E+04  0.12857499790E+04  0.00000000000E+00 0.  1.
          5    1    4    4  501    0 -0.19365521857E+02  0.90626163591E+01  0.24536021082E+03  0.24632551615E+03  0.41800000000E+01 0. -1.
         -5    1    4    4    0  501  0.72977319700E+02 -0.75839526892E+02  0.23844965287E+03  0.26067802436E+03  0.41800000000E+01 0. -1.
</event>
<event>
11    1  0.8864208E-009  0.1628173E+03  0.7561462E-02  0.1084457E+00
         22   -1    0    0    0    0  0.00000000000E+00  0.00000000000E+00  0.14322070252E+04  0.14322070252E+04  0.00000000000E+00 0. -1.
         22   -1    0    0    0    0 -0.00000000000E+00 -0.00000000000E+00 -0.21100934455E+03  0.21100934455E+03  0.00000000000E+00 0.  1.
         24    2    1    2    0    0  0.14996921382E+02  0.10407081482E+03 -0.14121330893E+03  0.19375261837E+03  0.80890273569E+02 0.  0.
         25    2    1    2    0    0  0.37532293113E+02 -0.10300099046E+03  0.12443529742E+03  0.20772562645E+03  0.12509162874E+03 0.  0.
        -24    2    1    2    0    0 -0.52529214496E+02 -0.10698243639E+01  0.12379756922E+04  0.12417381249E+04  0.81051179043E+02 0.  0.
        -13    1    3    3    0    0 -0.27652605187E+02  0.64224927657E+02 -0.10111939098E+03  0.12294160865E+03  0.00000000000E+00 0.  1.
         14    1    3    3    0    0  0.42649526569E+02  0.39845887167E+02 -0.40093917947E+02  0.70811009716E+02  0.00000000000E+00 0. -1.
         13    1    5    5    0    0 -0.42925160613E+02  0.35019123563E+02  0.55962775306E+03  0.56236298814E+03  0.00000000000E+00 0. -1.
        -14    1    5    5    0    0 -0.96040538826E+01 -0.36088947927E+02  0.67834793909E+03  0.67937513679E+03  0.00000000000E+00 0.  1.
          5    1    4    4  501    0  0.94190188761E+01 -0.74247817588E+02 -0.19973068937E+01  0.74986118502E+02  0.41800000000E+01 0.  1.
         -5    1    4    4    0  501  0.28113274237E+02 -0.28753172872E+02  0.12643260431E+03  0.13273950795E+03  0.41800000000E+01 0.  1.
</event>
<event>
11    1  0.8864208E-009  0.9043599E+03  0.7561462E-02  0.8775712E-01
         22   -1    0    0    0    0  0.00000000000E+00  0.00000000000E+00  0.11184335998E+04  0.11184335998E+04  0.00000000000E+00 0. -1.
         22   -1    0    0    0    0 -0.00000000000E+00 -0.00000000000E+00 -0.16462839288E+04  0.16462839288E+04  0.00000000000E+00 0. -1.
         24    2    1    2    0    0  0.10913029725E+03  0.64456460017E+03 -0.11024867506E+04  0.12842046313E+04  0.79571063707E+02 0.  0.
         25    2    1    2    0    0 -0.12884966986E+03 -0.93742143978E+03  0.66499168664E+03  0.11632802891E+04  0.12508355039E+03 0.  0.
        -24    2    1    2    0    0  0.19719372610E+02  0.29285683962E+03 -0.90355264993E+02  0.31723260815E+03  0.79488814295E+02 0.  0.
        -11    1    3    3    0    0  0.11911740549E+03  0.54530144569E+03 -0.91427735546E+03  0.10711889216E+04  0.00000000000E+00 0.  1.
         12    1    3    3    0    0 -0.99871082411E+01  0.99263154481E+02 -0.18820939518E+03  0.21301570976E+03  0.00000000000E+00 0. -1.
         11    1    5    5    0    0 -0.93466772142E+00  0.18720153179E+03 -0.94076925754E+02  0.20951313817E+03  0.00000000000E+00 0. -1.
        -12    1    5    5    0    0  0.20654040331E+02  0.10565530783E+03  0.37216607607E+01  0.10771946998E+03  0.00000000000E+00 0.  1.
          5    1    4    4  501    0 -0.48749139127E+02 -0.70193055910E+03  0.45705356691E+03  0.83904613924E+03  0.41800000000E+01 0. -1.
         -5    1    4    4    0  501 -0.80100530733E+02 -0.23549088069E+03  0.20793811974E+03  0.32423414988E+03  0.41800000000E+01 0. -1.
</event>
<event>
11    1  0.8864208E-009  0.1524550E+03  0.7561462E-02  0.1094396E+00
         22   -1    0    0    0    0  0.00000000000E+00  0.00000000000E+00  0.23623939835E+03  0.23623939835E+03  0.00000000000E+00 0. -1.
         22   -1    0    0    0    0 -0.00000000000E+00 -0.00000000000E+00 -0.10679419923E+04  0.10679419923E+04  0.00000000000E+00 0. -1.
         24    2    1    2    0    0  0.72435491448E+02  0.45363504591E+02 -0.90777227812E+03  0.91554109555E+03  0.82826570256E+02 0.  0.
         25    2    1    2    0    0 -0.10148645582E+03 -0.40052412212E+02 -0.99710377534E+02  0.19363327571E+03  0.12509192473E+03 0.  0.
        -24    2    1    2    0    0  0.29050964375E+02 -0.53110923783E+01  0.17578006168E+03  0.19500701942E+03  0.79100829976E+02 0.  0.
        -13    1    3    3    0    0  0.39030469358E+01  0.35397564676E+02 -0.13317871392E+03  0.13785786594E+03  0.00000000000E+00 0.  1.
         14    1    3    3    0    0  0.68532444512E+02  0.99659399144E+01 -0.77459356420E+03  0.77768322961E+03  0.00000000000E+00 0. -1.
         13    1    5    5    0    0  0.33788912600E+02 -0.74221528099E+01  0.18293076083E+03  0.18617315119E+03  0.00000000000E+00 0. -1.
        -14    1    5    5    0    0 -0.47379482254E+01  0.21110604316E+01 -0.71506991461E+01  0.88338682247E+01  0.00000000000E+00 0.  1.
          5    1    4    4  501    0 -0.11675592228E+03 -0.60405197008E+02 -0.10377042732E+03  0.16753061571E+03  0.41800000000E+01 0. -1.
         -5    1    4    4    0  501  0.15269466456E+02  0.20352784796E+02  0.40600497848E+01  0.26102660000E+02  0.41800000000E+01 0. -1.
</event>
<event>
11    1  0.8864208E-009  0.1422047E+03  0.7561462E-02  0.1105121E+00
         22   -1    0    0    0    0  0.00000000000E+00  0.00000000000E+00  0.40026287098E+02  0.40026287098E+02  0.00000000000E+00 0.  1.
         22   -1    0    0    0    0 -0.00000000000E+00 -0.00000000000E+00 -0.35699805981E+04  0.35699805981E+04  0.00000000000E+00 0.  1.
        -24    2    1    2    0    0  0.13138887377E+02 -0.11129002550E+02 -0.27583790721E+04  0.27595971260E+04  0.80154271558E+02 0.  0.
         25    2    1    2    0    0 -0.72073759010E+02 -0.20738721439E+02 -0.72340229833E+03  0.73795859134E+03  0.12508907228E+03 0.  0.
         24    2    1    2    0    0  0.58934871633E+02  0.31867723989E+02 -0.48172940581E+02  0.11245116789E+03  0.76392159467E+02 0.  0.
        -11    1    5    5    0    0  0.37810749826E+02  0.27636698229E+02  0.12160123364E+02  0.48387069468E+02  0.00000000000E+00 0.  1.
         12    1    5    5    0    0  0.21124121807E+02  0.42310257600E+01 -0.60333063945E+02  0.64064098418E+02  0.00000000000E+00 0. -1.
         11    1    3    3    0    0  0.12302053845E+02 -0.16412059447E+02 -0.17287372438E+03  0.17408624531E+03  0.00000000000E+00 0. -1.
        -12    1    3    3    0    0  0.83683353194E+00  0.52830568962E+01 -0.25855053478E+04  0.25855108807E+04  0.00000000000E+00 0.  1.
          5    1    4    4  501    0  0.74254608813E+01 -0.34799233712E+02 -0.48301783120E+03  0.48434473445E+03  0.41800000000E+01 0.  1.
         -5    1    4    4    0  501 -0.79499219892E+02  0.14060512273E+02 -0.24038446713E+03  0.25361385689E+03  0.41800000000E+01 0.  1.
</event>
<event>
11    1  0.8864208E-009  0.1497757E+03  0.7561462E-02  0.1097108E+00
         22   -1    0    0    0    0  0.00000000000E+00  0.00000000000E+00  0.20482355006E+04  0.20482355006E+04  0.00000000000E+00 0.  1.
         22   -1    0    0    0    0 -0.00000000000E+00 -0.00000000000E+00 -0.52796068650E+02  0.52796068650E+02  0.00000000000E+00 0. -1.
         24    2    1    2    0    0 -0.61873322633E+01  0.29862849374E+02  0.28586980422E+01  0.89461913292E+02  0.84054678169E+02 0.  0.
         25    2    1    2    0    0  0.59106339563E+02 -0.81712051506E+02  0.99339370560E+03  0.10063048262E+04  0.12509168675E+03 0.  0.
        -24    2    1    2    0    0 -0.52919007299E+02  0.51849202132E+02  0.99918702833E+03  0.10052648298E+04  0.81816253839E+02 0.  0.
        -13    1    3    3    0    0  0.36782165225E+02  0.23418493492E+00 -0.31771205055E+01  0.36919867496E+02  0.00000000000E+00 0.  1.
         14    1    3    3    0    0 -0.42969497488E+02  0.29628664439E+02  0.60358185477E+01  0.52542045796E+02  0.00000000000E+00 0. -1.
         11    1    5    5    0    0  0.12123248431E+02  0.10278685465E+02  0.40991903563E+02  0.43965448765E+02  0.00000000000E+00 0. -1.
        -12    1    5    5    0    0 -0.65042255730E+02  0.41570516667E+02  0.95819512476E+03  0.96129938105E+03  0.00000000000E+00 0.  1.
          5    1    4    4  501    0  0.85378577573E+02 -0.19519987909E+02  0.42874527944E+03  0.43761914775E+03  0.41800000000E+01 0. -1.
         -5    1    4    4    0  501 -0.26272238010E+02 -0.62192063597E+02  0.56464842616E+03  0.56868567841E+03  0.41800000000E+01 0. -1.
</event>
<event>
11    1  0.8864208E-009  0.1840351E+03  0.7561462E-02  0.1066425E+00
         22   -1    0    0    0    0  0.00000000000E+00  0.00000000000E+00  0.15639291292E+03  0.15639291292E+03  0.00000000000E+00 0.  1.
         22   -1    0    0    0    0 -0.00000000000E+00 -0.00000000000E+00 -0.11049440157E+04  0.11049440157E+04  0.00000000000E+00 0. -1.
        -24    2    1    2    0    0  0.14325847405E+03  0.97640976057E+01 -0.71075842211E+03  0.72928384812E+03  0.77840018859E+02 0.  0.
         25    2    1    2    0    0 -0.10598502617E+03 -0.69163330639E+02 -0.34019188811E+03  0.38392037019E+03  0.12509171768E+03 0.  0.
         24    2    1    2    0    0 -0.37273447881E+02  0.59399233033E+02  0.10239920740E+03  0.14813271035E+03  0.80871029407E+02 0.  0.
        -13    1    5    5    0    0  0.70596883869E+01  0.29633864005E+02  0.87564012257E+02  0.92711710903E+02  0.00000000000E+00 0.  1.
         14    1    5    5    0    0 -0.44333136268E+02  0.29765369028E+02  0.14835195144E+02  0.55420999447E+02  0.00000000000E+00 0. -1.
         13    1    3    3    0    0  0.10710114896E+03  0.40667798688E+02 -0.45975256017E+03  0.47381108318E+03  0.00000000000E+00 0. -1.
        -14    1    3    3    0    0  0.36157325092E+02 -0.30903701082E+02 -0.25100586193E+03  0.25547276494E+03  0.00000000000E+00 0.  1.
          5    1    4    4  501    0 -0.17373469190E+02 -0.81079629693E+02 -0.11713556111E+03  0.14357561025E+03  0.41800000000E+01 0.  1.
         -5    1    4    4    0  501 -0.88611556981E+02  0.11916299055E+02 -0.22305632700E+03  0.24034475993E+03  0.41800000000E+01 0.  1.
</event>
<event>
11    1  0.8864208E-009  0.1381741E+03  0.7561462E-02  0.1109615E+00
         22   -1    0    0    0    0  0.00000000000E+00  0.00000000000E+00  0.50095740112E+03  0.50095740112E+03  0.00000000000E+00 0.  1.
         22   -1    0    0    0    0 -0.00000000000E+00 -0.00000000000E+00 -0.58566777423E+02  0.58566777423E+02  0.00000000000E+00 0. -1.
         24    2    1    2    0    0 -0.10897102375E+02  0.55822160696E+02  0.12806268692E+03  0.16173467995E+03  0.80766295290E+02 0.  0.
         25    2    1    2    0    0 -0.13486694753E+02 -0.61792520905E+02  0.11737285477E+03  0.18279870724E+03  0.12505508289E+03 0.  0.
        -24    2    1    2    0    0  0.24383797127E+02  0.59703602088E+01  0.19695508201E+03  0.21499079135E+03  0.82459209748E+02 0.  0.
        -13    1    3    3    0    0  0.18891010349E+02 -0.12081800966E+02  0.45737961734E+02  0.50939192477E+02  0.00000000000E+00 0.  1.
         14    1    3    3    0    0 -0.29788112724E+02  0.67903961662E+02  0.82324725182E+02  0.11079548748E+03  0.00000000000E+00 0. -1.
         11    1    5    5    0    0  0.10928649701E+02 -0.14920428302E+02  0.21636878339E+01  0.18620851486E+02  0.00000000000E+00 0. -1.
        -12    1    5    5    0    0  0.13455147426E+02  0.20890788511E+02  0.19479139418E+03  0.19636993987E+03  0.00000000000E+00 0.  1.
          5    1    4    4  501    0  0.27590322359E+02 -0.59618348554E+02  0.12451123419E+03  0.14084066605E+03  0.41800000000E+01 0.  1.
         -5    1    4    4    0  501 -0.41077017112E+02 -0.21741723507E+01 -0.71383794190E+01  0.41958041195E+02  0.41800000000E+01 0.  1.
</event>
<event>
11    1  0.8864208E-009  0.1517494E+03  0.7561462E-02  0.1095105E+00
         22   -1    0    0    0    0  0.00000000000E+00  0.00000000000E+00  0.39404663015E+03  0.39404663015E+03  0.00000000000E+00 0. -1.
         22   -1    0    0    0    0 -0.00000000000E+00 -0.00000000000E+00 -0.71748426626E+03  0.71748426626E+03  0.00000000000E+00 0.  1.
        -24    2    1    2    0    0 -0.14843014869E+02 -0.89438155995E+02 -0.65415355916E+03  0.66520716622E+03  0.79775912338E+02 0.  0.
         25    2    1    2    0    0 -0.20516767152E+02  0.13866615327E+02  0.41242041680E+02  0.13402336801E+03  0.12509251143E+03 0.  0.
         24    2    1    2    0    0  0.35359782020E+02  0.75571540667E+02  0.28947388137E+03  0.31230036218E+03  0.82310487032E+02 0.  0.
        -11    1    5    5    0    0 -0.49553718198E+01  0.47513256486E+02  0.55506452204E+02  0.73232721430E+02  0.00000000000E+00 0.  1.
         12    1    5    5    0    0  0.40315153840E+02  0.28058284181E+02  0.23396742917E+03  0.23906764075E+03  0.00000000000E+00 0. -1.
         13    1    3    3    0    0 -0.17853698556E+02 -0.83233273340E+01 -0.30597157675E+02  0.36389811593E+02  0.00000000000E+00 0. -1.
        -14    1    3    3    0    0  0.30106836871E+01 -0.81114828661E+02 -0.62355640149E+03  0.62881735463E+03  0.00000000000E+00 0.  1.
          5    1    4    4  501    0  0.39727905032E+02  0.11707347345E+02  0.57928150339E+02  0.71333802799E+02  0.41800000000E+01 0.  1.
         -5    1    4    4    0  501 -0.60244672183E+02  0.21592679820E+01 -0.16686108659E+02  0.62689565215E+02  0.41800000000E+01 0.  1.
</event>
<event>
11    1  0.8864208E-009  0.1499114E+03  0.7561462E-02  0.1096969E+00
         22   -1    0    0    0    0  0.00000000000E+00  0.00000000000E+00  0.22922989604E+03  0.22922989604E+03  0.00000000000E+00 0.  1.
         22   -1    0    0    0    0 -0.00000000000E+00 -0.00000000000E+00 -0.90960832898E+03  0.90960832898E+03  0.00000000000E+00 0.  1.
        -24    2    1    2    0    0 -0.81238209914E+02  0.11208442840E+02 -0.80665969978E+03  0.81490772955E+03  0.81544224144E+02 0.  0.
         25    2    1    2    0    0  0.87904898891E+02 -0.56165811780E+02 -0.55492480494E+01  0.16294659312E+03  0.12505570117E+03 0.  0.
         24    2    1    2    0    0 -0.66666889769E+01  0.44957368940E+02  0.13183051489E+03  0.16098390235E+03  0.80442043691E+02 0.  0.
        -11    1    5    5    0    0 -0.36929139009E+02  0.49253035745E+02  0.82195619257E+02  0.10269246644E+03  0.00000000000E+00 0.  1.
         12    1    5    5    0    0  0.30262450032E+02 -0.42956668048E+01  0.49634895637E+02  0.58291435907E+02  0.00000000000E+00 0. -1.
         13    1    3    3    0    0 -0.57389191583E+02  0.62661362712E+00 -0.21068766769E+03  0.21836484440E+03  0.00000000000E+00 0. -1.
        -14    1    3    3    0    0 -0.23849018332E+02  0.10581829213E+02 -0.59597203210E+03  0.59654288515E+03  0.00000000000E+00 0.  1.
          5    1    4    4  501    0  0.54188036203E+02 -0.95977623563E+02 -0.76858028403E+01  0.11056487443E+03  0.41800000000E+01 0.  1.
         -5    1    4    4    0  501  0.33716862688E+02  0.39811811783E+02  0.21365547909E+01  0.52381718694E+02  0.41800000000E+01 0.  1.
</event>
<event>
11    1  0.8864208E-009  0.2044974E+03  0.7561462E-02  0.1051388E+00
         22   -1    0    0    0    0  0.00000000000E+00  0.00000000000E+00  0.20638699628E+04  0.20638699628E+04  0.00000000000E+00 0.  1.
         22   -1    0    0    0    0 -0.00000000000E+00 -0.00000000000E+00 -0.73544204401E+03  0.73544204401E+03  0.00000000000E+00 0. -1.
        -24    2    1    2    0    0  0.30732689743E+02 -0.12826333117E+03 -0.68808088263E+03  0.70539607361E+03  0.82050833535E+02 0.  0.
         25    2    1    2    0    0 -0.10887154073E+03  0.25098668019E+03  0.63808337221E+03  0.70544016730E+03  0.12509242075E+03 0.  0.
         24    2    1    2    0    0  0.78138850990E+02 -0.12272334902E+03  0.13784254292E+04  0.13884757659E+04  0.81495939544E+02 0.  0.
        -13    1    5    5    0    0  0.75703645945E+02 -0.78352663135E+02  0.11856334427E+04  0.11906287592E+04  0.00000000000E+00 0.  1.
         14    1    5    5    0    0  0.24352050448E+01 -0.44370685888E+02  0.19279198657E+03  0.19784700674E+03  0.00000000000E+00 0. -1.
         13    1    3    3    0    0  0.15499613672E+02 -0.49444583083E+02 -0.47286444155E+03  0.47569505452E+03  0.00000000000E+00 0. -1.
        -14    1    3    3    0    0  0.15233076072E+02 -0.78818748089E+02 -0.21521644108E+03  0.22970101908E+03  0.00000000000E+00 0.  1.
          5    1    4    4  501    0 -0.10582067300E+03  0.16306174461E+03  0.31161118998E+03  0.36729573032E+03  0.41800000000E+01 0. -1.
         -5    1    4    4    0  501 -0.30508677360E+01  0.87924935588E+02  0.32647218223E+03  0.33814443698E+03  0.41800000000E+01 0. -1.
</event>
<event>
11    1  0.8864208E-009  0.1276205E+03  0.7561462E-02  0.1122228E+00
         22   -1    0    0    0    0  0.00000000000E+00  0.00000000000E+00  0.40904365933E+03  0.40904365933E+03  0.00000000000E+00 0. -1.
         22   -1    0    0    0    0 -0.00000000000E+00 -0.00000000000E+00 -0.42114407241E+03  0.42114407241E+03  0.00000000000E+00 0.  1.
         24    2    1    2    0    0  0.79039069721E+01  0.22043864298E+02 -0.29301020672E+03  0.30476382970E+03  0.80483581912E+02 0.  0.
         25    2    1    2    0    0 -0.15878274495E+02 -0.33299328619E+02 -0.81767380716E+02  0.15393036064E+03  0.12509071304E+03 0.  0.
        -24    2    1    2    0    0  0.79743675228E+01  0.11255464321E+02  0.36267717436E+03  0.37149354140E+03  0.79261860212E+02 0.  0.
        -11    1    3    3    0    0  0.38577909178E+02 -0.92975831433E+01 -0.15177228337E+03  0.15687423666E+03  0.00000000000E+00 0.  1.
         12    1    3    3    0    0 -0.30674002206E+02  0.31341447442E+02 -0.14123792335E+03  0.14788959305E+03  0.00000000000E+00 0. -1.
         13    1    5    5    0    0 -0.33020912770E+02  0.15920907628E+02  0.21747550342E+03  0.22054353440E+03  0.00000000000E+00 0. -1.
        -14    1    5    5    0    0  0.40995280293E+02 -0.46654433074E+01  0.14520167094E+03  0.15095000699E+03  0.00000000000E+00 0.  1.
          5    1    4    4  501    0 -0.65211198845E+02 -0.44593772581E+02 -0.42998339357E+02  0.90041293834E+02  0.41800000000E+01 0. -1.
         -5    1    4    4    0  501  0.49332924351E+02  0.11294443962E+02 -0.38769041359E+02  0.63889066806E+02  0.41800000000E+01 0. -1.
</event>
<event>
11    1  0.8864208E-009  0.1414891E+03  0.7561462E-02  0.1105907E+00
         22   -1    0    0    0    0  0.00000000000E+00  0.00000000000E+00  0.21086972611E+03  0.21086972611E+03  0.00000000000E+00 0.  1.
         22   -1    0    0    0    0 -0.00000000000E+00 -0.00000000000E+00 -0.36519730976E+03  0.36519730976E+03  0.00000000000E+00 0.  1.
        -24    2    1    2    0    0 -0.13246038521E+02 -0.61857143573E+02 -0.25290931194E+03  0.27345529158E+03  0.82540369998E+02 0.  0.
         25    2    1    2    0    0  0.34818984571E+02  0.78270049658E+02 -0.24185899181E+02  0.15352670016E+03  0.12508767959E+03 0.  0.
         24    2    1    2    0    0 -0.21572946050E+02 -0.16412906085E+02  0.12276762747E+03  0.14908504412E+03  0.80122933908E+02 0.  0.
        -13    1    5    5    0    0 -0.28651851384E+02 -0.32777590314E+02  0.26041489547E+02  0.50729263668E+02  0.00000000000E+00 0.  1.
         14    1    5    5    0    0  0.70789053341E+01  0.16364684229E+02  0.96726137923E+02  0.98355780451E+02  0.00000000000E+00 0. -1.
         13    1    3    3    0    0 -0.98195221008E+00 -0.31863165101E+02 -0.18583426507E+02  0.36899447979E+02  0.00000000000E+00 0. -1.
        -14    1    3    3    0    0 -0.12264086311E+02 -0.29993978471E+02 -0.23432588543E+03  0.23655584360E+03  0.00000000000E+00 0.  1.
          5    1    4    4  501    0 -0.16082834659E+02  0.95462831039E+02 -0.78499700186E+01  0.97215760605E+02  0.41800000000E+01 0. -1.
         -5    1    4    4    0  501  0.50901819230E+02 -0.17192781381E+02 -0.16335929163E+02  0.56310939560E+02  0.41800000000E+01 0. -1.
</event>
<event>
11    1  0.8864208E-009  0.2501365E+03  0.7561462E-02  0.1023826E+00
         22   -1    0    0    0    0  0.00000000000E+00  0.00000000000E+00  0.70224591700E+03  0.70224591700E+03  0.00000000000E+00 0.  1.
         22   -1    0    0    0    0 -0.00000000000E+00 -0.00000000000E+00 -0.12426977250E+03  0.12426977250E+03  0.00000000000E+00 0.  1.
        -24    2    1    2    0    0  0.12430512971E+02  0.45127804047E+01  0.11622697084E+02  0.82335206292E+02  0.80430816656E+02 0.  0.
         25    2    1    2    0    0 -0.22146750105E+03  0.20592034137E+02  0.33242415277E+03  0.41907631607E+03  0.12508899015E+03 0.  0.
         24    2    1    2    0    0  0.20903698808E+03 -0.25104814542E+02  0.23392929465E+03  0.32510416713E+03  0.81505156219E+02 0.  0.
        -11    1    5    5    0    0  0.20538481703E+03 -0.51680842099E+01  0.21477333099E+03  0.29721577325E+03  0.00000000000E+00 0.  1.
         12    1    5    5    0    0  0.36521710503E+01 -0.19936730332E+02  0.19155963665E+02  0.27888393888E+02  0.00000000000E+00 0. -1.
         13    1    3    3    0    0  0.18542594980E+02  0.35980866518E+02 -0.12335090560E+02  0.42315541389E+02  0.00000000000E+00 0. -1.
        -14    1    3    3    0    0 -0.61120820088E+01 -0.31468086113E+02  0.23957787644E+02  0.40019664902E+02  0.00000000000E+00 0.  1.
          5    1    4    4  501    0 -0.62774507097E+02 -0.62208653054E+01  0.17841445717E+02  0.65689630016E+02  0.41800000000E+01 0. -1.
         -5    1    4    4    0  501 -0.15869299396E+03  0.26812899442E+02  0.31458270705E+03  0.35338668606E+03  0.41800000000E+01 0. -1.
</event>
<event>
11    1  0.8864208E-009  0.1350901E+03  0.7561462E-02  0.1113168E+00
         22   -1    0    0    0    0  0.00000000000E+00  0.00000000000E+00  0.11130168155E+03  0.11130168155E+03  0.00000000000E+00 0.  1.
         22   -1    0    0    0    0 -0.00000000000E+00 -0.00000000000E+00 -0.78292324485E+03  0.78292324485E+03  0.00000000000E+00 0. -1.
        -24    2    1    2    0    0 -0.17389835925E+02  0.34307746182E+01 -0.60566842165E+03  0.61105620525E+03  0.79001723933E+02 0.  0.
         25    2    1    2    0    0  0.12289652250E+02 -0.53808283572E+02 -0.11253728436E+03  0.17708370436E+03  0.12509049142E+03 0.  0.
         24    2    1    2    0    0  0.51001836750E+01  0.50377508954E+02  0.46584142709E+02  0.10608501679E+03  0.80746784168E+02 0.  0.
        -11    1    5    5    0    0  0.34232539787E+02  0.55712928230E+02  0.35925408063E+02  0.74608525630E+02  0.00000000000E+00 0.  1.
         12    1    5    5    0    0 -0.29132356112E+02 -0.53354192755E+01  0.10658734646E+02  0.31476491160E+02  0.00000000000E+00 0. -1.
         13    1    3    3    0    0  0.14681005735E+02 -0.10778204048E+02 -0.48629067197E+03  0.48663160528E+03  0.00000000000E+00 0. -1.
        -14    1    3    3    0    0 -0.32070841660E+02  0.14208978666E+02 -0.11937774968E+03  0.12442459998E+03  0.00000000000E+00 0.  1.
          5    1    4    4  501    0 -0.40108524195E+02 -0.66562410435E+02 -0.88620998237E+02  0.11794236696E+03  0.41800000000E+01 0. -1.
         -5    1    4    4    0  501  0.52398176445E+02  0.12754126863E+02 -0.23916286124E+02  0.59141337394E+02  0.41800000000E+01 0. -1.
</event>
<event>
11    1  0.8864208E-009  0.1782106E+03  0.7561462E-02  0.1071099E+00
         22   -1    0    0    0    0  0.00000000000E+00  0.00000000000E+00  0.68686109275E+02  0.68686109275E+02  0.00000000000E+00 0. -1.
         22   -1    0    0    0    0 -0.00000000000E+00 -0.00000000000E+00 -0.11090784763E+04  0.11090784763E+04  0.00000000000E+00 0.  1.
         24    2    1    2    0    0 -0.20452953573E+02 -0.95437106356E+01 -0.55737489964E+03  0.56369554285E+03  0.81095502718E+02 0.  0.
         25    2    1    2    0    0  0.54065534943E+02  0.12853570362E+03 -0.40796456508E+03  0.44891756052E+03  0.12508949037E+03 0.  0.
        -24    2    1    2    0    0 -0.33612581369E+02 -0.11899199299E+03 -0.75052902345E+02  0.16515148225E+03  0.79706799696E+02 0.  0.
        -13    1    3    3    0    0 -0.26632341555E+01 -0.37563333970E+02 -0.13914340219E+03  0.14414917013E+03  0.00000000000E+00 0.  1.
         14    1    3    3    0    0 -0.17789719418E+02  0.28019623335E+02 -0.41823149745E+03  0.41954637272E+03  0.00000000000E+00 0. -1.
         11    1    5    5    0    0 -0.36560427858E+02 -0.13031018503E+03 -0.70477960599E+02  0.15259276568E+03  0.00000000000E+00 0. -1.
        -12    1    5    5    0    0  0.29478464884E+01  0.11318192040E+02 -0.45749417461E+01  0.12558716573E+02  0.00000000000E+00 0.  1.
          5    1    4    4  501    0 -0.20405115675E+02  0.57427695394E+01 -0.65659852837E+01  0.22581689716E+02  0.41800000000E+01 0. -1.
         -5    1    4    4    0  501  0.74470650618E+02  0.12279293408E+03 -0.40139857980E+03  0.42633587080E+03  0.41800000000E+01 0. -1.
</event>
<event>
11    1  0.8864208E-009  0.2131064E+03  0.7561462E-02  0.1045624E+00
         22   -1    0    0    0    0  0.00000000000E+00  0.00000000000E+00  0.65494220192E+03  0.65494220192E+03  0.00000000000E+00 0. -1.
         22   -1    0    0    0    0 -0.00000000000E+00 -0.00000000000E+00 -0.14885244325E+04  0.14885244325E+04  0.00000000000E+00 0. -1.
        -24    2    1    2    0    0  0.10027523258E+03 -0.13332839173E+03 -0.12568600258E+04  0.12703990445E+04  0.79906354680E+02 0.  0.
         25    2    1    2    0    0 -0.12045715275E+03  0.21898835746E+03 -0.12989201041E+03  0.30819517927E+03  0.12508600164E+03 0.  0.
         24    2    1    2    0    0  0.20181920165E+02 -0.85659965729E+02  0.55316980558E+03  0.56487241069E+03  0.73068918967E+02 0.  0.
        -13    1    5    5    0    0 -0.23830243902E+02 -0.57132886100E+02  0.29266696137E+03  0.29914210248E+03  0.00000000000E+00 0.  1.
         14    1    5    5    0    0  0.44012164067E+02 -0.28527079629E+02  0.26050284421E+03  0.26573030820E+03  0.00000000000E+00 0. -1.
         13    1    3    3    0    0  0.87786181096E+02 -0.13713282337E+03 -0.99675019976E+03  0.10099617743E+04  0.00000000000E+00 0. -1.
        -14    1    3    3    0    0  0.12489051488E+02  0.38044316403E+01 -0.26010982603E+03  0.26043727019E+03  0.00000000000E+00 0.  1.
          5    1    4    4  501    0 -0.13140884892E+03  0.16135598575E+03 -0.13666256031E+03  0.24899431218E+03  0.41800000000E+01 0.  1.
         -5    1    4    4    0  501  0.10951696168E+02  0.57632371714E+02  0.67705498952E+01  0.59200867090E+02  0.41800000000E+01 0.  1.
</event>
<event>
11    1  0.8864208E-009  0.1690606E+03  0.7561462E-02  0.1078852E+00
         22   -1    0    0    0    0  0.00000000000E+00  0.00000000000E+00  0.40645717011E+03  0.40645717011E+03  0.00000000000E+00 0. -1.
         22   -1    0    0    0    0 -0.00000000000E+00 -0.00000000000E+00 -0.72586710586E+03  0.72586710586E+03  0.00000000000E+00 0.  1.
         24    2    1    2    0    0  0.20664018017E+02  0.22591819878E+02 -0.56036499348E+03  0.56696812073E+03  0.80663077310E+02 0.  0.
         25    2    1    2    0    0 -0.80709611364E+02  0.74808279046E+02 -0.10171463884E+03  0.19519566907E+03  0.12508061997E+03 0.  0.
        -24    2    1    2    0    0  0.60045593347E+02 -0.97400098923E+02  0.34266969656E+03  0.37016048616E+03  0.80647455153E+02 0.  0.
        -13    1    3    3    0    0  0.50744612320E+01  0.49856797388E+02 -0.42820155057E+03  0.43112413330E+03  0.00000000000E+00 0.  1.
         14    1    3    3    0    0  0.15589556785E+02 -0.27264977511E+02 -0.13216344291E+03  0.13584398743E+03  0.00000000000E+00 0. -1.
         11    1    5    5    0    0  0.13854476301E+02 -0.60633569898E+01  0.16046331942E+03  0.16117440148E+03  0.00000000000E+00 0. -1.
        -12    1    5    5    0    0  0.46191117046E+02 -0.91336741934E+02  0.18220637714E+03  0.20898608468E+03  0.00000000000E+00 0.  1.
          5    1    4    4  501    0 -0.61417381540E+02  0.83580377142E+02 -0.13860827697E+02  0.10472520777E+03  0.41800000000E+01 0.  1.
         -5    1    4    4    0  501 -0.19292229824E+02 -0.87720980959E+01 -0.87853811139E+02  0.90470461302E+02  0.41800000000E+01 0.  1.
</event>
<event>
11    1  0.8864208E-009  0.1659330E+03  0.7561462E-02  0.1081626E+00
         22   -1    0    0    0    0  0.00000000000E+00  0.00000000000E+00  0.60042349811E+03  0.60042349811E+03  0.00000000000E+00 0. -1.
         22   -1    0    0    0    0 -0.00000000000E+00 -0.00000000000E+00 -0.85873913849E+03  0.85873913849E+03  0.00000000000E+00 0.  1.
         24    2    1    2    0    0 -0.52654421870E+02 -0.21410824384E+02 -0.69231165819E+03  0.69983836000E+03  0.85131583541E+02 0.  0.
         25    2    1    2    0    0  0.25067783617E+02  0.12646292949E+03 -0.10215125299E+03  0.20664860607E+03  0.12508997398E+03 0.  0.
        -24    2    1    2    0    0  0.27586638253E+02 -0.10505210511E+03  0.53614727081E+03  0.55267567053E+03  0.78737115797E+02 0.  0.
        -13    1    3    3    0    0 -0.51480165161E+01 -0.17214116839E+02 -0.53856756687E+03  0.53886719327E+03  0.00000000000E+00 0.  1.
         14    1    3    3    0    0 -0.47506405354E+02 -0.41967075443E+01 -0.15374409132E+03  0.16097116674E+03  0.00000000000E+00 0. -1.
         11    1    5    5    0    0  0.52388809924E+01 -0.23111603698E+02  0.31324878154E+03  0.31414390211E+03  0.00000000000E+00 0. -1.
        -12    1    5    5    0    0  0.22347757261E+02 -0.81940501408E+02  0.22289848927E+03  0.23853176842E+03  0.00000000000E+00 0.  1.
          5    1    4    4  501    0 -0.21428315446E+01  0.14424488790E+03 -0.95916088015E+02  0.17328747143E+03  0.41800000000E+01 0. -1.
         -5    1    4    4    0  501  0.27210615161E+02 -0.17781958412E+02 -0.62351649783E+01  0.33361134644E+02  0.41800000000E+01 0. -1.
</event>
<event>
11    1  0.8864208E-009  0.1369169E+03  0.7561462E-02  0.1111051E+00
         22   -1    0    0    0    0  0.00000000000E+00  0.00000000000E+00  0.81841375656E+03  0.81841375656E+03  0.00000000000E+00 0.  1.
         22   -1    0    0    0    0 -0.00000000000E+00 -0.00000000000E+00 -0.12453326556E+03  0.12453326556E+03  0.00000000000E+00 0.  1.
        -24    2    1    2    0    0  0.18737050045E+02 -0.54781727899E+02 -0.63993192482E+02  0.11850797793E+03  0.81221286578E+02 0.  0.
         25    2    1    2    0    0 -0.50424428017E+02  0.25866762862E+02  0.12679249968E+03  0.18690925996E+03  0.12508805348E+03 0.  0.
         24    2    1    2    0    0  0.31687377972E+02  0.28914965037E+02  0.63108118380E+03  0.63752978422E+03  0.79627885130E+02 0.  0.
        -13    1    5    5    0    0  0.58287254557E+02  0.14423575125E+02  0.40430065467E+03  0.40873519903E+03  0.00000000000E+00 0.  1.
         14    1    5    5    0    0 -0.26599876585E+02  0.14491389912E+02  0.22678052914E+03  0.22879458519E+03  0.00000000000E+00 0. -1.
         13    1    3    3    0    0  0.46297789527E+02 -0.51698603855E+02 -0.32770354347E+02  0.76747163333E+02  0.00000000000E+00 0. -1.
        -14    1    3    3    0    0 -0.27560739482E+02 -0.30831240432E+01 -0.31222838135E+02  0.41760814598E+02  0.00000000000E+00 0.  1.
          5    1    4    4  501    0  0.31256426512E+02 -0.83235602925E+01  0.80601633677E+02  0.86950224874E+02  0.41800000000E+01 0. -1.
         -5    1    4    4    0  501 -0.81680854529E+02  0.34190323154E+02  0.46190866004E+02  0.99959035090E+02  0.41800000000E+01 0. -1.
</event>
<event>
11    1  0.8864208E-009  0.4674763E+03  0.7561462E-02  0.9469285E-01
         22   -1    0    0    0    0  0.00000000000E+00  0.00000000000E+00  0.29600597450E+04  0.29600597450E+04  0.00000000000E+00 0. -1.
         22   -1    0    0    0    0 -0.00000000000E+00 -0.00000000000E+00 -0.13319824126E+03  0.13319824126E+03  0.00000000000E+00 0. -1.
        -24    2    1    2    0    0 -0.82634471032E+02 -0.43712757714E+03  0.42259163662E+03  0.61879290296E+03  0.80074908179E+02 0.  0.
         25    2    1    2    0    0  0.50404615961E+02  0.47159770712E+03  0.20920478680E+04  0.21487802923E+04  0.12508972825E+03 0.  0.
         24    2    1    2    0    0  0.32229855071E+02 -0.34470129981E+02  0.31222199919E+03  0.32568479102E+03  0.79756209167E+02 0.  0.
        -11    1    5    5    0    0  0.58260704300E+02 -0.31825621899E+02  0.21631378140E+03  0.22627158880E+03  0.00000000000E+00 0.  1.
         12    1    5    5    0    0 -0.26030849229E+02 -0.26445080816E+01  0.95908217791E+02  0.99413202214E+02  0.00000000000E+00 0. -1.
         11    1    3    3    0    0 -0.50770032847E+02 -0.37693736677E+03  0.38417147811E+03  0.54059883398E+03  0.00000000000E+00 0. -1.
        -12    1    3    3    0    0 -0.31864438185E+02 -0.60190210368E+02  0.38420158512E+02  0.78194068989E+02  0.00000000000E+00 0.  1.
          5    1    4    4  501    0  0.11276899267E+02  0.10399969916E+02  0.19436183939E+02  0.25111062849E+02  0.41800000000E+01 0. -1.
         -5    1    4    4    0  501  0.39127716694E+02  0.46119773720E+03  0.20726116840E+04  0.21236692295E+04  0.41800000000E+01 0. -1.
</event>
<event>
11    1  0.8864208E-009  0.1373212E+03  0.7561462E-02  0.1110587E+00
         22   -1    0    0    0    0  0.00000000000E+00  0.00000000000E+00  0.17915961412E+03  0.17915961412E+03  0.00000000000E+00 0.  1.
         22   -1    0    0    0    0 -0.00000000000E+00 -0.00000000000E+00 -0.21275223024E+04  0.21275223024E+04  0.00000000000E+00 0.  1.
        -24    2    1    2    0    0 -0.20921632490E+02  0.52964378836E+02 -0.10147058406E+04  0.10194910369E+04  0.80567308658E+02 0.  0.
         25    2    1    2    0    0 -0.29748141992E+02 -0.78125867911E+02 -0.10908201317E+04  0.11011476395E+04  0.12509580748E+03 0.  0.
         24    2    1    2    0    0  0.50669774482E+02  0.25161489074E+02  0.15716328408E+03  0.18604324007E+03  0.81922296925E+02 0.  0.
        -11    1    5    5    0    0  0.41667466758E+02  0.25218794605E+02  0.27232994948E+02  0.55801446229E+02  0.00000000000E+00 0.  1.
         12    1    5    5    0    0  0.90023077231E+01 -0.57305530742E-01  0.12993028913E+03  0.13024179384E+03  0.00000000000E+00 0. -1.
         13    1    3    3    0    0  0.20645744396E+02  0.16875600886E+02 -0.11288230888E+03  0.11598900088E+03  0.00000000000E+00 0. -1.
        -14    1    3    3    0    0 -0.41567376886E+02  0.36088777950E+02 -0.90182353176E+03  0.90350203605E+03  0.00000000000E+00 0.  1.
          5    1    4    4  501    0  0.18100473992E+02 -0.95885667894E+02 -0.63636277925E+03  0.64381421830E+03  0.41800000000E+01 0.  1.
         -5    1    4    4    0  501 -0.47848615984E+02  0.17759799984E+02 -0.45445735243E+03  0.45733342117E+03  0.41800000000E+01 0.  1.
</event>
<event>
11    1  0.8864208E-009  0.1425379E+03  0.7561462E-02  0.1104757E+00
         22   -1    0    0    0    0  0.00000000000E+00  0.00000000000E+00  0.47808086533E+03  0.47808086533E+03  0.00000000000E+00 0.  1.
         22   -1    0    0    0    0 -0.00000000000E+00 -0.00000000000E+00 -0.91503450693E+03  0.91503450693E+03  0.00000000000E+00 0.  1.
         24    2    1    2    0    0 -0.54424087454E+02 -0.42091287587E+02 -0.76349826744E+03  0.77063674676E+03  0.78852604813E+02 0.  0.
         25    2    1    2    0    0  0.60189704497E+02  0.26514487808E+02 -0.10949479372E+03  0.17877301792E+03  0.12507942873E+03 0.  0.
        -24    2    1    2    0    0 -0.57656170438E+01  0.15576799780E+02  0.43603941957E+03  0.44370560757E+03  0.80426436826E+02 0.  0.
        -11    1    3    3    0    0 -0.11164082215E+02  0.17170545548E+02 -0.35579513073E+03  0.35638411779E+03  0.00000000000E+00 0.  1.
         12    1    3    3    0    0 -0.43260005238E+02 -0.59261833135E+02 -0.40770313672E+03  0.41425262897E+03  0.00000000000E+00 0. -1.
         13    1    5    5    0    0  0.23773042626E+02 -0.19016834517E+02  0.98011670949E+02  0.10263081990E+03  0.00000000000E+00 0. -1.
        -14    1    5    5    0    0 -0.29538659670E+02  0.34593634297E+02  0.33802774862E+03  0.34107478767E+03  0.00000000000E+00 0.  1.
          5    1    4    4  501    0 -0.28801310497E+02 -0.19046138974E+02 -0.68965122219E+01  0.35458499362E+02  0.41800000000E+01 0. -1.
         -5    1    4    4    0  501  0.88991014995E+02  0.45560626782E+02 -0.10259828150E+03  0.14331451856E+03  0.41800000000E+01 0. -1.
</event>
<event>
11    1  0.8864208E-009  0.1459215E+03  0.7561462E-02  0.1101121E+00
         22   -1    0    0    0    0  0.00000000000E+00  0.00000000000E+00  0.27092309538E+03  0.27092309538E+03  0.00000000000E+00 0. -1.
         22   -1    0    0    0    0 -0.00000000000E+00 -0.00000000000E+00 -0.19481811869E+04  0.19481811869E+04  0.00000000000E+00 0. -1.
         24    2    1    2    0    0  0.73617227706E+02 -0.15391610799E+02 -0.18462920328E+04  0.18493564641E+04  0.75290523049E+02 0.  0.
         25    2    1    2    0    0 -0.77514861848E+02 -0.18768781711E+02 -0.30846363303E+02  0.15152596021E+03  0.12509115682E+03 0.  0.
        -24    2    1    2    0    0  0.38976341419E+01  0.34160392510E+02  0.19988030460E+03  0.21822185801E+03  0.80538929567E+02 0.  0.
        -13    1    3    3    0    0  0.59455197709E+02 -0.26552548213E+01 -0.60540369780E+03  0.60832196099E+03  0.00000000000E+00 0.  1.
         14    1    3    3    0    0  0.14162029997E+02 -0.12736355978E+02 -0.12408883350E+04  0.12410345031E+04  0.00000000000E+00 0. -1.
         13    1    5    5    0    0  0.12344171817E+02  0.52180138662E+02  0.18695325596E+03  0.19449078478E+03  0.00000000000E+00 0. -1.
        -14    1    5    5    0    0 -0.84465376747E+01 -0.18019746152E+02  0.12927048640E+02  0.23731073230E+02  0.00000000000E+00 0.  1.
          5    1    4    4  501    0  0.14749965004E+02 -0.66787229405E+01  0.34094930952E+02  0.37975038175E+02  0.41800000000E+01 0. -1.
         -5    1    4    4    0  501 -0.92264826852E+02 -0.12090058770E+02 -0.64941294255E+02  0.11355092203E+03  0.41800000000E+01 0. -1.
</event>
<event>
11    1  0.8864208E-009  0.1393803E+03  0.7561462E-02  0.1108252E+00
         22   -1    0    0    0    0  0.00000000000E+00  0.00000000000E+00  0.22877022558E+04  0.22877022558E+04  0.00000000000E+00 0.  1.
         22   -1    0    0    0    0 -0.00000000000E+00 -0.00000000000E+00 -0.34775920738E+03  0.34775920738E+03  0.00000000000E+00 0. -1.
         24    2    1    2    0    0 -0.48319132330E+02 -0.15495197394E+02 -0.32865060578E+03  0.34100120855E+03  0.75470284599E+02 0.  0.
         25    2    1    2    0    0  0.62992808025E+01 -0.35489029483E+02  0.35648988917E+03  0.37951809295E+03  0.12509911927E+03 0.  0.
        -24    2    1    2    0    0  0.42019851528E+02  0.50984226877E+02  0.19121037651E+04  0.19149421617E+04  0.80607785467E+02 0.  0.
        -13    1    3    3    0    0  0.73484821171E+01  0.31048541839E+01 -0.89003968766E+00  0.80269844633E+01  0.00000000000E+00 0.  1.
         14    1    3    3    0    0 -0.55667614447E+02 -0.18600051578E+02 -0.32776056609E+03  0.33297422408E+03  0.00000000000E+00 0. -1.
         11    1    5    5    0    0  0.38766954678E+02 -0.11524224200E+02  0.89602140944E+03  0.89693369359E+03  0.00000000000E+00 0. -1.
        -12    1    5    5    0    0  0.32528968498E+01  0.62508451077E+02  0.10160823556E+04  0.10180084681E+04  0.00000000000E+00 0.  1.
          5    1    4    4  501    0 -0.22153796059E+02 -0.59833987440E+02  0.90133435207E+02  0.11050975195E+03  0.41800000000E+01 0. -1.
         -5    1    4    4    0  501  0.28453076862E+02  0.24344957957E+02  0.26635645396E+03  0.26900834100E+03  0.41800000000E+01 0. -1.
</event>
<event>
11    1  0.8864208E-009  0.1283975E+03  0.7561462E-02  0.1121254E+00
         22   -1    0    0    0    0  0.00000000000E+00  0.00000000000E+00  0.10409281403E+04  0.10409281403E+04  0.00000000000E+00 0. -1.
         22   -1    0    0    0    0 -0.00000000000E+00 -0.00000000000E+00 -0.14720991711E+04  0.14720991711E+04  0.00000000000E+00 0. -1.
         24    2    1    2    0    0  0.20813668941E+02  0.20125854501E+02 -0.14589533819E+04  0.14615325715E+04  0.81818261752E+02 0.  0.
         25    2    1    2    0    0 -0.15720804128E+02 -0.23362901162E+02  0.44207968624E+03  0.46029914506E+03  0.12509150697E+03 0.  0.
        -24    2    1    2    0    0 -0.50928648127E+01  0.32370466614E+01  0.58570266483E+03  0.59119559489E+03  0.80176081767E+02 0.  0.
        -11    1    3    3    0    0  0.47978368115E+02  0.24488106827E+02 -0.11791670369E+04  0.11803967520E+04  0.00000000000E+00 0.  1.
         12    1    3    3    0    0 -0.27164699174E+02 -0.43622523266E+01 -0.27978634504E+03  0.28113581948E+03  0.00000000000E+00 0. -1.
         13    1    5    5    0    0  0.16203494724E+02  0.18531171146E+01  0.54494211164E+03  0.54518610797E+03  0.00000000000E+00 0. -1.
        -14    1    5    5    0    0 -0.21296359537E+02  0.13839295469E+01  0.40760553191E+02  0.46009486924E+02  0.00000000000E+00 0.  1.
          5    1    4    4  501    0  0.27848235937E+02 -0.14869071831E+02  0.39182615042E+03  0.39311807144E+03  0.41800000000E+01 0.  1.
         -5    1    4    4    0  501 -0.43569040065E+02 -0.84938293309E+01  0.50253535824E+02  0.67181073613E+02  0.41800000000E+01 0.  1.
</event>
<event>
11    1  0.8864208E-009  0.1859958E+03  0.7561462E-02  0.1064894E+00
         22   -1    0    0    0    0  0.00000000000E+00  0.00000000000E+00  0.66164414324E+02  0.66164414324E+02  0.00000000000E+00 0.  1.
         22   -1    0    0    0    0 -0.00000000000E+00 -0.00000000000E+00 -0.14083137146E+04  0.14083137146E+04  0.00000000000E+00 0.  1.
         24    2    1    2    0    0 -0.12994124562E+03  0.61516908664E+02 -0.91151984363E+03  0.92631166252E+03  0.80720588634E+02 0.  0.
         25    2    1    2    0    0  0.93258232479E+02 -0.86210246370E+02 -0.42175551779E+03  0.45788022877E+03  0.12508909868E+03 0.  0.
        -24    2    1    2    0    0  0.36683013138E+02  0.24693337706E+02 -0.88739388552E+01  0.90286237629E+02  0.78214151753E+02 0.  0.
        -11    1    3    3    0    0 -0.12711291421E+03  0.75119872471E+02 -0.76383288298E+03  0.77797259676E+03  0.00000000000E+00 0.  1.
         12    1    3    3    0    0 -0.28283314031E+01 -0.13602963807E+02 -0.14768696065E+03  0.14833906576E+03  0.00000000000E+00 0. -1.
         11    1    5    5    0    0  0.55428869579E+02 -0.23584075321E+01 -0.13373180754E+02  0.57068061403E+02  0.00000000000E+00 0. -1.
        -12    1    5    5    0    0 -0.18745856441E+02  0.27051745238E+02  0.44992418983E+01  0.33218176226E+02  0.00000000000E+00 0.  1.
          5    1    4    4  501    0 -0.10752348845E+02  0.22066181597E+02 -0.95817189518E+02  0.98999674661E+02  0.41800000000E+01 0.  1.
         -5    1    4    4    0  501  0.10401058132E+03 -0.10827642797E+03 -0.32593832827E+03  0.35888055410E+03  0.41800000000E+01 0.  1.
</event>
<event>
11    1  0.8864208E-009  0.1931440E+03  0.7561462E-02  0.1059481E+00
         22   -1    0    0    0    0  0.00000000000E+00  0.00000000000E+00  0.26142493870E+03  0.26142493870E+03  0.00000000000E+00 0. -1.
         22   -1    0    0    0    0 -0.00000000000E+00 -0.00000000000E+00 -0.22973582470E+03  0.22973582470E+03  0.00000000000E+00 0. -1.
        -24    2    1    2    0    0  0.13525666415E+02  0.25631043784E+01 -0.52331861443E+02  0.94159575370E+02  0.77057697577E+02 0.  0.
         25    2    1    2    0    0 -0.14896942889E+03 -0.48699523472E+02 -0.18042901008E+02  0.20133726441E+03  0.12509042103E+03 0.  0.
         24    2    1    2    0    0  0.13544376248E+03  0.46136419093E+02  0.10206387645E+03  0.19566392361E+03  0.85986941844E+02 0.  0.
        -11    1    5    5    0    0 -0.42808988953E+01 -0.12651279693E+02  0.83257440167E+00  0.13381859114E+02  0.00000000000E+00 0.  1.
         12    1    5    5    0    0  0.13972466137E+03  0.58787698786E+02  0.10123130205E+03  0.18228206450E+03  0.00000000000E+00 0. -1.
         13    1    3    3    0    0  0.44657046331E+02  0.10768799518E+02 -0.33579987801E+02  0.56901971941E+02  0.00000000000E+00 0. -1.
        -14    1    3    3    0    0 -0.31131379916E+02 -0.82056951399E+01 -0.18751873642E+02  0.37257603429E+02  0.00000000000E+00 0.  1.
          5    1    4    4  501    0 -0.78306622744E+02 -0.56426622362E+02 -0.64639333931E+02  0.11623943723E+03  0.41800000000E+01 0. -1.
         -5    1    4    4    0  501 -0.70662806149E+02  0.77270988897E+01  0.46596432922E+02  0.85097827182E+02  0.41800000000E+01 0. -1.
</event>
<event>
11    1  0.8864208E-009  0.1376310E+03  0.7561462E-02  0.1110233E+00
         22   -1    0    0    0    0  0.00000000000E+00  0.00000000000E+00  0.14287910113E+04  0.14287910113E+04  0.00000000000E+00 0.  1.
         22   -1    0    0    0    0 -0.00000000000E+00 -0.00000000000E+00 -0.69387606899E+02  0.69387606899E+02  0.00000000000E+00 0. -1.
        -24    2    1    2    0    0  0.35463145847E+02 -0.41731516295E+01 -0.18783159563E+02  0.90219256718E+02  0.80694840552E+02 0.  0.
         25    2    1    2    0    0 -0.42128402690E+02 -0.52557384683E+02  0.39004153674E+03  0.41511118171E+03  0.12509121391E+03 0.  0.
         24    2    1    2    0    0  0.66652568424E+01  0.56730536313E+02  0.98814502722E+03  0.99284817977E+03  0.77808314844E+02 0.  0.
        -13    1    5    5    0    0  0.18007139990E+01  0.27058534452E+02  0.88486039825E+03  0.88527585037E+03  0.00000000000E+00 0.  1.
         14    1    5    5    0    0  0.48645428434E+01  0.29672001861E+02  0.10328462896E+03  0.10757232940E+03  0.00000000000E+00 0. -1.
         11    1    3    3    0    0  0.28876316468E+02  0.36679190904E+02 -0.70767908760E+01  0.47215311788E+02  0.00000000000E+00 0. -1.
        -12    1    3    3    0    0  0.65868293789E+01 -0.40852342533E+02 -0.11706368687E+02  0.43003944930E+02  0.00000000000E+00 0.  1.
          5    1    4    4  501    0 -0.53583080752E+02 -0.32105828637E+02  0.68925279571E+02  0.93113357470E+02  0.41800000000E+01 0. -1.
         -5    1    4    4    0  501  0.11454678063E+02 -0.20451556046E+02  0.32111625717E+03  0.32199782424E+03  0.41800000000E+01 0. -1.
</event>
<event>
11    1  0.8864208E-009  0.1280383E+03  0.7561462E-02  0.1121703E+00
         22   -1    0    0    0    0  0.00000000000E+00  0.00000000000E+00  0.30198193407E+04  0.30198193407E+04  0.00000000000E+00 0.  1.
         22   -1    0    0    0    0 -0.00000000000E+00 -0.00000000000E+00 -0.74771084911E+03  0.74771084911E+03  0.00000000000E+00 0. -1.
         24    2    1    2    0    0  0.74371589656E+01  0.19714887470E+02 -0.48629862598E+03  0.49345697381E+03  0.81052102049E+02 0.  0.
         25    2    1    2    0    0 -0.61891388056E+00  0.68068292316E+01 -0.24195748559E+03  0.27246433740E+03  0.12508666731E+03 0.  0.
        -24    2    1    2    0    0 -0.68182450851E+01 -0.26521716701E+02  0.30003646032E+04  0.30016088786E+04  0.81964738324E+02 0.  0.
        -11    1    3    3    0    0 -0.11760228417E+02  0.11836815699E+02 -0.17429340346E+02  0.24128719054E+02  0.00000000000E+00 0.  1.
         12    1    3    3    0    0  0.19197387383E+02  0.78780717703E+01 -0.46886928564E+03  0.46932825475E+03  0.00000000000E+00 0. -1.
         13    1    5    5    0    0  0.21884599158E+02  0.20496511737E+02  0.13237951346E+04  0.13241346612E+04  0.00000000000E+00 0. -1.
        -14    1    5    5    0    0 -0.28702844243E+02 -0.47018228438E+02  0.16765694686E+04  0.16774742174E+04  0.00000000000E+00 0.  1.
          5    1    4    4  501    0 -0.29850404614E+02  0.54797851610E+02 -0.83769763224E+02  0.10454040763E+03  0.41800000000E+01 0.  1.
         -5    1    4    4    0  501  0.29231490733E+02 -0.47991022378E+02 -0.15818772237E+03  0.16792392977E+03  0.41800000000E+01 0.  1.
</event>
<event>
11    1  0.8864208E-009  0.1408801E+03  0.7561462E-02  0.1106580E+00
         22   -1    0    0    0    0  0.00000000000E+00  0.00000000000E+00  0.23925818049E+04  0.23925818049E+04  0.00000000000E+00 0.  1.
         22   -1    0    0    0    0 -0.00000000000E+00 -0.00000000000E+00 -0.38090515136E+02  0.38090515136E+02  0.00000000000E+00 0. -1.
         24    2    1    2    0    0 -0.49614838697E+02  0.62745928947E+02  0.11409616888E+03  0.16065978363E+03  0.79968409405E+02 0.  0.
         25    2    1    2    0    0 -0.11475517943E+01 -0.37412176477E+02  0.30113469068E+03  0.32822439549E+03  0.12509262184E+03 0.  0.
        -24    2    1    2    0    0  0.50762390492E+02 -0.25333752470E+02  0.19392604302E+04  0.19417881409E+04  0.81188353709E+02 0.  0.
        -13    1    3    3    0    0 -0.66123425869E+00 -0.10854991115E+02 -0.53044743506E+01  0.12099814503E+02  0.00000000000E+00 0.  1.
         14    1    3    3    0    0 -0.48953604439E+02  0.73600920063E+02  0.11940064323E+03  0.14855996912E+03  0.00000000000E+00 0. -1.
         11    1    5    5    0    0  0.77809063466E+01  0.26997590582E+02  0.81976599209E+03  0.82024733720E+03  0.00000000000E+00 0. -1.
        -12    1    5    5    0    0  0.42981484145E+02 -0.52331343053E+02  0.11194944381E+04  0.11215408037E+04  0.00000000000E+00 0.  1.
          5    1    4    4  501    0  0.30143378636E+01 -0.37930262631E+02  0.13591281706E+02  0.40620024550E+02  0.41800000000E+01 0. -1.
         -5    1    4    4    0  501 -0.41618896579E+01  0.51808615394E+00  0.28754340897E+03  0.28760437094E+03  0.41800000000E+01 0. -1.
</event>
<event>
11    1  0.8864208E-009  0.1594666E+03  0.7561462E-02  0.1087580E+00
         22   -1    0    0    0    0  0.00000000000E+00  0.00000000000E+00  0.24336799842E+03  0.24336799842E+03  0.00000000000E+00 0.  1.
         22   -1    0    0    0    0 -0.00000000000E+00 -0.00000000000E+00 -0.63860015291E+03  0.63860015291E+03  0.00000000000E+00 0. -1.
        -24    2    1    2    0    0  0.72079065507E+02 -0.74097830787E+02 -0.46731096952E+03  0.48515526974E+03  0.79436851117E+02 0.  0.
         25    2    1    2    0    0  0.11111251174E+02  0.10765890916E+03 -0.95114883275E+02  0.19081092075E+03  0.12509222931E+03 0.  0.
         24    2    1    2    0    0 -0.83190316681E+02 -0.33561078371E+02  0.16719369829E+03  0.20600196084E+03  0.80225309896E+02 0.  0.
        -13    1    5    5    0    0  0.97765892624E+01 -0.20919978207E+02  0.55623636913E+02  0.60226374366E+02  0.00000000000E+00 0.  1.
         14    1    5    5    0    0 -0.92966905943E+02 -0.12641100164E+02  0.11157006138E+03  0.14577558647E+03  0.00000000000E+00 0. -1.
         13    1    3    3    0    0  0.42573143043E+02 -0.20806030544E+02 -0.34782356620E+03  0.35103646052E+03  0.00000000000E+00 0. -1.
        -14    1    3    3    0    0  0.29505922464E+02 -0.53291800243E+02 -0.11948740332E+03  0.13411880922E+03  0.00000000000E+00 0.  1.
          5    1    4    4  501    0  0.67129346230E+02  0.60351834882E+02 -0.39177792511E+02  0.98493984206E+02  0.41800000000E+01 0.  1.
         -5    1    4    4    0  501 -0.56018095056E+02  0.47307074276E+02 -0.55937090764E+02  0.92316936547E+02  0.41800000000E+01 0.  1.
</event>
<event>
11    1  0.8864208E-009  0.1302353E+03  0.7561462E-02  0.1118980E+00
         22   -1    0    0    0    0  0.00000000000E+00  0.00000000000E+00  0.26555679257E+03  0.26555679257E+03  0.00000000000E+00 0. -1.
         22   -1    0    0    0    0 -0.00000000000E+00 -0.00000000000E+00 -0.96234321400E+03  0.96234321400E+03  0.00000000000E+00 0. -1.
         24    2    1    2    0    0 -0.24925913064E+02 -0.92772247621E+01 -0.78852585387E+03  0.79300790969E+03  0.79882129210E+02 0.  0.
         25    2    1    2    0    0 -0.86128827150E+01 -0.75078570954E+01 -0.13930147749E+03  0.18757028039E+03  0.12508860375E+03 0.  0.
        -24    2    1    2    0    0  0.33538795779E+02  0.16785081857E+02  0.23104090993E+03  0.24732181649E+03  0.79884848704E+02 0.  0.
        -13    1    3    3    0    0 -0.28419473236E+02  0.74210368736E+01 -0.98861911227E+02  0.10313300024E+03  0.00000000000E+00 0.  1.
         14    1    3    3    0    0  0.34935601716E+01 -0.16698261636E+02 -0.68966394264E+03  0.68987490945E+03  0.00000000000E+00 0. -1.
         11    1    5    5    0    0 -0.41879833243E+01 -0.96948099858E+01  0.17245402996E+03  0.17277708469E+03  0.00000000000E+00 0. -1.
        -12    1    5    5    0    0  0.37726779103E+02  0.26479891843E+02  0.58586879973E+02  0.74544731796E+02  0.00000000000E+00 0.  1.
          5    1    4    4  501    0 -0.61431517134E+02 -0.29234412832E+02 -0.80721563195E+02  0.10565001351E+03  0.41800000000E+01 0.  1.
         -5    1    4    4    0  501  0.52818634419E+02  0.21726555736E+02 -0.58579914293E+02  0.81920266873E+02  0.41800000000E+01 0.  1.
</event>
<event>
11    1  0.8864208E-009  0.1294368E+03  0.7561462E-02  0.1119963E+00
         22   -1    0    0    0    0  0.00000000000E+00  0.00000000000E+00  0.32304034798E+03  0.32304034798E+03  0.00000000000E+00 0.  1.
         22   -1    0    0    0    0 -0.00000000000E+00 -0.00000000000E+00 -0.12687477064E+04  0.12687477064E+04  0.00000000000E+00 0.  1.
         24    2    1    2    0    0  0.15120130893E+02  0.39812838119E+02 -0.11822327664E+04  0.11857771455E+04  0.81113774537E+02 0.  0.
         25    2    1    2    0    0 -0.39486883277E+02 -0.14406189891E+02 -0.15344596114E+02  0.13285253052E+03  0.12509031128E+03 0.  0.
        -24    2    1    2    0    0  0.24366752384E+02 -0.25406648228E+02  0.25187000402E+03  0.27315837844E+03  0.99688336287E+02 0.  0.
        -11    1    3    3    0    0  0.68068063074E+01  0.16636391828E+02 -0.10946917655E+04  0.10948393323E+04  0.00000000000E+00 0.  1.
         12    1    3    3    0    0  0.83133245854E+01  0.23176446291E+02 -0.87541000896E+02  0.90937813182E+02  0.00000000000E+00 0. -1.
         13    1    5    5    0    0 -0.26567569129E+02 -0.43022705006E+02  0.10098599410E+03  0.11293785849E+03  0.00000000000E+00 0. -1.
        -14    1    5    5    0    0  0.50934321514E+02  0.17616056778E+02  0.15088400992E+03  0.16022051995E+03  0.00000000000E+00 0.  1.
          5    1    4    4  501    0  0.23116463795E+02  0.16461763429E+02 -0.47812699763E+02  0.55757396031E+02  0.41800000000E+01 0.  1.
         -5    1    4    4    0  501 -0.62603347072E+02 -0.30867953320E+02  0.32468103648E+02  0.77095134485E+02  0.41800000000E+01 0.  1.
</event>
<event>
11    1  0.8864208E-009  0.1855047E+03  0.7561462E-02  0.1065275E+00
         22   -1    0    0    0    0  0.00000000000E+00  0.00000000000E+00  0.20496560464E+03  0.20496560464E+03  0.00000000000E+00 0. -1.
         22   -1    0    0    0    0 -0.00000000000E+00 -0.00000000000E+00 -0.27084112890E+04  0.27084112890E+04  0.00000000000E+00 0. -1.
         24    2    1    2    0    0  0.11096438727E+03 -0.78637979988E+02 -0.23539146691E+04  0.23592535699E+04  0.81646254335E+02 0.  0.
         25    2    1    2    0    0 -0.12223274862E+03  0.81692247289E+02 -0.31533014742E+03  0.36972284242E+03  0.12508960882E+03 0.  0.
        -24    2    1    2    0    0  0.11268361355E+02 -0.30542673003E+01  0.16579913209E+03  0.18440048133E+03  0.79861635330E+02 0.  0.
        -11    1    3    3    0    0  0.41273074186E+02  0.13145336555E+02 -0.67465631110E+03  0.67604541610E+03  0.00000000000E+00 0.  1.
         12    1    3    3    0    0  0.69691313084E+02 -0.91783316544E+02 -0.16792583580E+04  0.16832081538E+04  0.00000000000E+00 0. -1.
         11    1    5    5    0    0  0.12066196016E+01  0.17715137464E+02  0.15948998050E+03  0.16047534360E+03  0.00000000000E+00 0. -1.
        -12    1    5    5    0    0  0.10061741753E+02 -0.20769404764E+02  0.63091515891E+01  0.23925137724E+02  0.00000000000E+00 0.  1.
          5    1    4    4  501    0 -0.61944264185E+02  0.10996749573E+03 -0.20323257150E+03  0.23927158732E+03  0.41800000000E+01 0. -1.
         -5    1    4    4    0  501 -0.60288484439E+02 -0.28275248437E+02 -0.11209757592E+03  0.13045125510E+03  0.41800000000E+01 0. -1.
</event>
<event>
11    1  0.8864208E-009  0.1477957E+03  0.7561462E-02  0.1099153E+00
         22   -1    0    0    0    0  0.00000000000E+00  0.00000000000E+00  0.54758056946E+03  0.54758056946E+03  0.00000000000E+00 0.  1.
         22   -1    0    0    0    0 -0.00000000000E+00 -0.00000000000E+00 -0.10402173518E+04  0.10402173518E+04  0.00000000000E+00 0.  1.
         24    2    1    2    0    0 -0.18197149740E+02  0.23150662712E+02 -0.82356413177E+03  0.82773699276E+03  0.77611600912E+02 0.  0.
         25    2    1    2    0    0  0.95254113742E+02 -0.90579339911E+01 -0.17890745461E+03  0.23834898171E+03  0.12508783879E+03 0.  0.
        -24    2    1    2    0    0 -0.77056964002E+02 -0.14092728721E+02  0.50983480409E+03  0.52171194674E+03  0.78201324870E+02 0.  0.
        -13    1    3    3    0    0 -0.25460645893E+01  0.37331985308E+02 -0.75652098216E+03  0.75744581062E+03  0.00000000000E+00 0.  1.
         14    1    3    3    0    0 -0.15651085151E+02 -0.14181322596E+02 -0.67043149613E+02  0.70291182143E+02  0.00000000000E+00 0. -1.
         11    1    5    5    0    0 -0.68292938589E+02  0.11876773241E+02  0.22188409625E+03  0.23245975000E+03  0.00000000000E+00 0. -1.
        -12    1    5    5    0    0 -0.87640254128E+01 -0.25969501961E+02  0.28795070784E+03  0.28925219674E+03  0.00000000000E+00 0.  1.
          5    1    4    4  501    0  0.99518796167E+02  0.24049420680E+02 -0.17716313629E+03  0.20466219653E+03  0.41800000000E+01 0. -1.
         -5    1    4    4    0  501 -0.42646824247E+01 -0.33107354671E+02 -0.17443183196E+01  0.33686785182E+02  0.41800000000E+01 0. -1.
</event>
<event>
11    1  0.8864208E-009  0.1523685E+03  0.7561462E-02  0.1094483E+00
         22   -1    0    0    0    0  0.00000000000E+00  0.00000000000E+00  0.22195918383E+03  0.22195918383E+03  0.00000000000E+00 0. -1.
         22   -1    0    0    0    0 -0.00000000000E+00 -0.00000000000E+00 -0.19872477871E+03  0.19872477871E+03  0.00000000000E+00 0.  1.
         24    2    1    2    0    0 -0.57193906163E+02 -0.64407183816E+02 -0.51520642442E+02  0.12906698092E+03  0.81144813366E+02 0.  0.
         25    2    1    2    0    0  0.10723215385E+03  0.11147929418E+02  0.11523846437E+02  0.16553971936E+03  0.12509032137E+03 0.  0.
        -24    2    1    2    0    0 -0.50038247682E+02  0.53259254398E+02  0.63231201124E+02  0.12607726227E+03  0.80974791486E+02 0.  0.
        -11    1    3    3    0    0 -0.74585642230E+02 -0.61992276568E+02 -0.54512991076E+02  0.11125523168E+03  0.00000000000E+00 0.  1.
         12    1    3    3    0    0  0.17391736066E+02 -0.24149072478E+01  0.29923486341E+01  0.17811749234E+02  0.00000000000E+00 0. -1.
         11    1    5    5    0    0 -0.68639023555E+02  0.50768377813E+02  0.35204730109E+02  0.92347803236E+02  0.00000000000E+00 0. -1.
        -12    1    5    5    0    0  0.18600775873E+02  0.24908765843E+01  0.28026471015E+02  0.33729459035E+02  0.00000000000E+00 0.  1.
          5    1    4    4  501    0  0.18322848682E+02  0.56832582195E+02 -0.15643333775E+02  0.61869665220E+02  0.41800000000E+01 0. -1.
         -5    1    4    4    0  501  0.88909305164E+02 -0.45684652778E+02  0.27167180212E+02  0.10367005414E+03  0.41800000000E+01 0. -1.
</event>
<event>
11    1  0.8864208E-009  0.1353395E+03  0.7561462E-02  0.1112877E+00
         22   -1    0    0    0    0  0.00000000000E+00  0.00000000000E+00  0.25639351358E+03  0.25639351358E+03  0.00000000000E+00 0.  1.
         22   -1    0    0    0    0 -0.00000000000E+00 -0.00000000000E+00 -0.50234064758E+03  0.50234064758E+03  0.00000000000E+00 0. -1.
         24    2    1    2    0    0 -0.53800367321E+02 -0.17138125809E+02 -0.36663619647E+03  0.38139419287E+03  0.88607194487E+02 0.  0.
         25    2    1    2    0    0  0.35823971285E+02 -0.35769232140E+02 -0.77885452766E+02  0.15580481931E+03  0.12508478357E+03 0.  0.
        -24    2    1    2    0    0  0.17976396036E+02  0.52907357948E+02  0.19857451524E+03  0.22153514898E+03  0.80769083151E+02 0.  0.
        -11    1    3    3    0    0 -0.14052572476E+02  0.13612917923E+02 -0.11447320288E+02  0.22667762778E+02  0.00000000000E+00 0.  1.
         12    1    3    3    0    0 -0.39747794845E+02 -0.30751043731E+02 -0.35518887618E+03  0.35872643009E+03  0.00000000000E+00 0. -1.
         13    1    5    5    0    0 -0.19678423458E+02 -0.18494823731E+01  0.10452015055E+03  0.10637256604E+03  0.00000000000E+00 0. -1.
        -14    1    5    5    0    0  0.37654819494E+02  0.54756840322E+02  0.94054364686E+02  0.11516258294E+03  0.00000000000E+00 0.  1.
          5    1    4    4  501    0  0.54558758195E+02  0.32161464350E+02 -0.45769460106E+02  0.78251733293E+02  0.41800000000E+01 0. -1.
         -5    1    4    4    0  501 -0.18734786910E+02 -0.67930696490E+02 -0.32115992660E+02  0.77553086017E+02  0.41800000000E+01 0. -1.
</event>
<event>
11    1  0.8864208E-009  0.1550597E+03  0.7561462E-02  0.1091818E+00
         22   -1    0    0    0    0  0.00000000000E+00  0.00000000000E+00  0.70695064706E+03  0.70695064706E+03  0.00000000000E+00 0. -1.
         22   -1    0    0    0    0 -0.00000000000E+00 -0.00000000000E+00 -0.20257618652E+03  0.20257618652E+03  0.00000000000E+00 0.  1.
         24    2    1    2    0    0 -0.66047286549E+02 -0.61951694241E+02 -0.14306340172E+03  0.18545200806E+03  0.75664085952E+02 0.  0.
         25    2    1    2    0    0  0.10717674351E+03  0.33675310392E+02  0.17770867969E+03  0.24463809162E+03  0.12508613094E+03 0.  0.
        -24    2    1    2    0    0 -0.41129456961E+02  0.28276383849E+02  0.46972918257E+03  0.47943673390E+03  0.81993235950E+02 0.  0.
        -13    1    3    3    0    0 -0.77942274984E+02 -0.64183250005E+02 -0.10568717038E+03  0.14616520035E+03  0.00000000000E+00 0.  1.
         14    1    3    3    0    0  0.11894988435E+02  0.22315557642E+01 -0.37376231334E+02  0.39286807706E+02  0.00000000000E+00 0. -1.
         11    1    5    5    0    0 -0.40283521729E+02 -0.21512067328E+01  0.41379171885E+03  0.41575350438E+03  0.00000000000E+00 0. -1.
        -12    1    5    5    0    0 -0.84593523171E+00  0.30427590582E+02  0.55937463720E+02  0.63683229523E+02  0.00000000000E+00 0.  1.
          5    1    4    4  501    0  0.97990026338E+02  0.23883087524E+02  0.19665097510E+03  0.22104643299E+03  0.41800000000E+01 0. -1.
         -5    1    4    4    0  501  0.91867171718E+01  0.97922228687E+01 -0.18942295412E+02  0.23591658623E+02  0.41800000000E+01 0. -1.
</event>
<event>
11    1  0.8864208E-009  0.1423792E+03  0.7561462E-02  0.1104930E+00
         22   -1    0    0    0    0  0.00000000000E+00  0.00000000000E+00  0.42957631624E+04  0.42957631624E+04  0.00000000000E+00 0. -1.
         22   -1    0    0    0    0 -0.00000000000E+00 -0.00000000000E+00 -0.11881473125E+03  0.11881473125E+03  0.00000000000E+00 0.  1.
         24    2    1    2    0    0  0.56364624265E+02  0.37518450171E+02 -0.88064765077E+02  0.14077815367E+03  0.86478209579E+02 0.  0.
         25    2    1    2    0    0 -0.73005337703E+02 -0.42890562017E+02  0.15113870815E+04  0.15189168722E+04  0.12509266444E+03 0.  0.
        -24    2    1    2    0    0  0.16640713438E+02  0.53721118459E+01  0.27536261148E+04  0.27548828679E+04  0.81345330770E+02 0.  0.
        -11    1    3    3    0    0  0.16942093792E+02  0.44652289681E+01 -0.87595359404E+02  0.89330396848E+02  0.00000000000E+00 0.  1.
         12    1    3    3    0    0  0.39422530473E+02  0.33053221203E+02 -0.46940567306E+00  0.51447756827E+02  0.00000000000E+00 0. -1.
         11    1    5    5    0    0  0.49581976064E+02  0.48544009117E+00  0.17631130520E+04  0.17638101491E+04  0.00000000000E+00 0. -1.
        -12    1    5    5    0    0 -0.32941262626E+02  0.48866717547E+01  0.99051306273E+03  0.99107271872E+03  0.00000000000E+00 0.  1.
          5    1    4    4  501    0 -0.48451904976E+02  0.24927443192E+02  0.27253847092E+03  0.27796340596E+03  0.41800000000E+01 0. -1.
         -5    1    4    4    0  501 -0.24553432727E+02 -0.67818005209E+02  0.12388486106E+04  0.12409534662E+04  0.41800000000E+01 0. -1.
</event>
<event>
11    1  0.8864208E-009  0.1340101E+03  0.7561462E-02  0.1114438E+00
         22   -1    0    0    0    0  0.00000000000E+00  0.00000000000E+00  0.54264780530E+03  0.54264780530E+03  0.00000000000E+00 0. -1.
         22   -1    0    0    0    0 -0.00000000000E+00 -0.00000000000E+00 -0.13923178401E+04  0.13923178401E+04  0.00000000000E+00 0. -1.
        -24    2    1    2    0    0  0.15734045869E+02  0.15548871140E+02 -0.11790672242E+04  0.11819841734E+04  0.79985869076E+02 0.  0.
         25    2    1    2    0    0 -0.53203099278E+02 -0.44941701549E+02 -0.18285350453E+03  0.23223780461E+03  0.12509463401E+03 0.  0.
         24    2    1    2    0    0  0.37469053409E+02  0.29392830409E+02  0.51225069400E+03  0.52074366738E+03  0.80655596013E+02 0.  0.
        -11    1    5    5    0    0  0.48055968410E+02  0.65933565720E+00  0.15739342686E+03  0.16456762027E+03  0.00000000000E+00 0.  1.
         12    1    5    5    0    0 -0.10586915001E+02  0.28733494752E+02  0.35485726714E+03  0.35617604711E+03  0.00000000000E+00 0. -1.
         13    1    3    3    0    0 -0.15507650009E+02 -0.26057515863E+02 -0.36606626082E+03  0.36732000851E+03  0.00000000000E+00 0. -1.
        -14    1    3    3    0    0  0.31241695878E+02  0.41606387002E+02 -0.81300096343E+03  0.81466416488E+03  0.00000000000E+00 0.  1.
          5    1    4    4  501    0  0.16153963803E+02 -0.67900340583E+02 -0.85553767144E+02  0.11049129500E+03  0.41800000000E+01 0.  1.
         -5    1    4    4    0  501 -0.69357063082E+02  0.22958639034E+02 -0.97299737390E+02  0.12174650961E+03  0.41800000000E+01 0.  1.
</event>
<event>
11    1  0.8864208E-009  0.1406495E+03  0.7561462E-02  0.1106835E+00
         22   -1    0    0    0    0  0.00000000000E+00  0.00000000000E+00  0.99918099824E+03  0.99918099824E+03  0.00000000000E+00 0. -1.
         22   -1    0    0    0    0 -0.00000000000E+00 -0.00000000000E+00 -0.24805541867E+04  0.24805541867E+04  0.00000000000E+00 0.  1.
        -24    2    1    2    0    0 -0.47361162979E+02 -0.42834523697E+02 -0.23621557041E+04  0.23644054933E+04  0.80968451764E+02 0.  0.
         25    2    1    2    0    0  0.72819471751E+02  0.44708698634E+02 -0.65681910634E+02  0.16511458807E+03  0.12508865100E+03 0.  0.
         24    2    1    2    0    0 -0.25458308771E+02 -0.18741749369E+01  0.94646442631E+03  0.95021510353E+03  0.80387776933E+02 0.  0.
        -13    1    5    5    0    0 -0.11956396764E+02  0.34458589716E+02  0.24710190412E+03  0.24977930428E+03  0.00000000000E+00 0.  1.
         14    1    5    5    0    0 -0.13501912007E+02 -0.36332764653E+02  0.69936252220E+03  0.70043579925E+03  0.00000000000E+00 0. -1.
         11    1    3    3    0    0  0.86846855811E+01 -0.20506411649E+01 -0.32050335661E+02  0.33269398985E+02  0.00000000000E+00 0. -1.
        -12    1    3    3    0    0 -0.56045848561E+02 -0.40783882532E+02 -0.23301053685E+04  0.23311360944E+04  0.00000000000E+00 0.  1.
          5    1    4    4  501    0  0.55472909615E+02  0.55840579281E+02 -0.98488233813E+02  0.12614602092E+03  0.41800000000E+01 0. -1.
         -5    1    4    4    0  501  0.17346562136E+02 -0.11131880647E+02  0.32806323179E+02  0.38968567143E+02  0.41800000000E+01 0. -1.
</event>
<event>
11    1  0.8864208E-009  0.1350197E+03  0.7561462E-02  0.1113251E+00
         22   -1    0    0    0    0  0.00000000000E+00  0.00000000000E+00  0.79138326023E+03  0.79138326023E+03  0.00000000000E+00 0.  1.
         22   -1    0    0    0    0 -0.00000000000E+00 -0.00000000000E+00 -0.92929058642E+03  0.92929058642E+03  0.00000000000E+00 0. -1.
         24    2    1    2    0    0  0.34261995040E+01  0.50387484124E+02 -0.87217208064E+03  0.87727925123E+03  0.79900619550E+02 0.  0.
         25    2    1    2    0    0 -0.30366020916E+02 -0.60919412209E+02  0.45650595881E+02  0.14954805507E+03  0.12508946343E+03 0.  0.
        -24    2    1    2    0    0  0.26939821412E+02  0.10531928085E+02  0.68861415856E+03  0.69384654034E+03  0.79980539427E+02 0.  0.
        -13    1    3    3    0    0  0.28747433376E+02  0.95434148705E+01 -0.12711960594E+03  0.13067855948E+03  0.00000000000E+00 0.  1.
         14    1    3    3    0    0 -0.25321233872E+02  0.40844069253E+02 -0.74505247470E+03  0.74660069176E+03  0.00000000000E+00 0. -1.
         11    1    5    5    0    0 -0.25204354916E+02  0.12476168676E+02  0.14274131739E+03  0.14548538752E+03  0.00000000000E+00 0. -1.
        -12    1    5    5    0    0  0.52144176328E+02 -0.19442405902E+01  0.54587284117E+03  0.54836115282E+03  0.00000000000E+00 0.  1.
          5    1    4    4  501    0 -0.62317641529E+00  0.18560052033E+02  0.60385439860E+02  0.63314592531E+02  0.41800000000E+01 0.  1.
         -5    1    4    4    0  501 -0.29742844501E+02 -0.79479464242E+02 -0.14734843979E+02  0.86233462544E+02  0.41800000000E+01 0.  1.
</event>
<event>
11    1  0.8864208E-009  0.1445734E+03  0.7561462E-02  0.1102556E+00
         22   -1    0    0    0    0  0.00000000000E+00  0.00000000000E+00  0.14429299188E+03  0.14429299188E+03  0.00000000000E+00 0.  1.
         22   -1    0    0    0    0 -0.00000000000E+00 -0.00000000000E+00 -0.41626197415E+03  0.41626197415E+03  0.00000000000E+00 0. -1.
        -24    2    1    2    0    0  0.13787079123E+02  0.97860364906E+01 -0.29746414219E+03  0.30876133824E+03  0.81011098242E+02 0.  0.
         25    2    1    2    0    0  0.12374205067E+01 -0.78178139106E+02 -0.10893512387E+01  0.14751874746E+03  0.12508893446E+03 0.  0.
         24    2    1    2    0    0 -0.15024499629E+02  0.68392102615E+02  0.26584511162E+02  0.10427488032E+03  0.72548598496E+02 0.  0.
        -11    1    5    5    0    0 -0.30767914685E+02  0.63427994155E+02  0.41688142550E+02  0.81900404431E+02  0.00000000000E+00 0.  1.
         12    1    5    5    0    0  0.15743415056E+02  0.49641084599E+01 -0.15103631387E+02  0.22374475894E+02  0.00000000000E+00 0. -1.
         11    1    3    3    0    0  0.41980446594E+02 -0.14639954892E+02 -0.18520544571E+03  0.19046717118E+03  0.00000000000E+00 0. -1.
        -12    1    3    3    0    0 -0.28193367471E+02  0.24425991383E+02 -0.11225869648E+03  0.11829416706E+03  0.00000000000E+00 0.  1.
          5    1    4    4  501    0 -0.24960393056E+02 -0.29033476385E+02  0.55797578607E+02  0.67799750375E+02  0.41800000000E+01 0.  1.
         -5    1    4    4    0  501  0.26197813563E+02 -0.49144662721E+02 -0.56886929845E+02  0.79718997087E+02  0.41800000000E+01 0.  1.
</event>
<event>
11    1  0.8864208E-009  0.1269512E+03  0.7561462E-02  0.1123073E+00
         22   -1    0    0    0    0  0.00000000000E+00  0.00000000000E+00  0.28164522296E+03  0.28164522296E+03  0.00000000000E+00 0.  1.
         22   -1    0    0    0    0 -0.00000000000E+00 -0.00000000000E+00 -0.69214957086E+03  0.69214957086E+03  0.00000000000E+00 0. -1.
        -24    2    1    2    0    0  0.52042469575E+01  0.21854250130E+02 -0.41502791020E+03  0.42606779822E+03  0.93706509871E+02 0.  0.
         25    2    1    2    0    0 -0.41662604041E+02  0.50555197644E+00 -0.24695373248E+03  0.27994463907E+03  0.12508727675E+03 0.  0.
         24    2    1    2    0    0  0.36458357083E+02 -0.22359802106E+02  0.25147729478E+03  0.26778235652E+03  0.81470167077E+02 0.  0.
        -13    1    5    5    0    0  0.39673631680E+02 -0.17421970821E+02  0.25644219013E+03  0.26007714047E+03  0.00000000000E+00 0.  1.
         14    1    5    5    0    0 -0.32152745962E+01 -0.49378312847E+01 -0.49648953504E+01  0.77052160492E+01  0.00000000000E+00 0. -1.
         13    1    3    3    0    0 -0.32801234823E+02  0.50531508032E+01 -0.32749644283E+03  0.32917377691E+03  0.00000000000E+00 0. -1.
        -14    1    3    3    0    0  0.38005481780E+02  0.16801099327E+02 -0.87531467374E+02  0.96894021304E+02  0.00000000000E+00 0.  1.
          5    1    4    4  501    0 -0.51442427246E+02 -0.59736799069E+01 -0.25807186430E+03  0.26325000991E+03  0.41800000000E+01 0.  1.
         -5    1    4    4    0  501  0.97798232046E+01  0.64792318834E+01  0.11118131825E+02  0.16694629166E+02  0.41800000000E+01 0.  1.
</event>
<event>
11    1  0.8864208E-009  0.2746063E+03  0.7561462E-02  0.1011551E+00
         22   -1    0    0    0    0  0.00000000000E+00  0.00000000000E+00  0.11870351412E+04  0.11870351412E+04  0.00000000000E+00 0.  1.
         22   -1    0    0    0    0 -0.00000000000E+00 -0.00000000000E+00 -0.29804078125E+03  0.29804078125E+03  0.00000000000E+00 0. -1.
         24    2    1    2    0    0 -0.30443915246E+02 -0.22324837842E+03 -0.12098369032E+03  0.26812029936E+03  0.80528076848E+02 0.  0.
         25    2    1    2    0    0 -0.50997112782E+02  0.34753905867E+03  0.27569518039E+03  0.46372233956E+03  0.12508586212E+03 0.  0.
        -24    2    1    2    0    0  0.81441028028E+02 -0.12429068025E+03  0.73428286990E+03  0.75323328356E+03  0.78155180146E+02 0.  0.
        -11    1    3    3    0    0  0.22634709473E+02 -0.10793818348E+03 -0.38862591899E+02  0.11693281222E+03  0.00000000000E+00 0.  1.
         12    1    3    3    0    0 -0.53078624719E+02 -0.11531019494E+03 -0.82121098423E+02  0.15118748713E+03  0.00000000000E+00 0. -1.
         11    1    5    5    0    0  0.28900415514E+01 -0.56097333658E+02  0.15922107540E+03  0.16883901811E+03  0.00000000000E+00 0. -1.
        -12    1    5    5    0    0  0.78550986476E+02 -0.68193346593E+02  0.57506179450E+03  0.58439426545E+03  0.00000000000E+00 0.  1.
          5    1    4    4  501    0 -0.75655101762E+02  0.22722882789E+03  0.12797317559E+03  0.27157179662E+03  0.41800000000E+01 0. -1.
         -5    1    4    4    0  501  0.24657988980E+02  0.12031023078E+03  0.14772200480E+03  0.19215054294E+03  0.41800000000E+01 0. -1.
</event>
<event>
11    1  0.8864208E-009  0.3204505E+03  0.7561462E-02  0.9918893E-01
         22   -1    0    0    0    0  0.00000000000E+00  0.00000000000E+00  0.12091124364E+04  0.12091124364E+04  0.00000000000E+00 0. -1.
         22   -1    0    0    0    0 -0.00000000000E+00 -0.00000000000E+00 -0.13443879531E+03  0.13443879531E+03  0.00000000000E+00 0. -1.
        -24    2    1    2    0    0 -0.34990801013E-02  0.84935585879E+02  0.43767455834E+02  0.12401033192E+03  0.79050101027E+02 0.  0.
         25    2    1    2    0    0  0.12445347040E+03  0.21325761373E+03  0.25780180468E+03  0.37825508409E+03  0.12509061528E+03 0.  0.
         24    2    1    2    0    0 -0.12444997132E+03 -0.29819319961E+03  0.77310438060E+03  0.84128581574E+03  0.75262612243E+02 0.  0.
        -13    1    5    5    0    0 -0.49094247149E+01 -0.22246155436E+02  0.19838415168E+02  0.30208551754E+02  0.00000000000E+00 0.  1.
         14    1    5    5    0    0 -0.11954054660E+03 -0.27594704417E+03  0.75326596543E+03  0.81107726398E+03  0.00000000000E+00 0. -1.
         11    1    3    3    0    0  0.33111045484E+02  0.72584469937E+02  0.23050983689E+02  0.83043328800E+02  0.00000000000E+00 0. -1.
        -12    1    3    3    0    0 -0.33114544564E+02  0.12351115941E+02  0.20716472145E+02  0.40967003122E+02  0.00000000000E+00 0.  1.
          5    1    4    4  501    0  0.55586133440E+01  0.12551915431E+03  0.89875739148E+02  0.15453503541E+03  0.41800000000E+01 0. -1.
         -5    1    4    4    0  501  0.11889485706E+03  0.87738459419E+02  0.16792606553E+03  0.22372004868E+03  0.41800000000E+01 0. -1.
</event>
<event>
11    1  0.8864208E-009  0.1682827E+03  0.7561462E-02  0.1079536E+00
         22   -1    0    0    0    0  0.00000000000E+00  0.00000000000E+00  0.40319865464E+03  0.40319865464E+03  0.00000000000E+00 0.  1.
         22   -1    0    0    0    0 -0.00000000000E+00 -0.00000000000E+00 -0.37192636074E+03  0.37192636074E+03  0.00000000000E+00 0. -1.
         24    2    1    2    0    0  0.23072678945E+02  0.85551072379E+02 -0.27342690235E+03  0.29887194337E+03  0.81919674723E+02 0.  0.
         25    2    1    2    0    0 -0.89554749245E+02 -0.15427393070E+03  0.10852613593E+03  0.24340589788E+03  0.12509200669E+03 0.  0.
        -24    2    1    2    0    0  0.66482070301E+02  0.68722858325E+02  0.19617306031E+03  0.23284717413E+03  0.81186451947E+02 0.  0.
        -11    1    3    3    0    0  0.21866712739E+02  0.30415228768E+02 -0.26560712113E+02  0.45920700071E+02  0.00000000000E+00 0.  1.
         12    1    3    3    0    0  0.12059662052E+01  0.55135843611E+02 -0.24686619023E+03  0.25295124330E+03  0.00000000000E+00 0. -1.
         11    1    5    5    0    0 -0.93646255466E+01 -0.11268148747E+02  0.16616419233E+02  0.22153391973E+02  0.00000000000E+00 0. -1.
        -12    1    5    5    0    0  0.75846695847E+02  0.79991007071E+02  0.17955664108E+03  0.21069378215E+03  0.00000000000E+00 0.  1.
          5    1    4    4  501    0 -0.78775511298E+02 -0.16732767691E+03  0.12180282171E+03  0.22148935057E+03  0.41800000000E+01 0. -1.
         -5    1    4    4    0  501 -0.10779237947E+02  0.13053746210E+02 -0.13276685777E+02  0.21916547311E+02  0.41800000000E+01 0. -1.
</event>
<event>
11    1  0.8864208E-009  0.1389672E+03  0.7561462E-02  0.1108717E+00
         22   -1    0    0    0    0  0.00000000000E+00  0.00000000000E+00  0.31886650737E+03  0.31886650737E+03  0.00000000000E+00 0. -1.
         22   -1    0    0    0    0 -0.00000000000E+00 -0.00000000000E+00 -0.86305342254E+03  0.86305342254E+03  0.00000000000E+00 0. -1.
         24    2    1    2    0    0 -0.38842306418E+02 -0.41067708652E+02 -0.70577807229E+03  0.71162326386E+03  0.71342139573E+02 0.  0.
         25    2    1    2    0    0  0.83417330245E+02  0.37504289562E+00 -0.10484071040E+03  0.18329486645E+03  0.12508733695E+03 0.  0.
        -24    2    1    2    0    0 -0.44575023827E+02  0.40692665757E+02  0.26643186753E+03  0.28700179960E+03  0.87984471036E+02 0.  0.
        -13    1    3    3    0    0 -0.50643477866E+02 -0.58115864226E+01 -0.31711568930E+03  0.32118670083E+03  0.00000000000E+00 0.  1.
         14    1    3    3    0    0  0.11801171447E+02 -0.35256122230E+02 -0.38866238299E+03  0.39043656303E+03  0.00000000000E+00 0. -1.
         11    1    5    5    0    0 -0.54097944759E+02  0.52670560393E+02  0.25939311112E+03  0.27015840105E+03  0.00000000000E+00 0. -1.
        -12    1    5    5    0    0  0.95229209323E+01 -0.11977894636E+02  0.70387564041E+01  0.16843398550E+02  0.00000000000E+00 0.  1.
          5    1    4    4  501    0  0.16665515778E+02 -0.37572487305E+02 -0.97687622403E+02  0.10606495740E+03  0.41800000000E+01 0.  1.
         -5    1    4    4    0  501  0.66751814468E+02  0.37947530201E+02 -0.71530879998E+01  0.77229909044E+02  0.41800000000E+01 0.  1.
</event>
<event>
11    1  0.8864208E-009  0.1340442E+03  0.7561462E-02  0.1114397E+00
         22   -1    0    0    0    0  0.00000000000E+00  0.00000000000E+00  0.38560263849E+03  0.38560263849E+03  0.00000000000E+00 0. -1.
         22   -1    0    0    0    0 -0.00000000000E+00 -0.00000000000E+00 -0.15015005525E+04  0.15015005525E+04  0.00000000000E+00 0. -1.
         24    2    1    2    0    0  0.12629658242E+02 -0.34091219008E+01 -0.13668706061E+04  0.13694718598E+04  0.83347410059E+02 0.  0.
         25    2    1    2    0    0  0.11304208059E+02 -0.38887088629E+02 -0.93072242811E+02  0.16108988910E+03  0.12509004440E+03 0.  0.
        -24    2    1    2    0    0 -0.23933866301E+02  0.42296210530E+02  0.34404493491E+03  0.35654144201E+03  0.79956758639E+02 0.  0.
        -11    1    3    3    0    0  0.12041969371E+02 -0.11184039741E+02 -0.51091814333E+02  0.53669966118E+02  0.00000000000E+00 0.  1.
         12    1    3    3    0    0  0.58768887065E+00  0.77749178401E+01 -0.13157787917E+04  0.13158018937E+04  0.00000000000E+00 0. -1.
         11    1    5    5    0    0 -0.40638150896E+02  0.45606716301E+02  0.32621817071E+03  0.33188812389E+03  0.00000000000E+00 0. -1.
        -12    1    5    5    0    0  0.16704284595E+02 -0.33105057716E+01  0.17826764198E+02  0.24653318114E+02  0.00000000000E+00 0.  1.
          5    1    4    4  501    0  0.36328743179E+02 -0.71977033538E+02 -0.31358243813E+02  0.86609946270E+02  0.41800000000E+01 0.  1.
         -5    1    4    4    0  501 -0.25024535120E+02  0.33089944909E+02 -0.61713998998E+02  0.74479942833E+02  0.41800000000E+01 0.  1.
</event>
<event>
11    1  0.8864208E-009  0.1387448E+03  0.7561462E-02  0.1108968E+00
         22   -1    0    0    0    0  0.00000000000E+00  0.00000000000E+00  0.11164946117E+04  0.11164946117E+04  0.00000000000E+00 0. -1.
         22   -1    0    0    0    0 -0.00000000000E+00 -0.00000000000E+00 -0.59847406226E+03  0.59847406226E+03  0.00000000000E+00 0. -1.
         24    2    1    2    0    0  0.50231559464E+02 -0.71200121657E+02 -0.42807216634E+03  0.44481131861E+03  0.83777459229E+02 0.  0.
         25    2    1    2    0    0 -0.91525585730E+02  0.11208269008E+03 -0.10067258785E+03  0.21615136744E+03  0.12508789487E+03 0.  0.
        -24    2    1    2    0    0  0.41294026266E+02 -0.40882568422E+02  0.10467653036E+04  0.10540059879E+04  0.10878621544E+03 0.  0.
        -13    1    3    3    0    0 -0.19073541739E+02  0.23813018744E+00 -0.10626562526E+03  0.10796406723E+03  0.00000000000E+00 0.  1.
         14    1    3    3    0    0  0.69305101203E+02 -0.71438251844E+02 -0.32180654109E+03  0.33684725138E+03  0.00000000000E+00 0. -1.
         11    1    5    5    0    0  0.68060962390E+02  0.64533935416E+01  0.53143141122E+03  0.53581086749E+03  0.00000000000E+00 0. -1.
        -12    1    5    5    0    0 -0.26766936124E+02 -0.47335961964E+02  0.51533389241E+03  0.51819512042E+03  0.00000000000E+00 0.  1.
          5    1    4    4  501    0 -0.11893042938E+03  0.10824828114E+03 -0.97187415794E+02  0.18794947084E+03  0.41800000000E+01 0. -1.
         -5    1    4    4    0  501  0.27404843649E+02  0.38344089432E+01 -0.34851720557E+01  0.28201896596E+02  0.41800000000E+01 0. -1.
</event>
<event>
11    1  0.8864208E-009  0.1772220E+03  0.7561462E-02  0.1071912E+00
         22   -1    0    0    0    0  0.00000000000E+00  0.00000000000E+00  0.10530625418E+04  0.10530625418E+04  0.00000000000E+00 0.  1.
         22   -1    0    0    0    0 -0.00000000000E+00 -0.00000000000E+00 -0.35732580092E+03  0.35732580092E+03  0.00000000000E+00 0. -1.
        -24    2    1    2    0    0 -0.54563911487E+02  0.10571898846E+03 -0.22750368699E+03  0.26853596789E+03  0.78739529451E+02 0.  0.
         25    2    1    2    0    0  0.10480348218E+03 -0.12092047916E+03 -0.10349293497E+02  0.20336466158E+03  0.12507815776E+03 0.  0.
         24    2    1    2    0    0 -0.50239570693E+02  0.15201490695E+02  0.93358972138E+03  0.93848771325E+03  0.80089451707E+02 0.  0.
        -13    1    5    5    0    0 -0.54511803130E+01 -0.26357275010E+02  0.48629503531E+03  0.48703930302E+03  0.00000000000E+00 0.  1.
         14    1    5    5    0    0 -0.44788390380E+02  0.41558765706E+02  0.44729468607E+03  0.45144841024E+03  0.00000000000E+00 0. -1.
         13    1    3    3    0    0 -0.19943714765E+02  0.10165121462E+03 -0.19533338882E+03  0.22110145630E+03  0.00000000000E+00 0. -1.
        -14    1    3    3    0    0 -0.34620196723E+02  0.40677738441E+01 -0.32170298177E+02  0.47434511592E+02  0.00000000000E+00 0.  1.
          5    1    4    4  501    0  0.56292834104E+02 -0.13592268392E+03  0.12129741158E+02  0.14767688443E+03  0.41800000000E+01 0. -1.
         -5    1    4    4    0  501  0.48510648077E+02  0.15002204764E+02 -0.22479034654E+02  0.55687777147E+02  0.41800000000E+01 0. -1.
</event>
<event>
11    1  0.8864208E-009  0.1424265E+03  0.7561462E-02  0.1104879E+00
         22   -1    0    0    0    0  0.00000000000E+00  0.00000000000E+00  0.63362255624E+03  0.63362255624E+03  0.00000000000E+00 0. -1.
         22   -1    0    0    0    0 -0.00000000000E+00 -0.00000000000E+00 -0.14070141107E+04  0.14070141107E+04  0.00000000000E+00 0. -1.
         24    2    1    2    0    0  0.65400894291E+02  0.14951641811E+02 -0.12715287722E+04  0.12755678336E+04  0.76072668186E+02 0.  0.
         25    2    1    2    0    0 -0.96986364817E+02  0.11987262303E+02 -0.81322440624E+02  0.17835981175E+03  0.12509529839E+03 0.  0.
        -24    2    1    2    0    0  0.31585470526E+02 -0.26938904114E+02  0.57945965836E+03  0.58670902166E+03  0.82040440796E+02 0.  0.
        -11    1    3    3    0    0  0.28643687598E+02  0.43622519502E+01 -0.12164455360E+03  0.12504754097E+03  0.00000000000E+00 0.  1.
         12    1    3    3    0    0  0.36757206694E+02  0.10589389861E+02 -0.11498842186E+04  0.11505202926E+04  0.00000000000E+00 0. -1.
         11    1    5    5    0    0  0.45957773526E+02 -0.11426288840E+02  0.16371179484E+03  0.17042367439E+03  0.00000000000E+00 0. -1.
        -12    1    5    5    0    0 -0.14372303000E+02 -0.15512615274E+02  0.41574786353E+03  0.41628534727E+03  0.00000000000E+00 0.  1.
          5    1    4    4  501    0 -0.34326650441E+02  0.31176452157E+02  0.25412571130E+02  0.53043013404E+02  0.41800000000E+01 0. -1.
         -5    1    4    4    0  501 -0.62659714376E+02 -0.19189189854E+02 -0.10673501175E+03  0.12531679834E+03  0.41800000000E+01 0. -1.
</event>
<event>
11    1  0.8864208E-009  0.1531571E+03  0.7561462E-02  0.1093696E+00
         22   -1    0    0    0    0  0.00000000000E+00  0.00000000000E+00  0.86726677628E+03  0.86726677628E+03  0.00000000000E+00 0.  1.
         22   -1    0    0    0    0 -0.00000000000E+00 -0.00000000000E+00 -0.21771058288E+03  0.21771058288E+03  0.00000000000E+00 0.  1.
         24    2    1    2    0    0  0.80289293797E+01 -0.69998991127E+02 -0.51093291230E+02  0.11812431011E+03  0.79865548052E+02 0.  0.
         25    2    1    2    0    0  0.80029924981E+02  0.77717143579E+02 -0.73420683897E+02  0.18298652970E+03  0.12509488371E+03 0.  0.
        -24    2    1    2    0    0 -0.88058854361E+02 -0.77181524512E+01  0.77407016852E+03  0.78386651934E+03  0.86302738316E+02 0.  0.
        -13    1    3    3    0    0  0.10207290305E+02 -0.64676214395E+02 -0.71483451019E+02  0.96938564325E+02  0.00000000000E+00 0.  1.
         14    1    3    3    0    0 -0.21783609253E+01 -0.53227767326E+01  0.20390159789E+02  0.21185745790E+02  0.00000000000E+00 0. -1.
         13    1    5    5    0    0 -0.58014497965E+02 -0.25964726554E+02  0.22879365087E+03  0.23745817248E+03  0.00000000000E+00 0. -1.
        -14    1    5    5    0    0 -0.30044356396E+02  0.18246574103E+02  0.54527651765E+03  0.54640834686E+03  0.00000000000E+00 0.  1.
          5    1    4    4  501    0 -0.21544623126E+02  0.59134990567E+02 -0.17388169709E+02  0.65428883077E+02  0.41800000000E+01 0. -1.
         -5    1    4    4    0  501  0.10157454811E+03  0.18582153012E+02 -0.56032514188E+02  0.11755764662E+03  0.41800000000E+01 0. -1.
</event>
<event>
11    1  0.8864208E-009  0.1446263E+03  0.7561462E-02  0.1102500E+00
         22   -1    0    0    0    0  0.00000000000E+00  0.00000000000E+00  0.31768849820E+03  0.31768849820E+03  0.00000000000E+00 0.  1.
         22   -1    0    0    0    0 -0.00000000000E+00 -0.00000000000E+00 -0.99292064130E+03  0.99292064130E+03  0.00000000000E+00 0. -1.
         24    2    1    2    0    0 -0.13157987909E+02  0.33621163426E+02 -0.75518368839E+03  0.76029151926E+03  0.80232635291E+02 0.  0.
         25    2    1    2    0    0 -0.28940183119E+02  0.27368162747E+02 -0.20583331399E+03  0.24413553480E+03  0.12509298812E+03 0.  0.
        -24    2    1    2    0    0  0.42098171028E+02 -0.60989326173E+02  0.28578485929E+03  0.30618208544E+03  0.81132790747E+02 0.  0.
        -11    1    3    3    0    0 -0.31582673809E+01  0.32071523094E+02 -0.10072959914E+03  0.10575920475E+03  0.00000000000E+00 0.  1.
         12    1    3    3    0    0 -0.99997205279E+01  0.15496403320E+01 -0.65445408926E+03  0.65453231451E+03  0.00000000000E+00 0. -1.
         11    1    5    5    0    0 -0.16063504825E+02 -0.11991987006E+02  0.14308562282E+03  0.14448300730E+03  0.00000000000E+00 0. -1.
        -12    1    5    5    0    0  0.58161675853E+02 -0.48997339167E+02  0.14269923646E+03  0.16169907814E+03  0.00000000000E+00 0.  1.
          5    1    4    4  501    0  0.21259779870E+02 -0.12327530910E+02 -0.16765361209E+03  0.16949676193E+03  0.41800000000E+01 0. -1.
         -5    1    4    4    0  501 -0.50199962989E+02  0.39695693657E+02 -0.38179701899E+02  0.74638772874E+02  0.41800000000E+01 0. -1.
</event>
<event>
11    1  0.8864208E-009  0.1464051E+03  0.7561462E-02  0.1100610E+00
         22   -1    0    0    0    0  0.00000000000E+00  0.00000000000E+00  0.10319483366E+04  0.10319483366E+04  0.00000000000E+00 0. -1.
         22   -1    0    0    0    0 -0.00000000000E+00 -0.00000000000E+00 -0.23556349550E+03  0.23556349550E+03  0.00000000000E+00 0.  1.
         24    2    1    2    0    0  0.18501549574E+02 -0.74270076035E+02 -0.20020681570E+03  0.22957150258E+03  0.82231102494E+02 0.  0.
         25    2    1    2    0    0  0.31498362279E+02  0.75091266951E+02  0.30277552303E+03  0.33756619167E+03  0.12508825372E+03 0.  0.
        -24    2    1    2    0    0 -0.49999911853E+02 -0.82119091648E+00  0.69381613373E+03  0.70037413780E+03  0.81501165286E+02 0.  0.
        -11    1    3    3    0    0 -0.28540954448E+02 -0.71697454683E+01 -0.40437785211E+02  0.50012056583E+02  0.00000000000E+00 0.  1.
         12    1    3    3    0    0  0.47042504021E+02 -0.67100330566E+02 -0.15976903048E+03  0.17955944600E+03  0.00000000000E+00 0. -1.
         13    1    5    5    0    0 -0.56851982587E+02 -0.24815299430E+02  0.60332416998E+03  0.60650474119E+03  0.00000000000E+00 0. -1.
        -14    1    5    5    0    0  0.68520707339E+01  0.23994108514E+02  0.90491963751E+02  0.93869396612E+02  0.00000000000E+00 0.  1.
          5    1    4    4  501    0  0.69786766981E+02  0.41699572686E+02  0.25508977897E+03  0.26776354296E+03  0.41800000000E+01 0.  1.
         -5    1    4    4    0  501 -0.38288404702E+02  0.33391694265E+02  0.47685744060E+02  0.69802648711E+02  0.41800000000E+01 0.  1.
</event>
<event>
11    1  0.8864208E-009  0.1328318E+03  0.7561462E-02  0.1115838E+00
         22   -1    0    0    0    0  0.00000000000E+00  0.00000000000E+00  0.39447454322E+03  0.39447454322E+03  0.00000000000E+00 0.  1.
         22   -1    0    0    0    0 -0.00000000000E+00 -0.00000000000E+00 -0.58378468251E+03  0.58378468251E+03  0.00000000000E+00 0.  1.
        -24    2    1    2    0    0  0.24451978674E+02  0.18677569472E+02 -0.30627984807E+03  0.31768205707E+03  0.78535299003E+02 0.  0.
         25    2    1    2    0    0  0.18709675928E+02 -0.45041383250E+01 -0.24973974648E+03  0.27997786354E+03  0.12508926360E+03 0.  0.
         24    2    1    2    0    0 -0.43161654601E+02 -0.14173431147E+02  0.36670945525E+03  0.38059930511E+03  0.91193157104E+02 0.  0.
        -11    1    5    5    0    0 -0.68831895813E+02 -0.24990828808E+02  0.28565020035E+03  0.29488711122E+03  0.00000000000E+00 0.  1.
         12    1    5    5    0    0  0.25670241212E+02  0.10817397661E+02  0.81059254905E+02  0.85712193892E+02  0.00000000000E+00 0. -1.
         11    1    3    3    0    0  0.31414044350E+02  0.20228441555E+02 -0.56118081161E+02  0.67418625493E+02  0.00000000000E+00 0. -1.
        -12    1    3    3    0    0 -0.69620656768E+01 -0.15508720829E+01 -0.25016176691E+03  0.25026343158E+03  0.00000000000E+00 0.  1.
          5    1    4    4  501    0 -0.26931566288E+02  0.10970820477E+02 -0.22256021685E+03  0.22449095904E+03  0.41800000000E+01 0.  1.
         -5    1    4    4    0  501  0.45641242215E+02 -0.15474958802E+02 -0.27179529629E+02  0.55486904507E+02  0.41800000000E+01 0.  1.
</event>
<event>
11    1  0.8864208E-009  0.1359512E+03  0.7561462E-02  0.1112166E+00
         22   -1    0    0    0    0  0.00000000000E+00  0.00000000000E+00  0.15811082868E+04  0.15811082868E+04  0.00000000000E+00 0. -1.
         22   -1    0    0    0    0 -0.00000000000E+00 -0.00000000000E+00 -0.82834125331E+03  0.82834125331E+03  0.00000000000E+00 0.  1.
        -24    2    1    2    0    0  0.24524942267E+02  0.13478666185E+02 -0.76895736178E+03  0.77428852377E+03  0.86279467850E+02 0.  0.
         25    2    1    2    0    0  0.26167748627E+02 -0.31396061500E+02  0.23399314731E+02  0.13366147272E+03  0.12508955837E+03 0.  0.
         24    2    1    2    0    0 -0.50692690893E+02  0.17917395315E+02  0.14983250805E+04  0.15014995436E+04  0.81437402821E+02 0.  0.
        -11    1    5    5    0    0  0.11169061750E+01 -0.60542016933E+01  0.80635863032E+01  0.10145060947E+02  0.00000000000E+00 0.  1.
         12    1    5    5    0    0 -0.51809597068E+02  0.23971597008E+02  0.14902614942E+04  0.14913544826E+04  0.00000000000E+00 0. -1.
         13    1    3    3    0    0  0.14369046047E+02  0.14333938533E+02 -0.36524937366E+02  0.41785192685E+02  0.00000000000E+00 0. -1.
        -14    1    3    3    0    0  0.10155896220E+02 -0.85527234751E+00 -0.73243242441E+03  0.73250333109E+03  0.00000000000E+00 0.  1.
          5    1    4    4  501    0  0.59179720408E+02 -0.28507091837E+01 -0.28369184886E+02  0.65822860022E+02  0.41800000000E+01 0.  1.
         -5    1    4    4    0  501 -0.33011971782E+02 -0.28545352316E+02  0.51768499616E+02  0.67838612694E+02  0.41800000000E+01 0.  1.
</event>
<event>
11    1  0.8864208E-009  0.2014522E+03  0.7561462E-02  0.1053501E+00
         22   -1    0    0    0    0  0.00000000000E+00  0.00000000000E+00  0.42284050578E+03  0.42284050578E+03  0.00000000000E+00 0. -1.
         22   -1    0    0    0    0 -0.00000000000E+00 -0.00000000000E+00 -0.45213722224E+03  0.45213722224E+03  0.00000000000E+00 0. -1.
         24    2    1    2    0    0  0.15665670888E+03  0.26454008168E+02 -0.33561473063E+03  0.37986741415E+03  0.80130305956E+02 0.  0.
         25    2    1    2    0    0 -0.15714740680E+03  0.19428721297E+02  0.30828380529E+02  0.20413841444E+03  0.12509724429E+03 0.  0.
        -24    2    1    2    0    0  0.49069791485E+00 -0.45882729465E+02  0.27548963363E+03  0.29097189944E+03  0.81637260944E+02 0.  0.
        -11    1    3    3    0    0  0.88479128838E+01 -0.49816522385E+01 -0.96309764445E+02  0.96843549856E+02  0.00000000000E+00 0.  1.
         12    1    3    3    0    0  0.14780879600E+03  0.31435660407E+02 -0.23930496618E+03  0.28302386429E+03  0.00000000000E+00 0. -1.
         13    1    5    5    0    0 -0.27981277391E+02 -0.15148828166E+02  0.21529050228E+03  0.21762913236E+03  0.00000000000E+00 0. -1.
        -14    1    5    5    0    0  0.28471975306E+02 -0.30733901298E+02  0.60199131354E+02  0.73342767078E+02  0.00000000000E+00 0.  1.
          5    1    4    4  501    0  0.95624753506E+01 -0.23685190798E+02 -0.89015211053E+01  0.27370397804E+02  0.41800000000E+01 0. -1.
         -5    1    4    4    0  501 -0.16670988215E+03  0.43113912094E+02  0.39729901634E+02  0.17676801664E+03  0.41800000000E+01 0. -1.
</event>
<event>
11    1  0.8864208E-009  0.1398540E+03  0.7561462E-02  0.1107721E+00
         22   -1    0    0    0    0  0.00000000000E+00  0.00000000000E+00  0.58369674908E+03  0.58369674908E+03  0.00000000000E+00 0. -1.
         22   -1    0    0    0    0 -0.00000000000E+00 -0.00000000000E+00 -0.97997481274E+03  0.97997481274E+03  0.00000000000E+00 0.  1.
         24    2    1    2    0    0 -0.12120411381E+02  0.19424364754E+02 -0.94929793443E+03  0.95317332060E+03  0.82756271570E+02 0.  0.
         25    2    1    2    0    0 -0.33066642820E+02  0.33831964760E+02  0.21168224809E+03  0.25040951585E+03  0.12513011935E+03 0.  0.
        -24    2    1    2    0    0  0.45187054201E+02 -0.53256329514E+02  0.34133762268E+03  0.36008872537E+03  0.90963789385E+02 0.  0.
        -11    1    3    3    0    0 -0.34113480748E+02  0.22165676278E+02 -0.86667858344E+03  0.86763287960E+03  0.00000000000E+00 0.  1.
         12    1    3    3    0    0  0.21993069367E+02 -0.27413115249E+01 -0.82619350985E+02  0.85540440999E+02  0.00000000000E+00 0. -1.
         13    1    5    5    0    0  0.62559614288E+02 -0.31926989963E+02  0.13746553959E+03  0.15436907917E+03  0.00000000000E+00 0. -1.
        -14    1    5    5    0    0 -0.17372560087E+02 -0.21329339551E+02  0.20387208309E+03  0.20571964620E+03  0.00000000000E+00 0.  1.
          5    1    4    4  501    0 -0.78192681543E+02  0.58531388272E+01  0.10439579260E+03  0.13063042752E+03  0.41800000000E+01 0.  1.
         -5    1    4    4    0  501  0.45126038723E+02  0.27978825933E+02  0.10728645549E+03  0.11977908834E+03  0.41800000000E+01 0.  1.
</event>
<event>
11    1  0.8864208E-009  0.1673685E+03  0.7561462E-02  0.1080345E+00
         22   -1    0    0    0    0  0.00000000000E+00  0.00000000000E+00  0.16224163313E+03  0.16224163313E+03  0.00000000000E+00 0.  1.
         22   -1    0    0    0    0 -0.00000000000E+00 -0.00000000000E+00 -0.12554370249E+04  0.12554370249E+04  0.00000000000E+00 0.  1.
         24    2    1    2    0    0  0.97660221978E+02 -0.53032931770E+02 -0.91500782995E+03  0.92525886506E+03  0.80713243635E+02 0.  0.
         25    2    1    2    0    0 -0.77112184993E+02  0.88231623519E+02 -0.29298564034E+03  0.33945581268E+03  0.12513414743E+03 0.  0.
        -24    2    1    2    0    0 -0.20548036984E+02 -0.35198691748E+02  0.11479807856E+03  0.15296398025E+03  0.92510597709E+02 0.  0.
        -11    1    3    3    0    0  0.99932929125E+02 -0.56437694073E+02 -0.91381664042E+03  0.92099547010E+03  0.00000000000E+00 0.  1.
         12    1    3    3    0    0 -0.22727071472E+01  0.34047623026E+01 -0.11911895303E+01  0.42633949631E+01  0.00000000000E+00 0. -1.
         13    1    5    5    0    0 -0.12153560774E+02 -0.65267791092E+02  0.58022922516E+02  0.88171725235E+02  0.00000000000E+00 0. -1.
        -14    1    5    5    0    0 -0.83944762102E+01  0.30069099344E+02  0.56775156046E+02  0.64792255017E+02  0.00000000000E+00 0.  1.
          5    1    4    4  501    0  0.29020893880E+02  0.47204985584E+02 -0.12157699260E+03  0.13367483112E+03  0.41800000000E+01 0. -1.
         -5    1    4    4    0  501 -0.10613307887E+03  0.41026637934E+02 -0.17140864774E+03  0.20578098156E+03  0.41800000000E+01 0. -1.
</event>
<event>
11    1  0.8864208E-009  0.1342469E+03  0.7561462E-02  0.1114158E+00
         22   -1    0    0    0    0  0.00000000000E+00  0.00000000000E+00  0.30806132067E+03  0.30806132067E+03  0.00000000000E+00 0. -1.
         22   -1    0    0    0    0 -0.00000000000E+00 -0.00000000000E+00 -0.18146997240E+03  0.18146997240E+03  0.00000000000E+00 0. -1.
         24    2    1    2    0    0 -0.16283666872E+02 -0.48793714908E+02 -0.11553541949E+03  0.14777463820E+03  0.76439035282E+02 0.  0.
         25    2    1    2    0    0 -0.34032142442E+01  0.33822750637E+02  0.63193553164E+02  0.14421154119E+03  0.12509189871E+03 0.  0.
        -24    2    1    2    0    0  0.19686881116E+02  0.14970964271E+02  0.17893321460E+03  0.19754511369E+03  0.79970454511E+02 0.  0.
        -11    1    3    3    0    0 -0.28692088571E+02 -0.12654613083E+02 -0.62147438881E+01  0.31968706894E+02  0.00000000000E+00 0.  1.
         12    1    3    3    0    0  0.12408421699E+02 -0.36139101825E+02 -0.10932067561E+03  0.11580593130E+03  0.00000000000E+00 0. -1.
         11    1    5    5    0    0  0.82279541233E+01  0.47745456266E+02  0.11508038454E+03  0.12486321607E+03  0.00000000000E+00 0. -1.
        -12    1    5    5    0    0  0.11458926993E+02 -0.32774491996E+02  0.63852830064E+02  0.72681897613E+02  0.00000000000E+00 0.  1.
          5    1    4    4  501    0  0.21605707300E+02 -0.13720270320E+02  0.82882644459E+02  0.86845020341E+02  0.41800000000E+01 0.  1.
         -5    1    4    4    0  501 -0.25008921544E+02  0.47543020957E+02 -0.19689091294E+02  0.57366520851E+02  0.41800000000E+01 0.  1.
</event>
<event>
11    1  0.8864208E-009  0.1341010E+03  0.7561462E-02  0.1114330E+00
         22   -1    0    0    0    0  0.00000000000E+00  0.00000000000E+00  0.54750439272E+03  0.54750439272E+03  0.00000000000E+00 0. -1.
         22   -1    0    0    0    0 -0.00000000000E+00 -0.00000000000E+00 -0.17829517332E+04  0.17829517332E+04  0.00000000000E+00 0. -1.
        -24    2    1    2    0    0 -0.51885563098E+01 -0.30677679380E+02 -0.13511626351E+04  0.13541598605E+04  0.84501006500E+02 0.  0.
         25    2    1    2    0    0  0.46234372917E+02  0.49480351892E+01 -0.41574949465E+03  0.43664279724E+03  0.12508872765E+03 0.  0.
         24    2    1    2    0    0 -0.41045816607E+02  0.25729644190E+02  0.53146478930E+03  0.53965346819E+03  0.80151542824E+02 0.  0.
        -13    1    5    5    0    0  0.36536884257E+01  0.29493748289E+02  0.70457123861E+02  0.76468535555E+02  0.00000000000E+00 0.  1.
         14    1    5    5    0    0 -0.44699505032E+02 -0.37641040984E+01  0.46100766544E+03  0.46318493263E+03  0.00000000000E+00 0. -1.
         11    1    3    3    0    0 -0.33919004678E+02  0.68140728535E+01 -0.30965336332E+03  0.31158006336E+03  0.00000000000E+00 0. -1.
        -12    1    3    3    0    0  0.28730448369E+02 -0.37491752233E+02 -0.10415092718E+04  0.10425797971E+04  0.00000000000E+00 0.  1.
          5    1    4    4  501    0  0.60105926089E+02 -0.15925232174E+02 -0.40377152542E+03  0.40855263126E+03  0.41800000000E+01 0. -1.
         -5    1    4    4    0  501 -0.13871553172E+02  0.20873267363E+02 -0.11977969238E+02  0.28090165982E+02  0.41800000000E+01 0. -1.
</event>
<event>
11    1  0.8864208E-009  0.1577229E+03  0.7561462E-02  0.1089239E+00
         22   -1    0    0    0    0  0.00000000000E+00  0.00000000000E+00  0.11596988434E+04  0.11596988434E+04  0.00000000000E+00 0.  1.
         22   -1    0    0    0    0 -0.00000000000E+00 -0.00000000000E+00 -0.15146066124E+03  0.15146066124E+03  0.00000000000E+00 0.  1.
         24    2    1    2    0    0 -0.79634870668E+02 -0.44166718243E+02 -0.37119384897E+02  0.13584269452E+03  0.93717539947E+02 0.  0.
         25    2    1    2    0    0  0.10590352995E+03  0.27433398082E+02  0.46336052442E+02  0.17252381012E+03  0.12509710754E+03 0.  0.
        -24    2    1    2    0    0 -0.26268659283E+02  0.16733320161E+02  0.99902151464E+03  0.10027930000E+04  0.81115767279E+02 0.  0.
        -11    1    3    3    0    0 -0.98615054943E+02 -0.46072640973E+02 -0.20968496372E+02  0.11084807237E+03  0.00000000000E+00 0.  1.
         12    1    3    3    0    0  0.18980184275E+02  0.19059227294E+01 -0.16150888525E+02  0.24994622156E+02  0.00000000000E+00 0. -1.
         13    1    5    5    0    0 -0.19090951531E+02  0.89332162051E+01  0.57989522327E+02  0.61701308591E+02  0.00000000000E+00 0. -1.
        -14    1    5    5    0    0 -0.71777077512E+01  0.78001039561E+01  0.94103199232E+03  0.94109169143E+03  0.00000000000E+00 0.  1.
          5    1    4    4  501    0  0.89559701078E+02  0.26619285091E+02  0.87471723162E+02  0.12805585168E+03  0.41800000000E+01 0.  1.
         -5    1    4    4    0  501  0.16343828872E+02  0.81411299098E+00 -0.41135670720E+02  0.44467958439E+02  0.41800000000E+01 0.  1.
</event>
<event>
11    1  0.8864208E-009  0.1262164E+03  0.7561462E-02  0.1124007E+00
         22   -1    0    0    0    0  0.00000000000E+00  0.00000000000E+00  0.35168834651E+03  0.35168834651E+03  0.00000000000E+00 0.  1.
         22   -1    0    0    0    0 -0.00000000000E+00 -0.00000000000E+00 -0.52831939354E+03  0.52831939354E+03  0.00000000000E+00 0. -1.
         24    2    1    2    0    0  0.11723871677E+02 -0.34373971989E-01 -0.48838311850E+03  0.49507630644E+03  0.80280934331E+02 0.  0.
         25    2    1    2    0    0  0.43668769613E+01  0.10653223126E+02  0.11925627933E+03  0.17321363163E+03  0.12509333015E+03 0.  0.
        -24    2    1    2    0    0 -0.16090748639E+02 -0.10618849154E+02  0.19249579215E+03  0.21171780197E+03  0.86012356840E+02 0.  0.
        -13    1    3    3    0    0 -0.21762976319E+02 -0.25459899889E+02 -0.31004135119E+03  0.31184527107E+03  0.00000000000E+00 0.  1.
         14    1    3    3    0    0  0.33486847996E+02  0.25425525917E+02 -0.17834176731E+03  0.18323103537E+03  0.00000000000E+00 0. -1.
         13    1    5    5    0    0 -0.44075947497E+02 -0.13765359101E+02  0.57149251091E+02  0.73472519755E+02  0.00000000000E+00 0. -1.
        -14    1    5    5    0    0  0.27985198858E+02  0.31465099468E+01  0.13534654105E+03  0.13824528222E+03  0.00000000000E+00 0.  1.
          5    1    4    4  501    0  0.24456379798E+02  0.27529070419E+02  0.13656543952E+03  0.14150461442E+03  0.41800000000E+01 0.  1.
         -5    1    4    4    0  501 -0.20089502836E+02 -0.16875847294E+02 -0.17309160191E+02  0.31709017213E+02  0.41800000000E+01 0.  1.
</event>
<event>
11    1  0.8864208E-009  0.1433193E+03  0.7561462E-02  0.1103907E+00
         22   -1    0    0    0    0  0.00000000000E+00  0.00000000000E+00  0.56218488016E+03  0.56218488016E+03  0.00000000000E+00 0.  1.
         22   -1    0    0    0    0 -0.00000000000E+00 -0.00000000000E+00 -0.11036148491E+04  0.11036148491E+04  0.00000000000E+00 0. -1.
         24    2    1    2    0    0 -0.13785833586E+02  0.71436842944E+02 -0.10013057793E+04  0.10070419176E+04  0.78910635218E+02 0.  0.
         25    2    1    2    0    0  0.45917606658E+02 -0.14099613704E+02 -0.46538882070E+02  0.14184874047E+03  0.12509185394E+03 0.  0.
        -24    2    1    2    0    0 -0.32131773073E+02 -0.57337229239E+02  0.50641469246E+03  0.51690907117E+03  0.80119525847E+02 0.  0.
        -11    1    3    3    0    0 -0.17043196560E+02  0.43453163022E+02 -0.20535836225E+03  0.21059607041E+03  0.00000000000E+00 0.  1.
         12    1    3    3    0    0  0.32573629740E+01  0.27983679921E+02 -0.79594741704E+03  0.79644584715E+03  0.00000000000E+00 0. -1.
         11    1    5    5    0    0 -0.39545392909E+02 -0.34579783954E+02  0.13710053337E+03  0.14682014783E+03  0.00000000000E+00 0. -1.
        -12    1    5    5    0    0  0.74136198361E+01 -0.22757445285E+02  0.36931415909E+03  0.37008892334E+03  0.00000000000E+00 0.  1.
          5    1    4    4  501    0 -0.33455099446E+02 -0.32456250921E+01 -0.51315797576E+02  0.61486268728E+02  0.41800000000E+01 0.  1.
         -5    1    4    4    0  501  0.79372706104E+02 -0.10853988612E+02  0.47769155064E+01  0.80362471744E+02  0.41800000000E+01 0.  1.
</event>
<event>
11    1  0.8864208E-009  0.1500358E+03  0.7561462E-02  0.1096842E+00
         22   -1    0    0    0    0  0.00000000000E+00  0.00000000000E+00  0.38468529739E+03  0.38468529739E+03  0.00000000000E+00 0.  1.
         22   -1    0    0    0    0 -0.00000000000E+00 -0.00000000000E+00 -0.42775277583E+03  0.42775277583E+03  0.00000000000E+00 0. -1.
         24    2    1    2    0    0  0.64253109018E+02  0.39642931626E+02 -0.26099876796E+03  0.28339482839E+03  0.80574486249E+02 0.  0.
         25    2    1    2    0    0 -0.10820602622E+03 -0.42325467046E+02 -0.98453851027E+02  0.19711211250E+03  0.12514006090E+03 0.  0.
        -24    2    1    2    0    0  0.43952917203E+02  0.26825354201E+01  0.31638514054E+03  0.33193113232E+03  0.90220089345E+02 0.  0.
        -11    1    3    3    0    0  0.20185810868E+02 -0.24099730355E+02 -0.55719595175E+02  0.63976067791E+02  0.00000000000E+00 0.  1.
         12    1    3    3    0    0  0.44067298149E+02  0.63742661981E+02 -0.20527917279E+03  0.21941876060E+03  0.00000000000E+00 0. -1.
         13    1    5    5    0    0  0.15472283472E+01  0.27742930050E+02  0.28282297550E+02  0.39647855403E+02  0.00000000000E+00 0. -1.
        -14    1    5    5    0    0  0.42405688856E+02 -0.25060394630E+02  0.28810284299E+03  0.29228327692E+03  0.00000000000E+00 0.  1.
          5    1    4    4  501    0 -0.13252059115E+03 -0.53505021989E+02 -0.75942776393E+02  0.16189277978E+03  0.41800000000E+01 0.  1.
         -5    1    4    4    0  501  0.24314564933E+02  0.11179554943E+02 -0.22511074634E+02  0.35219332727E+02  0.41800000000E+01 0.  1.
</event>
<event>
11    1  0.8864208E-009  0.1748164E+03  0.7561462E-02  0.1073915E+00
         22   -1    0    0    0    0  0.00000000000E+00  0.00000000000E+00  0.79088902325E+03  0.79088902325E+03  0.00000000000E+00 0.  1.
         22   -1    0    0    0    0 -0.00000000000E+00 -0.00000000000E+00 -0.62631555339E+03  0.62631555339E+03  0.00000000000E+00 0.  1.
        -24    2    1    2    0    0  0.10065351761E+02  0.12174028833E+03 -0.55336977741E+03  0.57220101796E+03  0.79207861337E+02 0.  0.
         25    2    1    2    0    0 -0.40732121641E+02 -0.11837032163E+03  0.68124189523E+02  0.18963047467E+03  0.12509265745E+03 0.  0.
         24    2    1    2    0    0  0.30666769880E+02 -0.33699666926E+01  0.64981905776E+03  0.65537308401E+03  0.79355302107E+02 0.  0.
        -13    1    5    5    0    0  0.36383474400E+02 -0.14634172521E+02  0.63361369452E+03  0.63482614163E+03  0.00000000000E+00 0.  1.
         14    1    5    5    0    0 -0.57167045202E+01  0.11264205828E+02  0.16205363231E+02  0.20546942375E+02  0.00000000000E+00 0. -1.
         13    1    3    3    0    0 -0.90059037840E+01  0.63565814992E+02 -0.13631505632E+03  0.15067685197E+03  0.00000000000E+00 0. -1.
        -14    1    3    3    0    0  0.19071255545E+02  0.58174473334E+02 -0.41705472109E+03  0.42152416599E+03  0.00000000000E+00 0.  1.
          5    1    4    4  501    0  0.27623826408E+01 -0.11473888688E+01 -0.30124881461E+02  0.30560237926E+02  0.41800000000E+01 0. -1.
         -5    1    4    4    0  501 -0.43494504281E+02 -0.11722293276E+03  0.98249070984E+02  0.15907023674E+03  0.41800000000E+01 0. -1.
</event>
<event>
11    1  0.8864208E-009  0.1298995E+03  0.7561462E-02  0.1119392E+00
         22   -1    0    0    0    0  0.00000000000E+00  0.00000000000E+00  0.18067302773E+03  0.18067302773E+03  0.00000000000E+00 0. -1.
         22   -1    0    0    0    0 -0.00000000000E+00 -0.00000000000E+00 -0.32918052863E+03  0.32918052863E+03  0.00000000000E+00 0.  1.
         24    2    1    2    0    0  0.35543266713E+02 -0.85799290432E+01 -0.24206460696E+03  0.25809336200E+03  0.81731086946E+02 0.  0.
         25    2    1    2    0    0 -0.20012451789E+02  0.16354986010E+02  0.98155799479E+00  0.12770943807E+03  0.12506299742E+03 0.  0.
        -24    2    1    2    0    0 -0.15530814924E+02 -0.77750569670E+01  0.92575548060E+02  0.12405075629E+03  0.80726082000E+02 0.  0.
        -11    1    3    3    0    0  0.51837516866E+02 -0.23051883305E+02 -0.10536472751E+03  0.11966721892E+03  0.00000000000E+00 0.  1.
         12    1    3    3    0    0 -0.16294250153E+02  0.14471954262E+02 -0.13669987944E+03  0.13842614308E+03  0.00000000000E+00 0. -1.
         13    1    5    5    0    0 -0.15700288017E+02 -0.23326481054E+02  0.10204117209E+03  0.10584434120E+03  0.00000000000E+00 0. -1.
        -14    1    5    5    0    0  0.16947309356E+00  0.15551424087E+02 -0.94656240306E+01  0.18206415093E+02  0.00000000000E+00 0.  1.
          5    1    4    4  501    0  0.47180131530E+02 -0.18134726130E+02 -0.86687160179E+01  0.51453397754E+02  0.41800000000E+01 0.  1.
         -5    1    4    4    0  501 -0.67192583319E+02  0.34489712140E+02  0.96502740127E+01  0.76256040319E+02  0.41800000000E+01 0.  1.
</event>
<event>
11    1  0.8864208E-009  0.1378029E+03  0.7561462E-02  0.1110037E+00
         22   -1    0    0    0    0  0.00000000000E+00  0.00000000000E+00  0.31980600331E+02  0.31980600331E+02  0.00000000000E+00 0. -1.
         22   -1    0    0    0    0 -0.00000000000E+00 -0.00000000000E+00 -0.19108459105E+04  0.19108459105E+04  0.00000000000E+00 0.  1.
         24    2    1    2    0    0 -0.29877597364E+02  0.91719341140E+01 -0.10852113048E+04  0.10885491975E+04  0.79240040226E+02 0.  0.
         25    2    1    2    0    0  0.62487654742E+02 -0.52925373315E+02 -0.71188960898E+03  0.72742045846E+03  0.12509158992E+03 0.  0.
        -24    2    1    2    0    0 -0.32610057378E+02  0.43753439201E+02 -0.81764396379E+02  0.12685685493E+03  0.80183950034E+02 0.  0.
        -11    1    3    3    0    0  0.74836369471E+01  0.35376457482E+02 -0.33364356605E+03  0.33559727015E+03  0.00000000000E+00 0.  1.
         12    1    3    3    0    0 -0.37361234311E+02 -0.26204523368E+02 -0.75156773880E+03  0.75295192734E+03  0.00000000000E+00 0. -1.
         11    1    5    5    0    0 -0.11100705964E+02  0.64497472623E+02 -0.44735830875E+02  0.79274486512E+02  0.00000000000E+00 0. -1.
        -12    1    5    5    0    0 -0.21509351414E+02 -0.20744033422E+02 -0.37028565504E+02  0.47582368416E+02  0.00000000000E+00 0.  1.
          5    1    4    4  501    0 -0.19876900403E+02  0.27186398287E+02 -0.13642804753E+03  0.14058547568E+03  0.41800000000E+01 0. -1.
         -5    1    4    4    0  501  0.82364555145E+02 -0.80111771602E+02 -0.57546156146E+03  0.58683498277E+03  0.41800000000E+01 0. -1.
</event>
<event>
11    1  0.8864208E-009  0.2612529E+03  0.7561462E-02  0.1018070E+00
         22   -1    0    0    0    0  0.00000000000E+00  0.00000000000E+00  0.50264219545E+03  0.50264219545E+03  0.00000000000E+00 0.  1.
         22   -1    0    0    0    0 -0.00000000000E+00 -0.00000000000E+00 -0.10518411643E+04  0.10518411643E+04  0.00000000000E+00 0. -1.
        -24    2    1    2    0    0  0.20348758302E+03 -0.10556263883E+03 -0.96909347982E+03  0.99937073985E+03  0.83958536668E+02 0.  0.
         25    2    1    2    0    0 -0.19501051532E+03  0.12719619260E+03  0.24202361133E+03  0.35837263384E+03  0.12509014249E+03 0.  0.
         24    2    1    2    0    0 -0.84770677030E+01 -0.21633553774E+02  0.17787089967E+03  0.19673998603E+03  0.80800333110E+02 0.  0.
        -11    1    5    5    0    0  0.34112423449E+02 -0.10249737896E+01  0.99548875349E+02  0.10523633682E+03  0.00000000000E+00 0.  1.
         12    1    5    5    0    0 -0.42589491152E+02 -0.20608579984E+02  0.78322024316E+02  0.91503649209E+02  0.00000000000E+00 0. -1.
         13    1    3    3    0    0  0.20149694127E+03 -0.10108968230E+03 -0.96855646861E+03  0.99444546060E+03  0.00000000000E+00 0. -1.
        -14    1    3    3    0    0  0.19906417459E+01 -0.44729565262E+01 -0.53701120277E+00  0.49252792487E+01  0.00000000000E+00 0.  1.
          5    1    4    4  501    0 -0.30586301513E+02  0.51561699017E+02  0.13573167729E+03  0.14844086791E+03  0.41800000000E+01 0. -1.
         -5    1    4    4    0  501 -0.16442421380E+03  0.75634493582E+02  0.10629193404E+03  0.20993176593E+03  0.41800000000E+01 0. -1.
</event>
<event>
11    1  0.8864208E-009  0.1300857E+03  0.7561462E-02  0.1119164E+00
         22   -1    0    0    0    0  0.00000000000E+00  0.00000000000E+00  0.23536495125E+03  0.23536495125E+03  0.00000000000E+00 0.  1.
         22   -1    0    0    0    0 -0.00000000000E+00 -0.00000000000E+00 -0.52535743059E+03  0.52535743059E+03  0.00000000000E+00 0. -1.
         24    2    1    2    0    0  0.30835872680E+02  0.16198587799E+02 -0.34915237958E+03  0.36008642618E+03  0.80880188340E+02 0.  0.
         25    2    1    2    0    0 -0.39596490627E+02  0.18853383368E+02 -0.13388354486E+03  0.18840028991E+03  0.12508610442E+03 0.  0.
        -24    2    1    2    0    0  0.87606179466E+01 -0.35051971167E+02  0.19304344510E+03  0.21223566575E+03  0.80453819118E+02 0.  0.
        -13    1    3    3    0    0  0.83995849092E+01  0.26655215457E+02 -0.34217273888E+02  0.44180033613E+02  0.00000000000E+00 0.  1.
         14    1    3    3    0    0  0.22436287771E+02 -0.10456627658E+02 -0.31493510569E+03  0.31590639257E+03  0.00000000000E+00 0. -1.
         13    1    5    5    0    0  0.19154049683E+02 -0.39234739247E+02  0.41365076578E+02  0.60144093170E+02  0.00000000000E+00 0. -1.
        -14    1    5    5    0    0 -0.10393431737E+02  0.41827680797E+01  0.15167836852E+03  0.15209157258E+03  0.00000000000E+00 0.  1.
          5    1    4    4  501    0  0.24292084089E+02 -0.38458591266E+02 -0.36077486333E+02  0.58208470274E+02  0.41800000000E+01 0. -1.
         -5    1    4    4    0  501 -0.63888574716E+02  0.57311974634E+02 -0.97806058530E+02  0.13019181964E+03  0.41800000000E+01 0. -1.
</event>
<event>
11    1  0.8864208E-009  0.1384029E+03  0.7561462E-02  0.1109355E+00
         22   -1    0    0    0    0  0.00000000000E+00  0.00000000000E+00  0.49041851743E+02  0.49041851743E+02  0.00000000000E+00 0. -1.
         22   -1    0    0    0    0 -0.00000000000E+00 -0.00000000000E+00 -0.16553321915E+04  0.16553321915E+04  0.00000000000E+00 0.  1.
        -24    2    1    2    0    0 -0.16781710359E+02 -0.16518186007E+02 -0.95838001169E+03  0.96209291077E+03  0.81092822575E+02 0.  0.
         25    2    1    2    0    0  0.69465000827E+02  0.38858389325E+02 -0.62301909757E+03  0.64041844388E+03  0.12509047352E+03 0.  0.
         24    2    1    2    0    0 -0.52683290468E+02 -0.22340203317E+02 -0.24891230522E+02  0.10186268862E+03  0.80509752186E+02 0.  0.
        -11    1    5    5    0    0 -0.48442568152E+02 -0.47242135137E+02 -0.33066874875E+02  0.75312150118E+02  0.00000000000E+00 0.  1.
         12    1    5    5    0    0 -0.42407223155E+01  0.24901931819E+02  0.81756443531E+01  0.26550538501E+02  0.00000000000E+00 0. -1.
         11    1    3    3    0    0 -0.34606141802E+02  0.11706439997E+02 -0.22441122639E+03  0.22736539824E+03  0.00000000000E+00 0. -1.
        -12    1    3    3    0    0  0.17824431443E+02 -0.28224626004E+02 -0.73396878530E+03  0.73472751253E+03  0.00000000000E+00 0.  1.
          5    1    4    4  501    0  0.34071194648E+02  0.61330275100E+02 -0.15136749816E+03  0.16688870797E+03  0.41800000000E+01 0. -1.
         -5    1    4    4    0  501  0.35393806179E+02 -0.22471885776E+02 -0.47165159941E+03  0.47352973591E+03  0.41800000000E+01 0. -1.
</event>
<event>
11    1  0.8864208E-009  0.1366549E+03  0.7561462E-02  0.1111352E+00
         22   -1    0    0    0    0  0.00000000000E+00  0.00000000000E+00  0.44624645358E+03  0.44624645358E+03  0.00000000000E+00 0.  1.
         22   -1    0    0    0    0 -0.00000000000E+00 -0.00000000000E+00 -0.34997305148E+03  0.34997305148E+03  0.00000000000E+00 0.  1.
        -24    2    1    2    0    0  0.40910472682E+02 -0.99315012747E+01 -0.18663684309E+03  0.20734973285E+03  0.79926835430E+02 0.  0.
         25    2    1    2    0    0 -0.35493874670E+01 -0.32215229048E+02 -0.11874837857E+03  0.17550046387E+03  0.12509522881E+03 0.  0.
         24    2    1    2    0    0 -0.37361085215E+02  0.42146730323E+02  0.40165862376E+03  0.41336930835E+03  0.79826922021E+02 0.  0.
        -11    1    5    5    0    0 -0.49665400692E+02  0.25721247773E+02  0.37771600769E+03  0.38183454149E+03  0.00000000000E+00 0.  1.
         12    1    5    5    0    0  0.12304315477E+02  0.16425482550E+02  0.23942616070E+02  0.31534766855E+02  0.00000000000E+00 0. -1.
         13    1    3    3    0    0 -0.83687043706E+01  0.76850767714E+01  0.20450750058E+01  0.11544606949E+02  0.00000000000E+00 0. -1.
        -14    1    3    3    0    0  0.49279177053E+02 -0.17616578046E+02 -0.18868191809E+03  0.19580512590E+03  0.00000000000E+00 0.  1.
          5    1    4    4  501    0  0.27901685367E+02 -0.70185731157E+02 -0.49538622679E+02  0.90421725494E+02  0.41800000000E+01 0.  1.
         -5    1    4    4    0  501 -0.31451072834E+02  0.37970502109E+02 -0.69209755891E+02  0.85078738374E+02  0.41800000000E+01 0.  1.
</event>
<event>
11    1  0.8864208E-009  0.1632789E+03  0.7561462E-02  0.1084033E+00
         22   -1    0    0    0    0  0.00000000000E+00  0.00000000000E+00  0.37659702989E+03  0.37659702989E+03  0.00000000000E+00 0. -1.
         22   -1    0    0    0    0 -0.00000000000E+00 -0.00000000000E+00 -0.97562214506E+03  0.97562214506E+03  0.00000000000E+00 0.  1.
        -24    2    1    2    0    0 -0.18626670541E+02 -0.25860307847E+01 -0.75740154827E+03  0.76202511221E+03  0.81679409362E+02 0.  0.
         25    2    1    2    0    0  0.97468256387E+02  0.70405724958E+02 -0.16597297685E+03  0.24010692615E+03  0.12508908757E+03 0.  0.
         24    2    1    2    0    0 -0.78841585846E+02 -0.67819694173E+02  0.32434940995E+03  0.35008713659E+03  0.80888546089E+02 0.  0.
        -13    1    5    5    0    0 -0.22801321417E+02 -0.50119344691E+02  0.70129908105E+02  0.89163069605E+02  0.00000000000E+00 0.  1.
         14    1    5    5    0    0 -0.56040264429E+02 -0.17700349483E+02  0.25421950185E+03  0.26092406698E+03  0.00000000000E+00 0. -1.
         13    1    3    3    0    0  0.21730862538E+02 -0.77362127564E+01 -0.76324873972E+02  0.79734344930E+02  0.00000000000E+00 0. -1.
        -14    1    3    3    0    0 -0.40357533079E+02  0.51501819717E+01 -0.68107667430E+03  0.68229076728E+03  0.00000000000E+00 0.  1.
          5    1    4    4  501    0  0.35731365531E+02 -0.15822539364E+02 -0.11661244806E+03  0.12305697329E+03  0.41800000000E+01 0.  1.
         -5    1    4    4    0  501  0.61736890856E+02  0.86228264322E+02 -0.49360528796E+02  0.11704995286E+03  0.41800000000E+01 0.  1.
</event>
<event>
11    1  0.9706070E-009  0.1701951E+03  0.7561462E-02  0.1077862E+00
         22   -1    0    0    0    0  0.00000000000E+00  0.00000000000E+00  0.69203183094E+03  0.69203183094E+03  0.00000000000E+00 0.  1.
         22   -1    0    0    0    0 -0.00000000000E+00 -0.00000000000E+00 -0.38480906425E+03  0.38480906425E+03  0.00000000000E+00 0. -1.
        -24    2    1    2    0    0  0.71820689263E+02 -0.47937774123E+02 -0.28700720257E+03  0.30998503208E+03  0.79128655976E+02 0.  0.
         25    2    1    2    0    0 -0.35505139217E+02 -0.68637720047E+02 -0.77325098392E+01  0.14726127878E+03  0.12511730894E+03 0.  0.
         24    2    1    2    0    0 -0.36315550046E+02  0.11657549417E+03  0.60196247910E+03  0.61959458433E+03  0.81424551970E+02 0.  0.
        -11    1    5    5    0    0 -0.15526058153E+02  0.44963700443E+02  0.42373272796E+03  0.42639443897E+03  0.00000000000E+00 0.  1.
         12    1    5    5    0    0 -0.20789491893E+02  0.71611793727E+02  0.17822975115E+03  0.19320014536E+03  0.00000000000E+00 0. -1.
         11    1    3    3    0    0  0.51282515356E+02 -0.52268757618E+02 -0.27739843901E+03  0.28690035442E+03  0.00000000000E+00 0. -1.
        -12    1    3    3    0    0  0.20538173908E+02  0.43309834950E+01 -0.96087635565E+01  0.23084677658E+02  0.00000000000E+00 0.  1.
          5    1    4    4  501    0  0.40944844871E+02  0.10652004383E+01 -0.14116999667E+02  0.43524442019E+02  0.41800000000E+01 0. -1.
         -5    1    4    4    0  501 -0.76449984088E+02 -0.69702920485E+02  0.63844898281E+01  0.10373683676E+03  0.41800000000E+01 0. -1.
</event>
<event>
11    1  0.8864208E-009  0.1345297E+03  0.7561462E-02  0.1113825E+00
         22   -1    0    0    0    0  0.00000000000E+00  0.00000000000E+00  0.17222219220E+03  0.17222219220E+03  0.00000000000E+00 0.  1.
         22   -1    0    0    0    0 -0.00000000000E+00 -0.00000000000E+00 -0.40371478479E+03  0.40371478479E+03  0.00000000000E+00 0.  1.
         24    2    1    2    0    0 -0.47372209822E+02 -0.46330350335E+00 -0.26322511321E+03  0.27925056016E+03  0.80306128097E+02 0.  0.
         25    2    1    2    0    0  0.33282749757E+02 -0.48520988867E+02 -0.72585744938E+02  0.15613380589E+03  0.12508815764E+03 0.  0.
        -24    2    1    2    0    0  0.14089460065E+02  0.48984292370E+02  0.10431826556E+03  0.14055261094E+03  0.79213396144E+02 0.  0.
        -11    1    3    3    0    0 -0.63019022091E+02  0.20758372431E+02 -0.20106816846E+03  0.21173265110E+03  0.00000000000E+00 0.  1.
         12    1    3    3    0    0  0.15646812268E+02 -0.21221675935E+02 -0.62156944748E+02  0.67517909062E+02  0.00000000000E+00 0. -1.
         13    1    5    5    0    0  0.27939798555E+02 -0.71125451144E+01  0.11130606004E+02  0.30904870673E+02  0.00000000000E+00 0. -1.
        -14    1    5    5    0    0 -0.13850338490E+02  0.56096837485E+02  0.93187659558E+02  0.10964774027E+03  0.00000000000E+00 0.  1.
          5    1    4    4  501    0  0.61859486290E+02 -0.51542508901E+02 -0.29441821997E+01  0.80680647473E+02  0.41800000000E+01 0.  1.
         -5    1    4    4    0  501 -0.28576736533E+02  0.30215200336E+01 -0.69641562739E+02  0.75453158415E+02  0.41800000000E+01 0.  1.
</event>
<event>
11    1  0.8864208E-009  0.1383093E+03  0.7561462E-02  0.1109461E+00
         22   -1    0    0    0    0  0.00000000000E+00  0.00000000000E+00  0.62627328913E+03  0.62627328913E+03  0.00000000000E+00 0. -1.
         22   -1    0    0    0    0 -0.00000000000E+00 -0.00000000000E+00 -0.53130894774E+03  0.53130894774E+03  0.00000000000E+00 0. -1.
        -24    2    1    2    0    0 -0.60051195464E+02  0.11844119622E+02 -0.35799670998E+03  0.37270549089E+03  0.83673827112E+02 0.  0.
         25    2    1    2    0    0  0.44446336492E+02 -0.31351042479E+02 -0.13444345821E+03  0.19151914184E+03  0.12508466550E+03 0.  0.
         24    2    1    2    0    0  0.15604858972E+02  0.19506922857E+02  0.58740450958E+03  0.59335760414E+03  0.80032223843E+02 0.  0.
        -11    1    5    5    0    0 -0.27791690990E+02 -0.77873889874E+01  0.13456864008E+03  0.13762899552E+03  0.00000000000E+00 0.  1.
         12    1    5    5    0    0  0.43396549962E+02  0.27294311844E+02  0.45283586949E+03  0.45572860861E+03  0.00000000000E+00 0. -1.
         13    1    3    3    0    0 -0.55054783643E+02  0.43443408778E+02 -0.21402822302E+03  0.22522530768E+03  0.00000000000E+00 0. -1.
        -14    1    3    3    0    0 -0.49964118207E+01 -0.31599289156E+02 -0.14396848695E+03  0.14748018322E+03  0.00000000000E+00 0.  1.
          5    1    4    4  501    0 -0.92622583029E+01  0.11342217968E+02 -0.12040352363E+03  0.12136274651E+03  0.41800000000E+01 0. -1.
         -5    1    4    4    0  501  0.53708594795E+02 -0.42693260447E+02 -0.14039934578E+02  0.70156395328E+02  0.41800000000E+01 0. -1.
</event>
<event>
11    1  0.8864208E-009  0.1525002E+03  0.7561462E-02  0.1094351E+00
         22   -1    0    0    0    0  0.00000000000E+00  0.00000000000E+00  0.15198368915E+04  0.15198368915E+04  0.00000000000E+00 0. -1.
         22   -1    0    0    0    0 -0.00000000000E+00 -0.00000000000E+00 -0.37710595799E+03  0.37710595799E+03  0.00000000000E+00 0.  1.
        -24    2    1    2    0    0  0.89891624486E+02  0.33777780953E+01 -0.33389522230E+03  0.35506424830E+03  0.80577213960E+02 0.  0.
         25    2    1    2    0    0 -0.48124496841E+02  0.34036502339E+02  0.12402778335E+03  0.18575614133E+03  0.12509197540E+03 0.  0.
         24    2    1    2    0    0 -0.41767127645E+02 -0.37414280434E+02  0.13525983725E+04  0.13561224599E+04  0.80009047060E+02 0.  0.
        -11    1    5    5    0    0 -0.30144620189E+02 -0.39895156845E+02  0.36033247572E+03  0.36378539652E+03  0.00000000000E+00 0.  1.
         12    1    5    5    0    0 -0.11622507456E+02  0.24808764105E+01  0.99226589678E+03  0.99233706337E+03  0.00000000000E+00 0. -1.
         13    1    3    3    0    0  0.10301956132E+02  0.29248628176E+02 -0.47781576908E+02  0.56962194850E+02  0.00000000000E+00 0. -1.
        -14    1    3    3    0    0  0.79589668354E+02 -0.25870850080E+02 -0.28611364539E+03  0.29810205345E+03  0.00000000000E+00 0.  1.
          5    1    4    4  501    0 -0.31301871946E+02  0.71902699844E+02  0.32107517275E+02  0.84842032612E+02  0.41800000000E+01 0. -1.
         -5    1    4    4    0  501 -0.16822624895E+02 -0.37866197506E+02  0.91920266079E+02  0.10091410872E+03  0.41800000000E+01 0. -1.
</event>
<event>
11    1  0.8864208E-009  0.2848170E+03  0.7561462E-02  0.1006830E+00
         22   -1    0    0    0    0  0.00000000000E+00  0.00000000000E+00  0.32891464720E+03  0.32891464720E+03  0.00000000000E+00 0. -1.
         22   -1    0    0    0    0 -0.00000000000E+00 -0.00000000000E+00 -0.89626691661E+03  0.89626691661E+03  0.00000000000E+00 0.  1.
        -24    2    1    2    0    0 -0.35742353824E+02 -0.46622062904E+02 -0.51204254416E+03  0.52200405575E+03  0.82761915059E+02 0.  0.
         25    2    1    2    0    0 -0.22676282386E+03  0.41067174671E+02 -0.25304069190E+03  0.36439666919E+03  0.12508976633E+03 0.  0.
         24    2    1    2    0    0  0.26250517768E+03  0.55548882325E+01  0.19773096665E+03  0.33878083887E+03  0.82067633818E+02 0.  0.
        -11    1    5    5    0    0  0.73675160001E+02  0.38465244377E+02  0.67185596543E+02  0.10687145835E+03  0.00000000000E+00 0.  1.
         12    1    5    5    0    0  0.18883001768E+03 -0.32910356145E+02  0.13054537011E+03  0.23190938052E+03  0.00000000000E+00 0. -1.
         13    1    3    3    0    0  0.45927823509E+00  0.67644193708E+01 -0.93713153472E+00  0.68444518724E+01  0.00000000000E+00 0. -1.
        -14    1    3    3    0    0 -0.36201632059E+02 -0.53386482275E+02 -0.51110541262E+03  0.51515960387E+03  0.00000000000E+00 0.  1.
          5    1    4    4  501    0 -0.76336031675E+02  0.40283636689E+02 -0.17432070752E+03  0.19456398070E+03  0.41800000000E+01 0. -1.
         -5    1    4    4    0  501 -0.15042679218E+03  0.78353798243E+00 -0.78719984383E+02  0.16983268849E+03  0.41800000000E+01 0. -1.
</event>
<event>
11    1  0.8864208E-009  0.1576564E+03  0.7561462E-02  0.1089303E+00
         22   -1    0    0    0    0  0.00000000000E+00  0.00000000000E+00  0.23646632465E+03  0.23646632465E+03  0.00000000000E+00 0. -1.
         22   -1    0    0    0    0 -0.00000000000E+00 -0.00000000000E+00 -0.19253459742E+04  0.19253459742E+04  0.00000000000E+00 0.  1.
         24    2    1    2    0    0  0.14387890251E+02  0.47182845240E+01 -0.18157509175E+04  0.18175681585E+04  0.79833218208E+02 0.  0.
         25    2    1    2    0    0 -0.95286268854E+02 -0.49853033486E+02 -0.38762772164E+01  0.16500901445E+03  0.12509257110E+03 0.  0.
        -24    2    1    2    0    0  0.80898378603E+02  0.45134748962E+02  0.13074754520E+03  0.17923512590E+03  0.80303278613E+02 0.  0.
        -13    1    3    3    0    0 -0.12131101511E+02 -0.30616304810E+02 -0.10724259176E+04  0.10729314379E+04  0.00000000000E+00 0.  1.
         14    1    3    3    0    0  0.26518991762E+02  0.35334589334E+02 -0.74332499991E+03  0.74463672057E+03  0.00000000000E+00 0. -1.
         13    1    5    5    0    0  0.72702717851E+02  0.17826109118E+02  0.13082047090E+03  0.15072309364E+03  0.00000000000E+00 0. -1.
        -14    1    5    5    0    0  0.81956607525E+01  0.27308639843E+02 -0.72925706570E-01  0.28512032257E+02  0.00000000000E+00 0.  1.
          5    1    4    4  501    0 -0.88283964703E+02 -0.86440237949E+02 -0.18043627552E+02  0.12493605587E+03  0.41800000000E+01 0.  1.
         -5    1    4    4    0  501 -0.70023041511E+01  0.36587204463E+02  0.14167350335E+02  0.40072958580E+02  0.41800000000E+01 0.  1.
</event>
<event>
11    1  0.1367537E-008  0.1470262E+03  0.7561462E-02  0.1099957E+00
         22   -1    0    0    0    0  0.00000000000E+00  0.00000000000E+00  0.42318397586E+03  0.42318397586E+03  0.00000000000E+00 0. -1.
         22   -1    0    0    0    0 -0.00000000000E+00 -0.00000000000E+00 -0.12469852674E+04  0.12469852674E+04  0.00000000000E+00 0. -1.
         24    2    1    2    0    0 -0.53443749722E+02  0.50646122276E+02 -0.77232466747E+03  0.78000436874E+03  0.80623564680E+02 0.  0.
         25    2    1    2    0    0  0.60717985533E+02 -0.12665551057E+03 -0.44418512996E+03  0.48236693946E+03  0.12509653265E+03 0.  0.
        -24    2    1    2    0    0 -0.72742358118E+01  0.76009388299E+02  0.39270850591E+03  0.40779793504E+03  0.79049627397E+02 0.  0.
        -11    1    3    3    0    0 -0.37200562238E+01 -0.15616918579E+02 -0.41463710427E+02  0.44463088586E+02  0.00000000000E+00 0.  1.
         12    1    3    3    0    0 -0.49723693498E+02  0.66263040854E+02 -0.73086095704E+03  0.73554128015E+03  0.00000000000E+00 0. -1.
         11    1    5    5    0    0 -0.34129859460E+02  0.68250016937E+02  0.33622553684E+03  0.34477604868E+03  0.00000000000E+00 0. -1.
        -12    1    5    5    0    0  0.26855623648E+02  0.77593713612E+01  0.56482969064E+02  0.63021886355E+02  0.00000000000E+00 0.  1.
          5    1    4    4  501    0  0.91301887508E+01 -0.97302969453E+02 -0.13051822095E+03  0.16310642725E+03  0.41800000000E+01 0.  1.
         -5    1    4    4    0  501  0.51587796783E+02 -0.29352541121E+02 -0.31366690901E+03  0.31926051221E+03  0.41800000000E+01 0.  1.
</event>
<event>
11    1  0.8864208E-009  0.1333753E+03  0.7561462E-02  0.1115190E+00
         22   -1    0    0    0    0  0.00000000000E+00  0.00000000000E+00  0.16213549161E+03  0.16213549161E+03  0.00000000000E+00 0.  1.
         22   -1    0    0    0    0 -0.00000000000E+00 -0.00000000000E+00 -0.48795487348E+03  0.48795487348E+03  0.00000000000E+00 0.  1.
        -24    2    1    2    0    0 -0.51033112061E+02  0.10631257503E+02 -0.33588694491E+03  0.34874200609E+03  0.77997082581E+02 0.  0.
         25    2    1    2    0    0  0.18805860692E+02  0.18386197941E+00 -0.99938259248E+02  0.16120942937E+03  0.12508848970E+03 0.  0.
         24    2    1    2    0    0  0.32227251369E+02 -0.10815119482E+02  0.11000582228E+03  0.14013892963E+03  0.79887897210E+02 0.  0.
        -13    1    5    5    0    0  0.27191830397E+02 -0.29536535661E+02  0.11354329250E+03  0.12043206322E+03  0.00000000000E+00 0.  1.
         14    1    5    5    0    0  0.50354209723E+01  0.18721416179E+02 -0.35374702169E+01  0.19706866409E+02  0.00000000000E+00 0. -1.
         11    1    3    3    0    0 -0.15997826827E+02  0.88322579959E+01 -0.97283665033E+01  0.20702182477E+02  0.00000000000E+00 0. -1.
        -12    1    3    3    0    0 -0.35035285234E+02  0.17989995068E+01 -0.32615857841E+03  0.32803982362E+03  0.00000000000E+00 0.  1.
          5    1    4    4  501    0  0.52357385160E+02  0.30065472430E+02 -0.11045623925E+02  0.61519969287E+02  0.41800000000E+01 0.  1.
         -5    1    4    4    0  501 -0.33551524467E+02 -0.29881610450E+02 -0.88892635323E+02  0.99689460085E+02  0.41800000000E+01 0.  1.
</event>
<event>
11    1  0.8864208E-009  0.1403825E+03  0.7561462E-02  0.1107132E+00
         22   -1    0    0    0    0  0.00000000000E+00  0.00000000000E+00  0.76417561634E+02  0.76417561634E+02  0.00000000000E+00 0.  1.
         22   -1    0    0    0    0 -0.00000000000E+00 -0.00000000000E+00 -0.61470783411E+03  0.61470783411E+03  0.00000000000E+00 0. -1.
        -24    2    1    2    0    0  0.56824648792E+02 -0.32689818127E+02 -0.35418488236E+03  0.37053247477E+03  0.86889119256E+02 0.  0.
         25    2    1    2    0    0 -0.45838432749E+02  0.37696766591E+02 -0.19454444313E+03  0.23878290432E+03  0.12509007520E+03 0.  0.
         24    2    1    2    0    0 -0.10986216044E+02 -0.50069484644E+01  0.10439053016E+02  0.81810016659E+02  0.80238011703E+02 0.  0.
        -13    1    5    5    0    0 -0.13583019063E+02 -0.41296333662E+02 -0.15583664155E+01  0.43500736622E+02  0.00000000000E+00 0.  1.
         14    1    5    5    0    0  0.25968030194E+01  0.36289385198E+02  0.11997419432E+02  0.38309280037E+02  0.00000000000E+00 0. -1.
         11    1    3    3    0    0  0.42720604275E+02 -0.35510628935E+02 -0.35154704800E+03  0.35590923246E+03  0.00000000000E+00 0. -1.
        -12    1    3    3    0    0  0.14104044518E+02  0.28208108078E+01 -0.26378343633E+01  0.14623242305E+02  0.00000000000E+00 0.  1.
          5    1    4    4  501    0 -0.53051422860E+02  0.34631269280E+01 -0.19638880164E+03  0.20350056640E+03  0.41800000000E+01 0. -1.
         -5    1    4    4    0  501  0.72129901111E+01  0.34233639663E+02  0.18443585042E+01  0.35282337922E+02  0.41800000000E+01 0. -1.
</event>
<event>
11    1  0.8864208E-009  0.1578796E+03  0.7561462E-02  0.1089089E+00
         22   -1    0    0    0    0  0.00000000000E+00  0.00000000000E+00  0.11391778193E+04  0.11391778193E+04  0.00000000000E+00 0. -1.
         22   -1    0    0    0    0 -0.00000000000E+00 -0.00000000000E+00 -0.88089079318E+02  0.88089079318E+02  0.00000000000E+00 0. -1.
        -24    2    1    2    0    0  0.11319035197E+02 -0.96574081929E+02 -0.10309402496E+02  0.12861779728E+03  0.83555850411E+02 0.  0.
         25    2    1    2    0    0 -0.36595956874E+02  0.86246464733E+02  0.36666024256E+03  0.39857980049E+03  0.12509359354E+03 0.  0.
         24    2    1    2    0    0  0.25276921676E+02  0.10327617196E+02  0.69473789989E+03  0.70006930082E+03  0.81796662333E+02 0.  0.
        -13    1    5    5    0    0 -0.27524764880E+02 -0.57848132167E+00  0.13749849682E+03  0.14022761479E+03  0.00000000000E+00 0.  1.
         14    1    5    5    0    0  0.52801686556E+02  0.10906098518E+02  0.55723940307E+03  0.55984168603E+03  0.00000000000E+00 0. -1.
         11    1    3    3    0    0  0.32433558746E+02 -0.10146897440E+03 -0.82361283041E+01  0.10684438361E+03  0.00000000000E+00 0. -1.
        -12    1    3    3    0    0 -0.21114523549E+02  0.48948924701E+01 -0.20732741921E+01  0.21773413670E+02  0.00000000000E+00 0.  1.
          5    1    4    4  501    0  0.22200981384E+02  0.81748620649E+02  0.28770478309E+03  0.29994538697E+03  0.41800000000E+01 0. -1.
         -5    1    4    4    0  501 -0.58796938258E+02  0.44978440837E+01  0.78955459468E+02  0.98634413517E+02  0.41800000000E+01 0. -1.
</event>
<event>
11    1  0.8864208E-009  0.1402416E+03  0.7561462E-02  0.1107289E+00
         22   -1    0    0    0    0  0.00000000000E+00  0.00000000000E+00  0.27864518392E+03  0.27864518392E+03  0.00000000000E+00 0.  1.
         22   -1    0    0    0    0 -0.00000000000E+00 -0.00000000000E+00 -0.13944350940E+04  0.13944350940E+04  0.00000000000E+00 0.  1.
        -24    2    1    2    0    0  0.47428023580E+02  0.16550999333E+02 -0.11543013789E+04  0.11581266219E+04  0.79512553402E+02 0.  0.
         25    2    1    2    0    0  0.11257245533E+01 -0.58959755488E+02 -0.20674697353E+03  0.24873585031E+03  0.12509073564E+03 0.  0.
         24    2    1    2    0    0 -0.48553748133E+02  0.42408756155E+02  0.24525844230E+03  0.26621780571E+03  0.81020043818E+02 0.  0.
        -13    1    5    5    0    0  0.70106022242E+00  0.52217569721E+02  0.14427025672E+03  0.15343100419E+03  0.00000000000E+00 0.  1.
         14    1    5    5    0    0 -0.49254808356E+02 -0.98088135660E+01  0.10098818558E+03  0.11278680152E+03  0.00000000000E+00 0. -1.
         11    1    3    3    0    0  0.44455956228E+02 -0.14881327221E+02 -0.34039730461E+03  0.34361040573E+03  0.00000000000E+00 0. -1.
        -12    1    3    3    0    0  0.29720673515E+01  0.31432326554E+02 -0.81390407426E+03  0.81451621619E+03  0.00000000000E+00 0.  1.
          5    1    4    4  501    0  0.30606723516E+02 -0.75702058917E+02 -0.19687514169E+03  0.21317801731E+03  0.41800000000E+01 0. -1.
         -5    1    4    4    0  501 -0.29480998963E+02  0.16742303429E+02 -0.98718318412E+01  0.35557833003E+02  0.41800000000E+01 0. -1.
</event>
<event>
11    1  0.8864208E-009  0.1350730E+03  0.7561462E-02  0.1113188E+00
         22   -1    0    0    0    0  0.00000000000E+00  0.00000000000E+00  0.42016431599E+03  0.42016431599E+03  0.00000000000E+00 0. -1.
         22   -1    0    0    0    0 -0.00000000000E+00 -0.00000000000E+00 -0.89317676820E+03  0.89317676820E+03  0.00000000000E+00 0.  1.
         24    2    1    2    0    0 -0.41529224063E+02  0.33824553423E+02 -0.74716918620E+03  0.75336831883E+03  0.80207569046E+02 0.  0.
         25    2    1    2    0    0  0.43381289823E+02  0.17963346150E+02 -0.10433260659E+03  0.16951840443E+03  0.12508628434E+03 0.  0.
        -24    2    1    2    0    0 -0.18520657599E+01 -0.51787899573E+02  0.37848934059E+03  0.39045436094E+03  0.80715613991E+02 0.  0.
        -13    1    3    3    0    0 -0.44311480450E+02  0.23589727609E+02 -0.73689124049E+03  0.73859913543E+03  0.00000000000E+00 0.  1.
         14    1    3    3    0    0  0.27822563873E+01  0.10234825814E+02 -0.10277945713E+02  0.14769183394E+02  0.00000000000E+00 0. -1.
         11    1    5    5    0    0 -0.97350682928E+01 -0.63756976457E+02  0.36538850718E+03  0.37103703964E+03  0.00000000000E+00 0. -1.
        -12    1    5    5    0    0  0.78830025329E+01  0.11969076884E+02  0.13100833411E+02  0.19417321299E+02  0.00000000000E+00 0.  1.
          5    1    4    4  501    0  0.64613832153E+02  0.18775742285E+02 -0.47223952242E+01  0.67581426594E+02  0.41800000000E+01 0.  1.
         -5    1    4    4    0  501 -0.21232542330E+02 -0.81239613453E+00 -0.99610211367E+02  0.10193697783E+03  0.41800000000E+01 0.  1.
</event>
<event>
11    1  0.8864208E-009  0.2444965E+03  0.7561462E-02  0.1026873E+00
         22   -1    0    0    0    0  0.00000000000E+00  0.00000000000E+00  0.11943443474E+04  0.11943443474E+04  0.00000000000E+00 0. -1.
         22   -1    0    0    0    0 -0.00000000000E+00 -0.00000000000E+00 -0.19243630800E+03  0.19243630800E+03  0.00000000000E+00 0.  1.
         24    2    1    2    0    0 -0.20800309639E+03  0.35191145100E+01 -0.84614114076E+02  0.23756182988E+03  0.77449354040E+02 0.  0.
         25    2    1    2    0    0  0.22562555001E+03 -0.14727803403E+02  0.56452619707E+03  0.62085584227E+03  0.12509337590E+03 0.  0.
        -24    2    1    2    0    0 -0.17622453617E+02  0.11208688893E+02  0.52199595645E+03  0.52836298330E+03  0.79066288592E+02 0.  0.
        -13    1    3    3    0    0 -0.15136264882E+03  0.11913399779E+02 -0.23195273379E+02  0.15359232161E+03  0.00000000000E+00 0.  1.
         14    1    3    3    0    0 -0.56640447573E+02 -0.83942852689E+01 -0.61418840697E+02  0.83969508270E+02  0.00000000000E+00 0. -1.
         11    1    5    5    0    0 -0.31423050535E+02  0.36032405890E+02  0.41178721508E+03  0.41455331729E+03  0.00000000000E+00 0. -1.
        -12    1    5    5    0    0  0.13800596918E+02 -0.24823716997E+02  0.11020874137E+03  0.11380966600E+03  0.00000000000E+00 0.  1.
          5    1    4    4  501    0  0.74354016057E+02 -0.58614463164E+02  0.28015061588E+03  0.29574653840E+03  0.41800000000E+01 0.  1.
         -5    1    4    4    0  501  0.15127153395E+03  0.43886659761E+02  0.28437558119E+03  0.32510930387E+03  0.41800000000E+01 0.  1.
</event>
<event>
11    1  0.8864208E-009  0.1554362E+03  0.7561462E-02  0.1091450E+00
         22   -1    0    0    0    0  0.00000000000E+00  0.00000000000E+00  0.88842573028E+03  0.88842573028E+03  0.00000000000E+00 0.  1.
         22   -1    0    0    0    0 -0.00000000000E+00 -0.00000000000E+00 -0.26436564278E+03  0.26436564278E+03  0.00000000000E+00 0.  1.
        -24    2    1    2    0    0 -0.95088006220E+02 -0.14113985892E+02 -0.21401311602E+03  0.24843997139E+03  0.81730484091E+02 0.  0.
         25    2    1    2    0    0 -0.11613875826E+02 -0.19200001107E+02  0.12709470286E+03  0.17972681343E+03  0.12508054132E+03 0.  0.
         24    2    1    2    0    0  0.10670188205E+03  0.33313986999E+02  0.71097850066E+03  0.72462458825E+03  0.84233319643E+02 0.  0.
        -13    1    5    5    0    0  0.63651829571E+02 -0.19972189714E+02  0.44467734333E+03  0.44965362607E+03  0.00000000000E+00 0.  1.
         14    1    5    5    0    0  0.43050052476E+02  0.53286176714E+02  0.26630115734E+03  0.27497096219E+03  0.00000000000E+00 0. -1.
         11    1    3    3    0    0 -0.22170991877E+02 -0.30707859324E+02 -0.25562936684E+02  0.45694520864E+02  0.00000000000E+00 0. -1.
        -12    1    3    3    0    0 -0.72917014343E+02  0.16593873432E+02 -0.18845017933E+03  0.20274545052E+03  0.00000000000E+00 0.  1.
          5    1    4    4  501    0 -0.69578030708E+01 -0.16439871112E+02 -0.23035320386E+02  0.29441106824E+02  0.41800000000E+01 0. -1.
         -5    1    4    4    0  501 -0.46560727552E+01 -0.27601299946E+01  0.15013002324E+03  0.15028570660E+03  0.41800000000E+01 0. -1.
</event>
<event>
11    1  0.8864208E-009  0.2150243E+03  0.7561462E-02  0.1044380E+00
         22   -1    0    0    0    0  0.00000000000E+00  0.00000000000E+00  0.54351127382E+03  0.54351127382E+03  0.00000000000E+00 0. -1.
         22   -1    0    0    0    0 -0.00000000000E+00 -0.00000000000E+00 -0.65739582679E+03  0.65739582679E+03  0.00000000000E+00 0.  1.
        -24    2    1    2    0    0  0.34147908007E+02  0.43039050103E+02 -0.56041087907E+03  0.56881928039E+03  0.80477207390E+02 0.  0.
         25    2    1    2    0    0 -0.12621136360E+03  0.11146744422E+03  0.99919903606E+02  0.23234911840E+03  0.12509127172E+03 0.  0.
         24    2    1    2    0    0  0.92063455596E+02 -0.15450649432E+03  0.34660642249E+03  0.39973870182E+03  0.85481465656E+02 0.  0.
        -13    1    5    5    0    0  0.43583663884E+02 -0.11152304058E+02  0.53738072411E+02  0.70083450755E+02  0.00000000000E+00 0.  1.
         14    1    5    5    0    0  0.48479791712E+02 -0.14335419026E+03  0.29286835008E+03  0.32965525106E+03  0.00000000000E+00 0. -1.
         11    1    3    3    0    0  0.42382520008E+02  0.45134332212E+02 -0.22677063576E+03  0.23507085568E+03  0.00000000000E+00 0. -1.
        -12    1    3    3    0    0 -0.82346120015E+01 -0.20952821088E+01 -0.33364024331E+03  0.33374842471E+03  0.00000000000E+00 0.  1.
          5    1    4    4  501    0 -0.12380983939E+02  0.77254821801E+01  0.74703496371E+02  0.76230286686E+02  0.41800000000E+01 0.  1.
         -5    1    4    4    0  501 -0.11383037966E+03  0.10374196204E+03  0.25216407236E+02  0.15611883171E+03  0.41800000000E+01 0.  1.
</event>
<event>
11    1  0.8864208E-009  0.1537611E+03  0.7561462E-02  0.1093096E+00
         22   -1    0    0    0    0  0.00000000000E+00  0.00000000000E+00  0.14007396666E+04  0.14007396666E+04  0.00000000000E+00 0. -1.
         22   -1    0    0    0    0 -0.00000000000E+00 -0.00000000000E+00 -0.61896468171E+02  0.61896468171E+02  0.00000000000E+00 0. -1.
        -24    2    1    2    0    0 -0.57214194846E+02  0.68651580057E+02  0.61391607373E+02  0.13553793145E+03  0.81333251930E+02 0.  0.
         25    2    1    2    0    0 -0.10351544611E+02 -0.11423749117E+03  0.31649170435E+03  0.35912983393E+03  0.12509947975E+03 0.  0.
         24    2    1    2    0    0  0.67565739457E+02  0.45585911114E+02  0.96095988673E+03  0.96796836941E+03  0.82919574526E+02 0.  0.
        -13    1    5    5    0    0  0.16284299950E+02  0.31989513739E+02  0.11796041717E+03  0.12330112503E+03  0.00000000000E+00 0.  1.
         14    1    5    5    0    0  0.51281439507E+02  0.13596397375E+02  0.84299946956E+03  0.84466724438E+03  0.00000000000E+00 0. -1.
         11    1    3    3    0    0 -0.31677265048E+02  0.83848671042E+02  0.36523066447E+02  0.96788341958E+02  0.00000000000E+00 0. -1.
        -12    1    3    3    0    0 -0.25536929798E+02 -0.15197090985E+02  0.24868540925E+02  0.38749589490E+02  0.00000000000E+00 0.  1.
          5    1    4    4  501    0 -0.34475530308E+02 -0.99279863302E+02  0.31303381448E+03  0.33023127480E+03  0.41800000000E+01 0.  1.
         -5    1    4    4    0  501  0.24123985697E+02 -0.14957627869E+02  0.34578898634E+01  0.28898559128E+02  0.41800000000E+01 0.  1.
</event>
<event>
11    1  0.8864208E-009  0.1334186E+03  0.7561462E-02  0.1115139E+00
         22   -1    0    0    0    0  0.00000000000E+00  0.00000000000E+00  0.29738580283E+03  0.29738580283E+03  0.00000000000E+00 0.  1.
         22   -1    0    0    0    0 -0.00000000000E+00 -0.00000000000E+00 -0.53335248917E+03  0.53335248917E+03  0.00000000000E+00 0.  1.
         24    2    1    2    0    0 -0.35627810943E+02 -0.33105262927E+02 -0.45326535217E+03  0.46350892998E+03  0.83819743197E+02 0.  0.
         25    2    1    2    0    0  0.17860413767E+02  0.10203801065E+02 -0.70439987301E+01  0.12697122275E+03  0.12509580949E+03 0.  0.
        -24    2    1    2    0    0  0.17767397176E+02  0.22901461863E+02  0.22434266456E+03  0.24025813927E+03  0.80957921095E+02 0.  0.
        -13    1    3    3    0    0 -0.62228177013E+02 -0.23020996613E+02 -0.35760755259E+03  0.36371070093E+03  0.00000000000E+00 0.  1.
         14    1    3    3    0    0  0.26600366069E+02 -0.10084266314E+02 -0.95657799575E+02  0.99798229050E+02  0.00000000000E+00 0. -1.
         11    1    5    5    0    0 -0.20852862056E+02 -0.11933561654E+02  0.13294490627E+03  0.13509848206E+03  0.00000000000E+00 0. -1.
        -12    1    5    5    0    0  0.38620259232E+02  0.34835023517E+02  0.91397758281E+02  0.10515965721E+03  0.00000000000E+00 0.  1.
          5    1    4    4  501    0 -0.31241390596E+02 -0.28427453423E+02  0.32020008176E+02  0.53168580177E+02  0.41800000000E+01 0. -1.
         -5    1    4    4    0  501  0.49101804363E+02  0.38631254488E+02 -0.39064006906E+02  0.73802642572E+02  0.41800000000E+01 0. -1.
</event>
<event>
11    1  0.8864208E-009  0.1367674E+03  0.7561462E-02  0.1111223E+00
         22   -1    0    0    0    0  0.00000000000E+00  0.00000000000E+00  0.21038103590E+04  0.21038103590E+04  0.00000000000E+00 0. -1.
         22   -1    0    0    0    0 -0.00000000000E+00 -0.00000000000E+00 -0.32943893682E+02  0.32943893682E+02  0.00000000000E+00 0.  1.
         24    2    1    2    0    0  0.52324860964E+02 -0.80540512134E+01  0.76215168581E+02  0.12181433185E+03  0.78912741093E+02 0.  0.
         25    2    1    2    0    0 -0.60858989727E+02  0.54471773199E+02  0.64368199585E+03  0.66079128935E+03  0.12509046959E+03 0.  0.
        -24    2    1    2    0    0  0.85341287627E+01 -0.46417721986E+02  0.13509693009E+04  0.13541486315E+04  0.79831246714E+02 0.  0.
        -11    1    3    3    0    0  0.62604018864E+02  0.17153405748E+02  0.66450426973E+02  0.92893281520E+02  0.00000000000E+00 0.  1.
         12    1    3    3    0    0 -0.10279157900E+02 -0.25207456961E+02  0.97647416079E+01  0.28921050331E+02  0.00000000000E+00 0. -1.
         11    1    5    5    0    0  0.49978065224E+01 -0.63248008976E+02  0.12582068138E+04  0.12598054116E+04  0.00000000000E+00 0. -1.
        -12    1    5    5    0    0  0.35363222404E+01  0.16830286990E+02  0.92762487067E+02  0.94343219905E+02  0.00000000000E+00 0.  1.
          5    1    4    4  501    0 -0.50614896633E+02  0.60353455317E+02  0.64344189210E+03  0.64825870471E+03  0.41800000000E+01 0. -1.
         -5    1    4    4    0  501 -0.10244093093E+02 -0.58816821179E+01  0.24010375927E+00  0.12532584636E+02  0.41800000000E+01 0. -1.
</event>
<event>
11    1  0.8864208E-009  0.1453271E+03  0.7561462E-02  0.1101752E+00
         22   -1    0    0    0    0  0.00000000000E+00  0.00000000000E+00  0.24769544272E+03  0.24769544272E+03  0.00000000000E+00 0.  1.
         22   -1    0    0    0    0 -0.00000000000E+00 -0.00000000000E+00 -0.17015163371E+04  0.17015163371E+04  0.00000000000E+00 0. -1.
        -24    2    1    2    0    0  0.81840900317E+02  0.19152159645E+02 -0.14926945255E+04  0.14974728351E+04  0.84989452963E+02 0.  0.
         25    2    1    2    0    0 -0.14752983460E+02  0.26507523096E+02 -0.16531647402E+03  0.20951594140E+03  0.12508834405E+03 0.  0.
         24    2    1    2    0    0 -0.67087916857E+02 -0.45659682741E+02  0.20419010517E+03  0.24222300334E+03  0.10194502970E+03 0.  0.
        -11    1    5    5    0    0 -0.21650491610E+02 -0.22672238858E+02  0.18526494160E+03  0.18789857048E+03  0.00000000000E+00 0.  1.
         12    1    5    5    0    0 -0.45437425247E+02 -0.22987443883E+02  0.18925163568E+02  0.54324432859E+02  0.00000000000E+00 0. -1.
         13    1    3    3    0    0  0.88207737878E+02  0.38675207022E+02 -0.10868808132E+04  0.10911398988E+04  0.00000000000E+00 0. -1.
        -14    1    3    3    0    0 -0.63668375614E+01 -0.19523047377E+02 -0.40581371231E+03  0.40633293627E+03  0.00000000000E+00 0.  1.
          5    1    4    4  501    0 -0.19353833638E+02  0.75313173859E+02 -0.11709698074E+03  0.14062652783E+03  0.41800000000E+01 0.  1.
         -5    1    4    4    0  501  0.46008501775E+01 -0.48805650763E+02 -0.48219493283E+02  0.68889413564E+02  0.41800000000E+01 0.  1.
</event>
<event>
11    1  0.8864208E-009  0.1416146E+03  0.7561462E-02  0.1105769E+00
         22   -1    0    0    0    0  0.00000000000E+00  0.00000000000E+00  0.11483427374E+04  0.11483427374E+04  0.00000000000E+00 0. -1.
         22   -1    0    0    0    0 -0.00000000000E+00 -0.00000000000E+00 -0.93831523203E+03  0.93831523203E+03  0.00000000000E+00 0. -1.
         24    2    1    2    0    0  0.32884468700E+02 -0.25492018390E+02 -0.82436025047E+03  0.82934665484E+03  0.80714435227E+02 0.  0.
         25    2    1    2    0    0  0.33557185436E+02  0.15518260245E+02 -0.69956742868E+02  0.14801705317E+03  0.12509276982E+03 0.  0.
        -24    2    1    2    0    0 -0.66441654136E+02  0.99737581445E+01  0.11043444987E+04  0.11092942614E+04  0.80268407920E+02 0.  0.
        -11    1    3    3    0    0 -0.39172480898E+01  0.16220681869E+02 -0.44842865551E+02  0.47847026488E+02  0.00000000000E+00 0.  1.
         12    1    3    3    0    0  0.36801716789E+02 -0.41712700259E+02 -0.77951738492E+03  0.78149962835E+03  0.00000000000E+00 0. -1.
         11    1    5    5    0    0 -0.79241868581E+02  0.66281365137E+01  0.10609976602E+04  0.10639733271E+04  0.00000000000E+00 0. -1.
        -12    1    5    5    0    0  0.12800214445E+02  0.33456216308E+01  0.43346838582E+02  0.45320934335E+02  0.00000000000E+00 0.  1.
          5    1    4    4  501    0  0.45050045941E+02 -0.36988348181E+02 -0.73603498478E+02  0.93981870213E+02  0.41800000000E+01 0.  1.
         -5    1    4    4    0  501 -0.11492860505E+02  0.52506608426E+02  0.36467556103E+01  0.54035182960E+02  0.41800000000E+01 0.  1.
</event>
<event>
11    1  0.8864208E-009  0.2571026E+03  0.7561462E-02  0.1020182E+00
         22   -1    0    0    0    0  0.00000000000E+00  0.00000000000E+00  0.28938397193E+04  0.28938397193E+04  0.00000000000E+00 0.  1.
         22   -1    0    0    0    0 -0.00000000000E+00 -0.00000000000E+00 -0.51912430970E+02  0.51912430970E+02  0.00000000000E+00 0.  1.
        -24    2    1    2    0    0 -0.36890883402E+02  0.10822719475E+01  0.86187386176E+02  0.12507068917E+03  0.82778639538E+02 0.  0.
         25    2    1    2    0    0  0.19639341091E+03 -0.15114159995E+03  0.71703003510E+03  0.76889447984E+03  0.12510993089E+03 0.  0.
         24    2    1    2    0    0 -0.15950252751E+03  0.15005932800E+03  0.20387098670E+04  0.20517869813E+04  0.74384381651E+02 0.  0.
        -13    1    5    5    0    0 -0.91875477571E+02  0.93388283296E+02  0.87694102471E+03  0.88667245116E+03  0.00000000000E+00 0.  1.
         14    1    5    5    0    0 -0.67627049938E+02  0.56671044703E+02  0.11617688423E+04  0.11651145301E+04  0.00000000000E+00 0. -1.
         11    1    3    3    0    0  0.26859767340E+02  0.81121441159E+00  0.26415513665E+02  0.37681355238E+02  0.00000000000E+00 0. -1.
        -12    1    3    3    0    0 -0.63750650742E+02  0.27105753588E+00  0.59771872511E+02  0.87389333935E+02  0.00000000000E+00 0.  1.
          5    1    4    4  501    0  0.86327201043E+01  0.11421527593E+02  0.66312888596E+01  0.16322424480E+02  0.41800000000E+01 0.  1.
         -5    1    4    4    0  501  0.18776069081E+03 -0.16256312754E+03  0.71039874624E+03  0.75257205536E+03  0.41800000000E+01 0.  1.
</event>
<event>
11    1  0.8864208E-009  0.3272960E+03  0.7561462E-02  0.9892579E-01
         22   -1    0    0    0    0  0.00000000000E+00  0.00000000000E+00  0.57725955995E+03  0.57725955995E+03  0.00000000000E+00 0. -1.
         22   -1    0    0    0    0 -0.00000000000E+00 -0.00000000000E+00 -0.14630067772E+04  0.14630067772E+04  0.00000000000E+00 0. -1.
         24    2    1    2    0    0 -0.61116017357E+02  0.20427839963E+02 -0.11737139440E+04  0.11796423954E+04  0.98991385816E+02 0.  0.
         25    2    1    2    0    0  0.93038558956E+02 -0.31589804986E+03 -0.98974530413E+02  0.36591184495E+03  0.12509104381E+03 0.  0.
        -24    2    1    2    0    0 -0.31922541599E+02  0.29547020990E+03  0.38694125717E+03  0.49471209679E+03  0.81821932343E+02 0.  0.
        -11    1    3    3    0    0 -0.17691756677E+02  0.34061023544E+02 -0.14725419266E+03  0.15217407412E+03  0.00000000000E+00 0.  1.
         12    1    3    3    0    0 -0.43424260680E+02 -0.13633183581E+02 -0.10264597514E+04  0.10274683213E+04  0.00000000000E+00 0. -1.
         13    1    5    5    0    0 -0.37956919205E+02  0.25399646958E+03  0.36792033912E+03  0.44868731898E+03  0.00000000000E+00 0. -1.
        -14    1    5    5    0    0  0.60343776065E+01  0.41473740316E+02  0.19020918045E+02  0.46024777807E+02  0.00000000000E+00 0.  1.
          5    1    4    4  501    0  0.12125580647E+03 -0.28735101321E+03 -0.87862005795E+02  0.32405366818E+03  0.41800000000E+01 0.  1.
         -5    1    4    4    0  501 -0.28217247518E+02 -0.28547036649E+02 -0.11112524618E+02  0.41858176768E+02  0.41800000000E+01 0.  1.
</event>
<event>
11    1  0.8864208E-009  0.1531766E+03  0.7561462E-02  0.1093676E+00
         22   -1    0    0    0    0  0.00000000000E+00  0.00000000000E+00  0.25992000511E+04  0.25992000511E+04  0.00000000000E+00 0.  1.
         22   -1    0    0    0    0 -0.00000000000E+00 -0.00000000000E+00 -0.42147945091E+03  0.42147945091E+03  0.00000000000E+00 0.  1.
        -24    2    1    2    0    0 -0.15712634398E+02 -0.84931722138E+02 -0.37330510813E+03  0.39113996459E+03  0.78571520519E+02 0.  0.
         25    2    1    2    0    0  0.24004448692E+02  0.13943679583E+03  0.19485155029E+03  0.27135567297E+03  0.12509173041E+03 0.  0.
         24    2    1    2    0    0 -0.82918142945E+01 -0.54505073695E+02  0.23561741580E+04  0.23581838644E+04  0.80217942898E+02 0.  0.
        -11    1    5    5    0    0 -0.32156349281E+02 -0.28089433553E+02  0.19458338827E+04  0.19463022751E+04  0.00000000000E+00 0.  1.
         12    1    5    5    0    0  0.23864534987E+02 -0.26415640142E+02  0.41034027528E+03  0.41188158929E+03  0.00000000000E+00 0. -1.
         11    1    3    3    0    0  0.84042955532E+01 -0.89415947377E+01 -0.33898332428E+01  0.12730878588E+02  0.00000000000E+00 0. -1.
        -12    1    3    3    0    0 -0.24116929951E+02 -0.75990127400E+02 -0.36991527489E+03  0.37840908600E+03  0.00000000000E+00 0.  1.
          5    1    4    4  501    0  0.58429370571E+02  0.11822882680E+03  0.92250723883E+02  0.16099601016E+03  0.41800000000E+01 0. -1.
         -5    1    4    4    0  501 -0.34424921879E+02  0.21207969037E+02  0.10260082641E+03  0.11035966281E+03  0.41800000000E+01 0. -1.
</event>
<event>
11    1  0.8864208E-009  0.1355612E+03  0.7561462E-02  0.1112619E+00
         22   -1    0    0    0    0  0.00000000000E+00  0.00000000000E+00  0.66979276286E+03  0.66979276286E+03  0.00000000000E+00 0.  1.
         22   -1    0    0    0    0 -0.00000000000E+00 -0.00000000000E+00 -0.25355459393E+03  0.25355459393E+03  0.00000000000E+00 0.  1.
        -24    2    1    2    0    0  0.19664442091E+02  0.37093676950E+02 -0.21377481636E+03  0.23165321446E+03  0.78745847554E+02 0.  0.
         25    2    1    2    0    0  0.17644370177E+02 -0.70392708980E+02  0.17959339151E+03  0.23058519903E+03  0.12509712411E+03 0.  0.
         24    2    1    2    0    0 -0.37308812268E+02  0.33299032030E+02  0.45041959378E+03  0.46110894331E+03  0.85105076974E+02 0.  0.
        -13    1    5    5    0    0 -0.49784446958E+02  0.17983024823E+02  0.42786473796E+03  0.43112656417E+03  0.00000000000E+00 0.  1.
         14    1    5    5    0    0  0.12475634690E+02  0.15316007207E+02  0.22554855822E+02  0.29982379139E+02  0.00000000000E+00 0. -1.
         13    1    3    3    0    0  0.15340700834E+02  0.19538761285E+01 -0.51366924968E+00  0.15473157083E+02  0.00000000000E+00 0. -1.
        -14    1    3    3    0    0  0.43237412571E+01  0.35139800821E+02 -0.21326114711E+03  0.21618005738E+03  0.00000000000E+00 0.  1.
          5    1    4    4  501    0  0.69382499959E+02 -0.32520127133E+02  0.71785509582E+02  0.10508150054E+03  0.41800000000E+01 0. -1.
         -5    1    4    4    0  501 -0.51738129782E+02 -0.37872581847E+02  0.10780788193E+03  0.12550369849E+03  0.41800000000E+01 0. -1.
</event>
<event>
11    1  0.8864208E-009  0.1386048E+03  0.7561462E-02  0.1109126E+00
         22   -1    0    0    0    0  0.00000000000E+00  0.00000000000E+00  0.22158179401E+03  0.22158179401E+03  0.00000000000E+00 0. -1.
         22   -1    0    0    0    0 -0.00000000000E+00 -0.00000000000E+00 -0.16038754869E+04  0.16038754869E+04  0.00000000000E+00 0. -1.
        -24    2    1    2    0    0 -0.30447741582E+02  0.51015346684E+02 -0.13320745201E+04  0.13357315694E+04  0.78909236539E+02 0.  0.
         25    2    1    2    0    0  0.31885458659E+02 -0.53888129711E+02 -0.24316729456E+03  0.28053270008E+03  0.12509056587E+03 0.  0.
         24    2    1    2    0    0 -0.14377170771E+01  0.28727830271E+01  0.19294812182E+03  0.20919301146E+03  0.80761490931E+02 0.  0.
        -13    1    5    5    0    0  0.37491109672E+02 -0.83961458553E+01  0.71605174732E+02  0.81261181496E+02  0.00000000000E+00 0.  1.
         14    1    5    5    0    0 -0.38928826749E+02  0.11268928882E+02  0.12134294709E+03  0.12793182997E+03  0.00000000000E+00 0. -1.
         13    1    3    3    0    0 -0.15926355456E+02  0.12543714952E+01 -0.95249026109E+03  0.95262422797E+03  0.00000000000E+00 0. -1.
        -14    1    3    3    0    0 -0.14521386126E+02  0.49760975189E+02 -0.37958425904E+03  0.38310734138E+03  0.00000000000E+00 0.  1.
          5    1    4    4  501    0 -0.19948101035E+02  0.17009246139E+02 -0.54823271004E+01  0.27106632022E+02  0.41800000000E+01 0.  1.
         -5    1    4    4    0  501  0.51833559694E+02 -0.70897375850E+02 -0.23768496746E+03  0.25342606806E+03  0.41800000000E+01 0.  1.
</event>
<event>
11    1  0.8864208E-009  0.5890498E+03  0.7561462E-02  0.9213962E-01
         22   -1    0    0    0    0  0.00000000000E+00  0.00000000000E+00  0.19636736963E+04  0.19636736963E+04  0.00000000000E+00 0. -1.
         22   -1    0    0    0    0 -0.00000000000E+00 -0.00000000000E+00 -0.24882074403E+03  0.24882074403E+03  0.00000000000E+00 0. -1.
        -24    2    1    2    0    0 -0.33279213701E+02 -0.10380331312E+03  0.39720430821E+02  0.14063511355E+03  0.79485147417E+02 0.  0.
         25    2    1    2    0    0 -0.54826585271E+03 -0.17938788200E+02  0.50049371999E+03  0.75303315992E+03  0.12509089023E+03 0.  0.
         24    2    1    2    0    0  0.58154506641E+03  0.12174210132E+03  0.11746388014E+04  0.13188261668E+04  0.80686684167E+02 0.  0.
        -11    1    5    5    0    0  0.25840295827E+03  0.36348378077E+02  0.43671391913E+03  0.50873602251E+03  0.00000000000E+00 0.  1.
         12    1    5    5    0    0  0.32314210814E+03  0.85393723242E+02  0.73792488231E+03  0.81009014434E+03  0.00000000000E+00 0. -1.
         11    1    3    3    0    0  0.25033381615E+02 -0.35028191838E+02  0.23397798813E+02  0.49001034763E+02  0.00000000000E+00 0. -1.
        -12    1    3    3    0    0 -0.58312595316E+02 -0.68775121281E+02  0.16322632008E+02  0.91634078788E+02  0.00000000000E+00 0.  1.
          5    1    4    4  501    0 -0.49530474798E+03 -0.46798689832E+02  0.41260126282E+03  0.64635453524E+03  0.41800000000E+01 0. -1.
         -5    1    4    4    0  501 -0.52961104733E+02  0.28859901632E+02  0.87892457177E+02  0.10667862469E+03  0.41800000000E+01 0. -1.
</event>
<event>
11    1  0.8864208E-009  0.1291806E+03  0.7561462E-02  0.1120280E+00
         22   -1    0    0    0    0  0.00000000000E+00  0.00000000000E+00  0.12275056214E+04  0.12275056214E+04  0.00000000000E+00 0. -1.
         22   -1    0    0    0    0 -0.00000000000E+00 -0.00000000000E+00 -0.29663158774E+03  0.29663158774E+03  0.00000000000E+00 0. -1.
         24    2    1    2    0    0  0.20411232639E+02  0.16006557952E+02 -0.24521307171E+03  0.25926985066E+03  0.80116019676E+02 0.  0.
         25    2    1    2    0    0 -0.44814350048E+02  0.47328156743E+01  0.60680244262E+02  0.14615576240E+03  0.12509472141E+03 0.  0.
        -24    2    1    2    0    0  0.24403117409E+02 -0.20739373627E+02  0.11154068611E+04  0.11187115961E+04  0.79734155928E+02 0.  0.
        -11    1    3    3    0    0 -0.25779347333E+02 -0.13436141562E+02 -0.96799678623E+02  0.10107068037E+03  0.00000000000E+00 0.  1.
         12    1    3    3    0    0  0.46190579972E+02  0.29442699515E+02 -0.14841339309E+03  0.15819917029E+03  0.00000000000E+00 0. -1.
         13    1    5    5    0    0  0.28691503598E+01 -0.49532587311E+02  0.59587109568E+03  0.59793316675E+03  0.00000000000E+00 0. -1.
        -14    1    5    5    0    0  0.21533967049E+02  0.28793213684E+02  0.51953576546E+03  0.52077842935E+03  0.00000000000E+00 0.  1.
          5    1    4    4  501    0  0.36642117039E+02  0.23427838049E+02  0.41601405286E+02  0.60329575322E+02  0.41800000000E+01 0.  1.
         -5    1    4    4    0  501 -0.81456467088E+02 -0.18695022375E+02  0.19078838977E+02  0.85826187080E+02  0.41800000000E+01 0.  1.
</event>
<event>
11    1  0.8864208E-009  0.1364583E+03  0.7561462E-02  0.1111579E+00
         22   -1    0    0    0    0  0.00000000000E+00  0.00000000000E+00  0.99150642168E+03  0.99150642168E+03  0.00000000000E+00 0. -1.
         22   -1    0    0    0    0 -0.00000000000E+00 -0.00000000000E+00 -0.11032537737E+04  0.11032537737E+04  0.00000000000E+00 0.  1.
        -24    2    1    2    0    0  0.23706069774E+02  0.23352862303E+02 -0.55706034571E+03  0.56418189641E+03  0.82931595595E+02 0.  0.
         25    2    1    2    0    0  0.24927242003E+02 -0.48117010187E+02 -0.53164759991E+03  0.54884716297E+03  0.12508966284E+03 0.  0.
         24    2    1    2    0    0 -0.48633311777E+02  0.24764147883E+02  0.97696059359E+03  0.98173113601E+03  0.79784459329E+02 0.  0.
        -11    1    5    5    0    0 -0.30547493304E+02 -0.10442604715E+02  0.78842466150E+03  0.78908532124E+03  0.00000000000E+00 0.  1.
         12    1    5    5    0    0 -0.18085818473E+02  0.35206752598E+02  0.18853593209E+03  0.19264581477E+03  0.00000000000E+00 0. -1.
         13    1    3    3    0    0  0.10511967056E+02 -0.25579745694E+02 -0.34675822351E+03  0.34785929686E+03  0.00000000000E+00 0. -1.
        -14    1    3    3    0    0  0.13194102718E+02  0.48932607997E+02 -0.21030212220E+03  0.21632259955E+03  0.00000000000E+00 0.  1.
          5    1    4    4  501    0  0.19266420044E+02  0.20990791980E+02 -0.39021619790E+03  0.39127734639E+03  0.41800000000E+01 0. -1.
         -5    1    4    4    0  501  0.56608219591E+01 -0.69107802166E+02 -0.14143140201E+03  0.15756981659E+03  0.41800000000E+01 0. -1.
</event>
<event>
11    1  0.8864208E-009  0.1429962E+03  0.7561462E-02  0.1104258E+00
         22   -1    0    0    0    0  0.00000000000E+00  0.00000000000E+00  0.20829831349E+04  0.20829831349E+04  0.00000000000E+00 0. -1.
         22   -1    0    0    0    0 -0.00000000000E+00 -0.00000000000E+00 -0.69161661228E+02  0.69161661228E+02  0.00000000000E+00 0. -1.
         24    2    1    2    0    0 -0.39162050442E+02 -0.50791494342E+02  0.41853153602E+02  0.11085061841E+03  0.80141943089E+02 0.  0.
         25    2    1    2    0    0  0.56603363939E+02 -0.18052084781E+02  0.11167535745E+03  0.17790132358E+03  0.12509067469E+03 0.  0.
        -24    2    1    2    0    0 -0.17441313497E+02  0.68843579123E+02  0.18602929626E+04  0.18633928541E+04  0.80618759019E+02 0.  0.
        -11    1    3    3    0    0 -0.15739694930E+02  0.44526378193E+01  0.47829653714E+02  0.50549379367E+02  0.00000000000E+00 0.  1.
         12    1    3    3    0    0 -0.23422355513E+02 -0.55244132161E+02 -0.59765001120E+01  0.60301239039E+02  0.00000000000E+00 0. -1.
         11    1    5    5    0    0 -0.57763917397E+01  0.60209252906E+02  0.18109514762E+04  0.18119613048E+04  0.00000000000E+00 0. -1.
        -12    1    5    5    0    0 -0.11664921757E+02  0.86343262168E+01  0.49341486386E+02  0.51431549341E+02  0.00000000000E+00 0.  1.
          5    1    4    4  501    0  0.64961064937E+02 -0.56500246383E+02  0.37847320520E+02  0.94138779839E+02  0.41800000000E+01 0. -1.
         -5    1    4    4    0  501 -0.83577009973E+01  0.38448161601E+02  0.73828036932E+02  0.83762543739E+02  0.41800000000E+01 0. -1.
</event>
<event>
11    1  0.8864208E-009  0.2062508E+03  0.7561462E-02  0.1050189E+00
         22   -1    0    0    0    0  0.00000000000E+00  0.00000000000E+00  0.10665238514E+04  0.10665238514E+04  0.00000000000E+00 0.  1.
         22   -1    0    0    0    0 -0.00000000000E+00 -0.00000000000E+00 -0.72538020220E+02  0.72538020220E+02  0.00000000000E+00 0. -1.
        -24    2    1    2    0    0 -0.10447528741E+03 -0.15153751952E+03  0.15561037706E+03  0.25446946325E+03  0.81617478354E+02 0.  0.
         25    2    1    2    0    0  0.53165263079E+02  0.10692706440E+03  0.44884404846E+03  0.48100691422E+03  0.12508688733E+03 0.  0.
         24    2    1    2    0    0  0.51310024334E+02  0.44610455118E+02  0.38953140566E+03  0.40358549416E+03  0.80769572227E+02 0.  0.
        -13    1    5    5    0    0  0.27072079879E+02 -0.20935807315E+02  0.16148087685E+03  0.16506749870E+03  0.00000000000E+00 0.  1.
         14    1    5    5    0    0  0.24237944455E+02  0.65546262433E+02  0.22805052881E+03  0.23851799546E+03  0.00000000000E+00 0. -1.
         13    1    3    3    0    0 -0.41419948554E+02 -0.12692418615E+03  0.98656999322E+02  0.16600772477E+03  0.00000000000E+00 0. -1.
        -14    1    3    3    0    0 -0.63055338859E+02 -0.24613333371E+02  0.56953377738E+02  0.88461738475E+02  0.00000000000E+00 0.  1.
          5    1    4    4  501    0  0.50758772032E+02  0.81082549842E+02  0.44408311755E+03  0.45428858726E+03  0.41800000000E+01 0. -1.
         -5    1    4    4    0  501  0.24064910469E+01  0.25844514562E+02  0.47609309193E+01  0.26718326956E+02  0.41800000000E+01 0. -1.
</event>
<event>
11    1  0.8864208E-009  0.3131489E+03  0.7561462E-02  0.9947749E-01
         22   -1    0    0    0    0  0.00000000000E+00  0.00000000000E+00  0.27389095053E+04  0.27389095053E+04  0.00000000000E+00 0.  1.
         22   -1    0    0    0    0 -0.00000000000E+00 -0.00000000000E+00 -0.14066599963E+03  0.14066599963E+03  0.00000000000E+00 0.  1.
         24    2    1    2    0    0  0.46611387866E+02  0.66085912642E+02 -0.59956276881E+02  0.12912066136E+03  0.80854317909E+02 0.  0.
         25    2    1    2    0    0 -0.31913642548E+03 -0.91943720677E+02  0.87013405297E+03  0.93972499738E+03  0.12509234477E+03 0.  0.
        -24    2    1    2    0    0  0.27252503761E+03  0.25857808035E+02  0.17880657296E+04  0.18107298462E+04  0.81394104601E+02 0.  0.
        -11    1    3    3    0    0  0.51119610954E+02  0.74014627057E+02 -0.71144236211E+02  0.11468601479E+03  0.00000000000E+00 0.  1.
         12    1    3    3    0    0 -0.45082230875E+01 -0.79287144151E+01  0.11187959330E+02  0.14434646572E+02  0.00000000000E+00 0. -1.
         11    1    5    5    0    0  0.34828821120E+02 -0.20871774528E+02  0.18021466087E+03  0.18473224338E+03  0.00000000000E+00 0. -1.
        -12    1    5    5    0    0  0.23769621649E+03  0.46729582563E+02  0.16078510688E+04  0.16259976029E+04  0.00000000000E+00 0.  1.
          5    1    4    4  501    0 -0.22660108570E+03 -0.28371274076E+02  0.69576390892E+03  0.73229629972E+03  0.41800000000E+01 0. -1.
         -5    1    4    4    0  501 -0.92535339778E+02 -0.63572446601E+02  0.17437014406E+03  0.20742869766E+03  0.41800000000E+01 0. -1.
</event>
<event>
11    1  0.8864208E-009  0.1472840E+03  0.7561462E-02  0.1099687E+00
         22   -1    0    0    0    0  0.00000000000E+00  0.00000000000E+00  0.35009078879E+04  0.35009078879E+04  0.00000000000E+00 0. -1.
         22   -1    0    0    0    0 -0.00000000000E+00 -0.00000000000E+00 -0.24142467449E+04  0.24142467449E+04  0.00000000000E+00 0. -1.
         24    2    1    2    0    0  0.27230661545E+02 -0.34063208596E+02 -0.23865323050E+04  0.23882979732E+04  0.80801949363E+02 0.  0.
         25    2    1    2    0    0 -0.99942576572E+02  0.57608095918E+02  0.25405641706E+03  0.30577615092E+03  0.12508868891E+03 0.  0.
        -24    2    1    2    0    0  0.72711915027E+02 -0.23544887322E+02  0.32191370309E+04  0.32210805086E+04  0.81700885497E+02 0.  0.
        -11    1    3    3    0    0  0.45081000341E+02 -0.42050451794E+02 -0.11817130464E+04  0.11833200163E+04  0.00000000000E+00 0.  1.
         12    1    3    3    0    0 -0.17850338796E+02  0.79872431978E+01 -0.12048192586E+04  0.12049779569E+04  0.00000000000E+00 0. -1.
         11    1    5    5    0    0  0.84341617064E+02 -0.38624734840E+02  0.27118492613E+04  0.27134354230E+04  0.00000000000E+00 0. -1.
        -12    1    5    5    0    0 -0.11629702037E+02  0.15079847518E+02  0.50728776961E+03  0.50764508563E+03  0.00000000000E+00 0.  1.
          5    1    4    4  501    0  0.27411370333E+02  0.24034504006E+01  0.22577810823E+02  0.35838383598E+02  0.41800000000E+01 0. -1.
         -5    1    4    4    0  501 -0.12735394690E+03  0.55204645517E+02  0.23147860624E+03  0.26993776732E+03  0.41800000000E+01 0. -1.
</event>
<event>
11    1  0.8864208E-009  0.1465232E+03  0.7561462E-02  0.1100485E+00
         22   -1    0    0    0    0  0.00000000000E+00  0.00000000000E+00  0.12752906587E+04  0.12752906587E+04  0.00000000000E+00 0. -1.
         22   -1    0    0    0    0 -0.00000000000E+00 -0.00000000000E+00 -0.34899385224E+02  0.34899385224E+02  0.00000000000E+00 0.  1.
         24    2    1    2    0    0  0.25065964787E+02 -0.58901005698E+02  0.15890740376E+03  0.18907686922E+03  0.80005427575E+02 0.  0.
         25    2    1    2    0    0 -0.60609429838E+02  0.86998682463E+02  0.38572319648E+03  0.41913253869E+03  0.12508967564E+03 0.  0.
        -24    2    1    2    0    0  0.35543465051E+02 -0.28097676766E+02  0.69576067328E+03  0.70198063605E+03  0.81492831386E+02 0.  0.
        -11    1    3    3    0    0  0.32089320893E+02 -0.24596406666E+00  0.19205409295E+02  0.37398298891E+02  0.00000000000E+00 0.  1.
         12    1    3    3    0    0 -0.70233561064E+01 -0.58655041631E+02  0.13970199447E+03  0.15167857033E+03  0.00000000000E+00 0. -1.
         11    1    5    5    0    0  0.60234123244E+02 -0.27153266233E+02  0.42633924259E+03  0.43142855636E+03  0.00000000000E+00 0. -1.
        -12    1    5    5    0    0 -0.24690658192E+02 -0.94441053296E+00  0.26942143069E+03  0.27055207970E+03  0.00000000000E+00 0.  1.
          5    1    4    4  501    0 -0.69443122977E+02 -0.87346647073E+00  0.22727801494E+03  0.23768861720E+03  0.41800000000E+01 0. -1.
         -5    1    4    4    0  501  0.88336931392E+01  0.87872148934E+02  0.15844518154E+03  0.18144392149E+03  0.41800000000E+01 0. -1.
</event>
<event>
11    1  0.8864208E-009  0.1429857E+03  0.7561462E-02  0.1104269E+00
         22   -1    0    0    0    0  0.00000000000E+00  0.00000000000E+00  0.31033751425E+03  0.31033751425E+03  0.00000000000E+00 0. -1.
         22   -1    0    0    0    0 -0.00000000000E+00 -0.00000000000E+00 -0.71150783878E+03  0.71150783878E+03  0.00000000000E+00 0. -1.
        -24    2    1    2    0    0  0.56696996555E+02 -0.39658859121E+02 -0.66086523544E+03  0.66873573444E+03  0.75347518664E+02 0.  0.
         25    2    1    2    0    0 -0.60018970719E+02  0.39509705931E+02  0.10611545660E+03  0.17908519021E+03  0.12509085304E+03 0.  0.
         24    2    1    2    0    0  0.33219741648E+01  0.14915319088E+00  0.15357945431E+03  0.17402442839E+03  0.81772826357E+02 0.  0.
        -11    1    5    5    0    0 -0.17907297298E+02 -0.37432287018E+01 -0.63655702114E+00  0.18305416206E+02  0.00000000000E+00 0.  1.
         12    1    5    5    0    0  0.21229271463E+02  0.38923818926E+01  0.15421601133E+03  0.15571901218E+03  0.00000000000E+00 0. -1.
         11    1    3    3    0    0  0.36171148246E+02  0.66305368949E+01 -0.12007223858E+03  0.12557730074E+03  0.00000000000E+00 0. -1.
        -12    1    3    3    0    0  0.20525848309E+02 -0.46289396016E+02 -0.54079299687E+03  0.54315843369E+03  0.00000000000E+00 0.  1.
          5    1    4    4  501    0 -0.81344913273E+02 -0.84445578650E+01  0.94732801089E+02  0.12522013207E+03  0.41800000000E+01 0. -1.
         -5    1    4    4    0  501  0.21325942553E+02  0.47954263796E+02  0.11382655514E+02  0.53865058141E+02  0.41800000000E+01 0. -1.
</event>
<event>
11    1  0.8864208E-009  0.1836155E+03  0.7561462E-02  0.1066755E+00
         22   -1    0    0    0    0  0.00000000000E+00  0.00000000000E+00  0.12827999430E+04  0.12827999430E+04  0.00000000000E+00 0. -1.
         22   -1    0    0    0    0 -0.00000000000E+00 -0.00000000000E+00 -0.93605078260E+03  0.93605078260E+03  0.00000000000E+00 0.  1.
        -24    2    1    2    0    0  0.23677339405E+02  0.21010718438E+02 -0.84809866486E+03  0.85257090329E+03  0.81263356488E+02 0.  0.
         25    2    1    2    0    0 -0.15652369957E+03 -0.13985950941E+02  0.44815201658E+02  0.20579491497E+03  0.12509144407E+03 0.  0.
         24    2    1    2    0    0  0.13284636016E+03 -0.70247674970E+01  0.11500326236E+04  0.11604849073E+04  0.80328588013E+02 0.  0.
        -11    1    5    5    0    0  0.75877600088E+02 -0.32295562325E+02  0.85346116880E+03  0.85743593358E+03  0.00000000000E+00 0.  1.
         12    1    5    5    0    0  0.56968760074E+02  0.25270794828E+02  0.29657145475E+03  0.30304897372E+03  0.00000000000E+00 0. -1.
         13    1    3    3    0    0  0.35278745078E+02  0.43803132578E+02 -0.42579541845E+03  0.42949393785E+03  0.00000000000E+00 0. -1.
        -14    1    3    3    0    0 -0.11601405673E+02 -0.22792414140E+02 -0.42230324641E+03  0.42307696544E+03  0.00000000000E+00 0.  1.
          5    1    4    4  501    0 -0.86766641647E+02 -0.35935828181E+02  0.81005871524E+02  0.12409374469E+03  0.41800000000E+01 0.  1.
         -5    1    4    4    0  501 -0.69757057920E+02  0.21949877241E+02 -0.36190669866E+02  0.81701170285E+02  0.41800000000E+01 0.  1.
</event>
<event>
11    1  0.8864208E-009  0.1273917E+03  0.7561462E-02  0.1122516E+00
         22   -1    0    0    0    0  0.00000000000E+00  0.00000000000E+00  0.37022117691E+03  0.37022117691E+03  0.00000000000E+00 0. -1.
         22   -1    0    0    0    0 -0.00000000000E+00 -0.00000000000E+00 -0.67210595559E+03  0.67210595559E+03  0.00000000000E+00 0.  1.
        -24    2    1    2    0    0 -0.12159627088E+02 -0.20031736854E+02 -0.52510383570E+03  0.53388128847E+03  0.93520398292E+02 0.  0.
         25    2    1    2    0    0 -0.74214291364E+01  0.36356002870E+02 -0.10664929992E+03  0.16851796312E+03  0.12508954460E+03 0.  0.
         24    2    1    2    0    0  0.19581056225E+02 -0.16324266016E+02  0.32986835694E+03  0.33992788091E+03  0.78025200306E+02 0.  0.
        -13    1    5    5    0    0 -0.18127420188E+02 -0.29308558436E+02  0.83173261409E+02  0.90029919325E+02  0.00000000000E+00 0.  1.
         14    1    5    5    0    0  0.37708476413E+02  0.12984292420E+02  0.24669509554E+03  0.24989796159E+03  0.00000000000E+00 0. -1.
         13    1    3    3    0    0 -0.27052860302E+02 -0.35548534620E+02 -0.11741901738E+03  0.12562953955E+03  0.00000000000E+00 0. -1.
        -14    1    3    3    0    0  0.14893233214E+02  0.15516797766E+02 -0.40768481832E+03  0.40825174892E+03  0.00000000000E+00 0.  1.
          5    1    4    4  501    0  0.51704787157E+02  0.65307372266E+00 -0.15627010241E+02  0.54180138144E+02  0.41800000000E+01 0.  1.
         -5    1    4    4    0  501 -0.59126216293E+02  0.35702929148E+02 -0.91022289680E+02  0.11433782498E+03  0.41800000000E+01 0.  1.
</event>
<event>
11    1  0.8864208E-009  0.1725244E+03  0.7561462E-02  0.1075856E+00
         22   -1    0    0    0    0  0.00000000000E+00  0.00000000000E+00  0.45607403242E+03  0.45607403242E+03  0.00000000000E+00 0. -1.
         22   -1    0    0    0    0 -0.00000000000E+00 -0.00000000000E+00 -0.20574643847E+03  0.20574643847E+03  0.00000000000E+00 0. -1.
         24    2    1    2    0    0  0.15482111432E+02 -0.53214455528E+02 -0.10754154128E+03  0.14178103871E+03  0.73927030130E+02 0.  0.
         25    2    1    2    0    0 -0.13019035412E+03  0.57973466825E+02  0.73805475582E+02  0.20348289214E+03  0.12509031940E+03 0.  0.
        -24    2    1    2    0    0  0.11470824268E+03 -0.47590112974E+01  0.28406365965E+03  0.31655654004E+03  0.79594291126E+02 0.  0.
        -13    1    3    3    0    0  0.28862680989E+01 -0.59478484905E+02 -0.37570653644E+02  0.70410047049E+02  0.00000000000E+00 0.  1.
         14    1    3    3    0    0  0.12595843333E+02  0.62640293771E+01 -0.69970887640E+02  0.71370991659E+02  0.00000000000E+00 0. -1.
         13    1    5    5    0    0  0.73576903210E+02 -0.36115688775E+02  0.12659736576E+03  0.15081378147E+03  0.00000000000E+00 0. -1.
        -14    1    5    5    0    0  0.41131339474E+02  0.31356677477E+02  0.15746629389E+03  0.16574275858E+03  0.00000000000E+00 0.  1.
          5    1    4    4  501    0 -0.13382384921E+03  0.11261932961E+02  0.26849017304E+02  0.13701823193E+03  0.41800000000E+01 0. -1.
         -5    1    4    4    0  501  0.36334950929E+01  0.46711533864E+02  0.46956458278E+02  0.66464660208E+02  0.41800000000E+01 0. -1.
</event>
<event>
11    1  0.8864208E-009  0.1366392E+03  0.7561462E-02  0.1111370E+00
         22   -1    0    0    0    0  0.00000000000E+00  0.00000000000E+00  0.62605528509E+03  0.62605528509E+03  0.00000000000E+00 0.  1.
         22   -1    0    0    0    0 -0.00000000000E+00 -0.00000000000E+00 -0.13788681967E+03  0.13788681967E+03  0.00000000000E+00 0.  1.
        -24    2    1    2    0    0 -0.15347903702E+02 -0.54955911995E+02 -0.78615416591E+02  0.12538389123E+03  0.79278156151E+02 0.  0.
         25    2    1    2    0    0 -0.32525733437E+02  0.49409904387E+02  0.12424063089E+03  0.18596259828E+03  0.12508833522E+03 0.  0.
         24    2    1    2    0    0  0.47873637138E+02  0.55460076082E+01  0.44254325112E+03  0.45259561525E+03  0.81704458292E+02 0.  0.
        -13    1    5    5    0    0  0.35580179722E+02 -0.24314948071E+02  0.37775827374E+03  0.38020846817E+03  0.00000000000E+00 0.  1.
         14    1    5    5    0    0  0.12293457416E+02  0.29860955679E+02  0.64784977378E+02  0.72387147086E+02  0.00000000000E+00 0. -1.
         13    1    3    3    0    0 -0.38937137297E+02 -0.24407739747E+02 -0.10570110148E+02  0.47154699119E+02  0.00000000000E+00 0. -1.
        -14    1    3    3    0    0  0.23589233595E+02 -0.30548172248E+02 -0.68045306444E+02  0.78229192111E+02  0.00000000000E+00 0.  1.
          5    1    4    4  501    0  0.48189820590E+02  0.18169699977E+02  0.48801159611E+02  0.71073359180E+02  0.41800000000E+01 0.  1.
         -5    1    4    4    0  501 -0.80715554027E+02  0.31240204410E+02  0.75439471278E+02  0.11488923910E+03  0.41800000000E+01 0.  1.
</event>
<event>
11    1  0.8864208E-009  0.1870621E+03  0.7561462E-02  0.1064069E+00
         22   -1    0    0    0    0  0.00000000000E+00  0.00000000000E+00  0.15774213578E+04  0.15774213578E+04  0.00000000000E+00 0.  1.
         22   -1    0    0    0    0 -0.00000000000E+00 -0.00000000000E+00 -0.11653452706E+04  0.11653452706E+04  0.00000000000E+00 0.  1.
         24    2    1    2    0    0 -0.71680657167E+02  0.11967987806E+03 -0.10341039334E+04  0.10462350723E+04  0.75996655440E+02 0.  0.
         25    2    1    2    0    0 -0.29139771340E+02 -0.16886138813E+03 -0.29734009936E+02  0.21423303830E+03  0.12509351974E+03 0.  0.
        -24    2    1    2    0    0  0.10082042851E+03  0.49181510064E+02  0.14759140306E+04  0.14822985178E+04  0.79392005573E+02 0.  0.
        -11    1    3    3    0    0 -0.80388655517E+02  0.11340805412E+03 -0.80754677350E+03  0.81942389156E+03  0.00000000000E+00 0.  1.
         12    1    3    3    0    0  0.87079983493E+01  0.62718239434E+01 -0.22655715988E+03  0.22681118073E+03  0.00000000000E+00 0. -1.
         13    1    5    5    0    0 -0.12562270806E+02  0.11669612316E+02  0.13699964984E+03  0.13806844156E+03  0.00000000000E+00 0. -1.
        -14    1    5    5    0    0  0.11338269931E+03  0.37511897748E+02  0.13389143807E+04  0.13442300762E+04  0.00000000000E+00 0.  1.
          5    1    4    4  501    0  0.45500799931E+02 -0.31718431077E+02 -0.13185069302E+02  0.57163800755E+02  0.41800000000E+01 0.  1.
         -5    1    4    4    0  501 -0.74640571270E+02 -0.13714295705E+03 -0.16548940634E+02  0.15706923755E+03  0.41800000000E+01 0.  1.
</event>
<event>
11    1  0.8864208E-009  0.1728256E+03  0.7561462E-02  0.1075599E+00
         22   -1    0    0    0    0  0.00000000000E+00  0.00000000000E+00  0.20024523848E+03  0.20024523848E+03  0.00000000000E+00 0.  1.
         22   -1    0    0    0    0 -0.00000000000E+00 -0.00000000000E+00 -0.91382414005E+03  0.91382414005E+03  0.00000000000E+00 0. -1.
         24    2    1    2    0    0  0.54647278318E+02  0.11283132860E+03 -0.76607607794E+03  0.78032244586E+03  0.79456457144E+02 0.  0.
         25    2    1    2    0    0  0.20870179122E+01 -0.87814798339E+02 -0.76469505332E+02  0.17088550371E+03  0.12505389111E+03 0.  0.
        -24    2    1    2    0    0 -0.56734296230E+02 -0.25016530264E+02  0.12896668170E+03  0.16286142895E+03  0.77761384363E+02 0.  0.
        -11    1    3    3    0    0  0.64604722447E+01  0.32706491598E+02 -0.65117017543E+02  0.73155165696E+02  0.00000000000E+00 0.  1.
         12    1    3    3    0    0  0.48186806073E+02  0.80124837004E+02 -0.70095906040E+03  0.70716728017E+03  0.00000000000E+00 0. -1.
         11    1    5    5    0    0  0.13362966968E+02 -0.21438078013E+02  0.16118145919E+02  0.29965892327E+02  0.00000000000E+00 0. -1.
        -12    1    5    5    0    0 -0.70097263198E+02 -0.35784522501E+01  0.11284853578E+03  0.13289553663E+03  0.00000000000E+00 0.  1.
          5    1    4    4  501    0 -0.28002456036E+02  0.12014955070E+02 -0.56952040730E+02  0.64726378183E+02  0.41800000000E+01 0. -1.
         -5    1    4    4    0  501  0.30089473948E+02 -0.99829753409E+02 -0.19517464602E+02  0.10615912553E+03  0.41800000000E+01 0. -1.
</event>
<event>
11    1  0.8864208E-009  0.1512801E+03  0.7561462E-02  0.1095578E+00
         22   -1    0    0    0    0  0.00000000000E+00  0.00000000000E+00  0.10720406525E+04  0.10720406525E+04  0.00000000000E+00 0. -1.
         22   -1    0    0    0    0 -0.00000000000E+00 -0.00000000000E+00 -0.30775705248E+03  0.30775705248E+03  0.00000000000E+00 0.  1.
        -24    2    1    2    0    0 -0.80534006805E+01  0.52042591367E+02 -0.25946196203E+03  0.27669084391E+03  0.80399159101E+02 0.  0.
         25    2    1    2    0    0  0.73853850672E+02 -0.99982188798E+02  0.18104693433E+03  0.25273675739E+03  0.12508815600E+03 0.  0.
         24    2    1    2    0    0 -0.65800449992E+02  0.47939597432E+02  0.84269862772E+03  0.85037010368E+03  0.79752315597E+02 0.  0.
        -11    1    5    5    0    0 -0.13669294448E+02  0.10854603512E+02  0.26900458891E+02  0.32067221842E+02  0.00000000000E+00 0.  1.
         12    1    5    5    0    0 -0.52131155544E+02  0.37084993919E+02  0.81579816883E+03  0.81830288183E+03  0.00000000000E+00 0. -1.
         11    1    3    3    0    0  0.94871024780E+00 -0.57330677651E+01  0.38460015832E+01  0.69684894569E+01  0.00000000000E+00 0. -1.
        -12    1    3    3    0    0 -0.90021109282E+01  0.57775659132E+02 -0.26330796361E+03  0.26972235445E+03  0.00000000000E+00 0.  1.
          5    1    4    4  501    0  0.97335119544E+02 -0.65978046867E+02  0.76772122559E+02  0.14049433927E+03  0.41800000000E+01 0. -1.
         -5    1    4    4    0  501 -0.23481268871E+02 -0.34004141932E+02  0.10427481177E+03  0.11224241812E+03  0.41800000000E+01 0. -1.
</event>
<event>
11    1  0.8864208E-009  0.1259941E+03  0.7561462E-02  0.1124291E+00
         22   -1    0    0    0    0  0.00000000000E+00  0.00000000000E+00  0.25593581512E+04  0.25593581512E+04  0.00000000000E+00 0. -1.
         22   -1    0    0    0    0 -0.00000000000E+00 -0.00000000000E+00 -0.37579526877E+03  0.37579526877E+03  0.00000000000E+00 0.  1.
         24    2    1    2    0    0  0.30929749316E+02 -0.30343718667E+01 -0.33792159002E+03  0.34796732952E+03  0.76970154021E+02 0.  0.
         25    2    1    2    0    0 -0.15420464658E+02  0.98978654193E-01  0.91481218432E+02  0.15573395655E+03  0.12508577605E+03 0.  0.
        -24    2    1    2    0    0 -0.15509284658E+02  0.29353932125E+01  0.24300032540E+04  0.24314521338E+04  0.82428820348E+02 0.  0.
        -11    1    3    3    0    0  0.44095413301E+02 -0.29769592029E+02 -0.21522974439E+03  0.22170808951E+03  0.00000000000E+00 0.  1.
         12    1    3    3    0    0 -0.13165663985E+02  0.26735220162E+02 -0.12269184563E+03  0.12625924002E+03  0.00000000000E+00 0. -1.
         13    1    5    5    0    0 -0.35811996876E+02  0.50268479312E+01  0.22507739657E+04  0.22510644622E+04  0.00000000000E+00 0. -1.
        -14    1    5    5    0    0  0.20302712219E+02 -0.20914547187E+01  0.17922928832E+03  0.18038767169E+03  0.00000000000E+00 0.  1.
          5    1    4    4  501    0 -0.99230571996E+01  0.32123512134E+02  0.11204417777E+03  0.11705450555E+03  0.41800000000E+01 0.  1.
         -5    1    4    4    0  501 -0.54974074585E+01 -0.32024533480E+02 -0.20562959341E+02  0.38679451007E+02  0.41800000000E+01 0.  1.
</event>
<event>
11    1  0.8864208E-009  0.1259575E+03  0.7561462E-02  0.1124338E+00
         22   -1    0    0    0    0  0.00000000000E+00  0.00000000000E+00  0.10570193307E+04  0.10570193307E+04  0.00000000000E+00 0. -1.
         22   -1    0    0    0    0 -0.00000000000E+00 -0.00000000000E+00 -0.24826043817E+03  0.24826043817E+03  0.00000000000E+00 0. -1.
        -24    2    1    2    0    0 -0.16349727248E+01  0.14689180387E+02 -0.22502847177E+03  0.23920470142E+03  0.79766101300E+02 0.  0.
         25    2    1    2    0    0  0.87051278347E+01 -0.18200831271E+02  0.27123827462E+03  0.29936764899E+03  0.12507493008E+03 0.  0.
         24    2    1    2    0    0 -0.70701551099E+01  0.35116508836E+01  0.76254908964E+03  0.76670741842E+03  0.79352583908E+02 0.  0.
        -11    1    5    5    0    0  0.32406669535E+01  0.78489448455E+01  0.68086204629E+01  0.10884170621E+02  0.00000000000E+00 0.  1.
         12    1    5    5    0    0 -0.10310822063E+02 -0.43372939619E+01  0.75574046918E+03  0.75582324780E+03  0.00000000000E+00 0. -1.
         13    1    3    3    0    0 -0.23956468445E+02  0.15923107650E+02 -0.21069310902E+03  0.21264769909E+03  0.00000000000E+00 0. -1.
        -14    1    3    3    0    0  0.22321495720E+02 -0.12339272631E+01 -0.14335362748E+02  0.26557002331E+02  0.00000000000E+00 0.  1.
          5    1    4    4  501    0 -0.41843627545E+02 -0.31206427243E+02  0.21985474058E+03  0.22600510973E+03  0.41800000000E+01 0.  1.
         -5    1    4    4    0  501  0.50548755380E+02  0.13005595973E+02  0.51383534040E+02  0.73362539265E+02  0.41800000000E+01 0.  1.
</event>
<event>
11    1  0.8864208E-009  0.1881497E+03  0.7561462E-02  0.1063235E+00
         22   -1    0    0    0    0  0.00000000000E+00  0.00000000000E+00  0.13029961849E+04  0.13029961849E+04  0.00000000000E+00 0.  1.
         22   -1    0    0    0    0 -0.00000000000E+00 -0.00000000000E+00 -0.78905382093E+03  0.78905382093E+03  0.00000000000E+00 0.  1.
        -24    2    1    2    0    0  0.14370018704E+02 -0.22415521030E+02 -0.69940846553E+03  0.70482759891E+03  0.83070990811E+02 0.  0.
         25    2    1    2    0    0 -0.15222977612E+03 -0.13323929307E+01  0.37668020311E+02  0.20060034395E+03  0.12508372487E+03 0.  0.
         24    2    1    2    0    0  0.13785975742E+03  0.23747913961E+02  0.11756828091E+04  0.11866220629E+04  0.79199598307E+02 0.  0.
        -13    1    5    5    0    0  0.74745603414E+02 -0.11735817466E+02  0.82978933635E+03  0.83323164688E+03  0.00000000000E+00 0.  1.
         14    1    5    5    0    0  0.63114154004E+02  0.35483731427E+02  0.34589347279E+03  0.35339041604E+03  0.00000000000E+00 0. -1.
         11    1    3    3    0    0  0.21645618581E+02  0.13354668849E+02 -0.72036638646E+02  0.76394746489E+02  0.00000000000E+00 0. -1.
        -12    1    3    3    0    0 -0.72755998766E+01 -0.35770189880E+02 -0.62737182688E+03  0.62843285242E+03  0.00000000000E+00 0.  1.
          5    1    4    4  501    0 -0.22829232708E+02 -0.47387391658E+02 -0.12651924883E+02  0.54261241761E+02  0.41800000000E+01 0. -1.
         -5    1    4    4    0  501 -0.12940054341E+03  0.46054998727E+02  0.50319945195E+02  0.14633910218E+03  0.41800000000E+01 0. -1.
</event>
<event>
11    1  0.8864208E-009  0.1320352E+03  0.7561462E-02  0.1116793E+00
         22   -1    0    0    0    0  0.00000000000E+00  0.00000000000E+00  0.22264365241E+03  0.22264365241E+03  0.00000000000E+00 0. -1.
         22   -1    0    0    0    0 -0.00000000000E+00 -0.00000000000E+00 -0.31192703954E+03  0.31192703954E+03  0.00000000000E+00 0. -1.
        -24    2    1    2    0    0  0.23507876202E+02 -0.35029299096E+02 -0.21057639930E+03  0.22963158767E+03  0.81293136688E+02 0.  0.
         25    2    1    2    0    0 -0.26008675244E+02  0.33858606503E+02 -0.27527695423E+02  0.13501383386E+03  0.12509238544E+03 0.  0.
         24    2    1    2    0    0  0.25007990423E+01  0.11706925923E+01  0.14882070759E+03  0.16992527043E+03  0.81971763461E+02 0.  0.
        -11    1    5    5    0    0  0.19440251139E+02  0.35629316986E+02  0.99208501819E+02  0.10719001085E+03  0.00000000000E+00 0.  1.
         12    1    5    5    0    0 -0.16939452097E+02 -0.34458624394E+02  0.49612205775E+02  0.62735259578E+02  0.00000000000E+00 0. -1.
         11    1    3    3    0    0  0.98316471932E+01 -0.15648747015E+02 -0.20424714530E+03  0.20508154703E+03  0.00000000000E+00 0. -1.
        -12    1    3    3    0    0  0.13676229008E+02 -0.19380552081E+02 -0.63292539993E+01  0.24550040632E+02  0.00000000000E+00 0.  1.
          5    1    4    4  501    0 -0.47741374421E+02 -0.30981974348E+02 -0.33614047964E+02  0.66230643864E+02  0.41800000000E+01 0. -1.
         -5    1    4    4    0  501  0.21732699177E+02  0.64840580851E+02  0.60863525414E+01  0.68783189995E+02  0.41800000000E+01 0. -1.
</event>
<event>
11    1  0.8864208E-009  0.1928543E+03  0.7561462E-02  0.1059695E+00
         22   -1    0    0    0    0  0.00000000000E+00  0.00000000000E+00  0.40553150425E+03  0.40553150425E+03  0.00000000000E+00 0. -1.
         22   -1    0    0    0    0 -0.00000000000E+00 -0.00000000000E+00 -0.33472062793E+03  0.33472062793E+03  0.00000000000E+00 0. -1.
        -24    2    1    2    0    0  0.20248646139E+02 -0.14717382277E+03 -0.23830230655E+03  0.29216341582E+03  0.80630828216E+02 0.  0.
         25    2    1    2    0    0  0.11977762458E+01  0.13876225633E+03  0.78042252340E+02  0.20247120619E+03  0.12509035828E+03 0.  0.
         24    2    1    2    0    0 -0.21446422385E+02  0.84115664382E+01  0.23107093053E+03  0.24561751018E+03  0.80021765083E+02 0.  0.
        -11    1    5    5    0    0 -0.11811884876E+02  0.40014929851E+02  0.72559750440E+02  0.83699657223E+02  0.00000000000E+00 0.  1.
         12    1    5    5    0    0 -0.96345375091E+01 -0.31603363413E+02  0.15851118009E+03  0.16191785295E+03  0.00000000000E+00 0. -1.
         13    1    3    3    0    0  0.44984584095E+02 -0.10418341623E+03 -0.12702253592E+03  0.17033062454E+03  0.00000000000E+00 0. -1.
        -14    1    3    3    0    0 -0.24735937956E+02 -0.42990406537E+02 -0.11127977062E+03  0.12183279128E+03  0.00000000000E+00 0.  1.
          5    1    4    4  501    0  0.56765555279E+02  0.69527198435E+02  0.97372907857E+01  0.90380566607E+02  0.41800000000E+01 0.  1.
         -5    1    4    4    0  501 -0.55567779033E+02  0.69235057897E+02  0.68304961554E+02  0.11209063958E+03  0.41800000000E+01 0.  1.
</event>
<event>
11    1  0.8864208E-009  0.2434026E+03  0.7561462E-02  0.1027474E+00
         22   -1    0    0    0    0  0.00000000000E+00  0.00000000000E+00  0.13345021864E+04  0.13345021864E+04  0.00000000000E+00 0.  1.
         22   -1    0    0    0    0 -0.00000000000E+00 -0.00000000000E+00 -0.39343954362E+03  0.39343954362E+03  0.00000000000E+00 0. -1.
        -24    2    1    2    0    0 -0.32913674389E+02 -0.47430879792E+02 -0.26616084122E+03  0.28384586983E+03  0.79961779008E+02 0.  0.
         25    2    1    2    0    0 -0.13576717116E+03  0.17017915725E+03  0.38458314992E+02  0.25401085877E+03  0.12509517998E+03 0.  0.
         24    2    1    2    0    0  0.16868084555E+03 -0.12274827746E+03  0.11687651690E+04  0.11900850014E+04  0.82279542063E+02 0.  0.
        -13    1    5    5    0    0  0.47414439899E+02 -0.84734690157E+02  0.49135838100E+03  0.50086041509E+03  0.00000000000E+00 0.  1.
         14    1    5    5    0    0  0.12126640565E+03 -0.38013587302E+02  0.67740678799E+03  0.68922458631E+03  0.00000000000E+00 0. -1.
         13    1    3    3    0    0 -0.10985646012E+02 -0.67558844601E+02 -0.19699777450E+03  0.20854976638E+03  0.00000000000E+00 0. -1.
        -14    1    3    3    0    0 -0.21928028377E+02  0.20127964809E+02 -0.69163066721E+02  0.75296103446E+02  0.00000000000E+00 0.  1.
          5    1    4    4  501    0 -0.89225456393E+02  0.46746560522E+02 -0.30195146744E+02  0.10524087740E+03  0.41800000000E+01 0. -1.
         -5    1    4    4    0  501 -0.46541714767E+02  0.12343259673E+03  0.68653461735E+02  0.14876998137E+03  0.41800000000E+01 0. -1.
</event>
<event>
11    1  0.8864208E-009  0.1531546E+03  0.7561462E-02  0.1093698E+00
         22   -1    0    0    0    0  0.00000000000E+00  0.00000000000E+00  0.10537070309E+04  0.10537070309E+04  0.00000000000E+00 0.  1.
         22   -1    0    0    0    0 -0.00000000000E+00 -0.00000000000E+00 -0.99476470819E+03  0.99476470819E+03  0.00000000000E+00 0. -1.
         24    2    1    2    0    0 -0.45319968983E+02  0.40412451185E+02 -0.78701476233E+03  0.79410460308E+03  0.86734184199E+02 0.  0.
         25    2    1    2    0    0  0.10126484910E+03 -0.10731757003E+03 -0.15358388378E+03  0.24699725386E+03  0.12509198040E+03 0.  0.
        -24    2    1    2    0    0 -0.55944880117E+02  0.66905118844E+02  0.99954096886E+03  0.10073698822E+04  0.90032253000E+02 0.  0.
        -11    1    3    3    0    0  0.11534040949E+02 -0.19614510526E+02 -0.14176256882E+03  0.14357711880E+03  0.00000000000E+00 0.  1.
         12    1    3    3    0    0 -0.56854009933E+02  0.60026961711E+02 -0.64525219351E+03  0.65052748428E+03  0.00000000000E+00 0. -1.
         13    1    5    5    0    0 -0.50738354135E+02 -0.27202977613E+01  0.56211410698E+03  0.56440592650E+03  0.00000000000E+00 0. -1.
        -14    1    5    5    0    0 -0.52065259820E+01  0.69625416605E+02  0.43742686188E+03  0.44296395569E+03  0.00000000000E+00 0.  1.
          5    1    4    4  501    0  0.34777192267E+02 -0.11430244834E+03 -0.12839285846E+03  0.17543289686E+03  0.41800000000E+01 0.  1.
         -5    1    4    4    0  501  0.66487656834E+02  0.69848783090E+01 -0.25191025316E+02  0.71564356999E+02  0.41800000000E+01 0.  1.
</event>
<event>
11    1  0.8864208E-009  0.1652404E+03  0.7561462E-02  0.1082249E+00
         22   -1    0    0    0    0  0.00000000000E+00  0.00000000000E+00  0.43658887894E+03  0.43658887894E+03  0.00000000000E+00 0. -1.
         22   -1    0    0    0    0 -0.00000000000E+00 -0.00000000000E+00 -0.40361981607E+03  0.40361981607E+03  0.00000000000E+00 0.  1.
        -24    2    1    2    0    0  0.72902491412E+02  0.50273387278E+02 -0.30717179392E+03  0.32993125318E+03  0.81596164891E+02 0.  0.
         25    2    1    2    0    0 -0.14887831873E+03  0.20191878892E+02  0.65230977094E+02  0.20609505762E+03  0.12509047382E+03 0.  0.
         24    2    1    2    0    0  0.75975827319E+02 -0.70465266170E+02  0.27490987970E+03  0.30418238422E+03  0.78827665443E+02 0.  0.
        -13    1    5    5    0    0  0.12113881464E+00  0.10566986692E+02  0.37991424686E+01  0.11229842646E+02  0.00000000000E+00 0.  1.
         14    1    5    5    0    0  0.75854688504E+02 -0.81032252862E+02  0.27111073723E+03  0.29295254157E+03  0.00000000000E+00 0. -1.
         11    1    3    3    0    0  0.93152051748E+01 -0.22096918574E+02 -0.56017917711E+02  0.60934833737E+02  0.00000000000E+00 0. -1.
        -12    1    3    3    0    0  0.63587286237E+02  0.72370305853E+02 -0.25115387621E+03  0.26899641945E+03  0.00000000000E+00 0.  1.
          5    1    4    4  501    0 -0.79573846985E+01 -0.31045634988E+02  0.44000104114E+02  0.54595173643E+02  0.41800000000E+01 0.  1.
         -5    1    4    4    0  501 -0.14092093403E+03  0.51237513880E+02  0.21230872980E+02  0.15149988398E+03  0.41800000000E+01 0.  1.
</event>
<event>
11    1  0.8864208E-009  0.1508189E+03  0.7561462E-02  0.1096045E+00
         22   -1    0    0    0    0  0.00000000000E+00  0.00000000000E+00  0.13036276509E+04  0.13036276509E+04  0.00000000000E+00 0. -1.
         22   -1    0    0    0    0 -0.00000000000E+00 -0.00000000000E+00 -0.30771344301E+04  0.30771344301E+04  0.00000000000E+00 0. -1.
        -24    2    1    2    0    0  0.88715659874E+02  0.51288023548E+01 -0.27215579091E+04  0.27242074067E+04  0.80819359990E+02 0.  0.
         25    2    1    2    0    0 -0.40702298789E+02  0.28479233622E+02 -0.33952407556E+03  0.36522891520E+03  0.12509124167E+03 0.  0.
         24    2    1    2    0    0 -0.48013361085E+02 -0.33608035976E+02  0.12875752056E+04  0.12913257591E+04  0.78977991579E+02 0.  0.
        -11    1    5    5    0    0 -0.45754456627E+02  0.12305557964E+02  0.85575426387E+03  0.85706490839E+03  0.00000000000E+00 0.  1.
         12    1    5    5    0    0 -0.22589044583E+01 -0.45913593941E+02  0.43182094170E+03  0.43426085069E+03  0.00000000000E+00 0. -1.
         13    1    3    3    0    0  0.56850393570E+02  0.37765966165E+01 -0.24671887070E+04  0.24678464997E+04  0.00000000000E+00 0. -1.
        -14    1    3    3    0    0  0.31865266304E+02  0.13522057383E+01 -0.25436920211E+03  0.25636090700E+03  0.00000000000E+00 0.  1.
          5    1    4    4  501    0 -0.70633663895E+02  0.54454877371E+02 -0.18170879625E+03  0.20245989030E+03  0.41800000000E+01 0.  1.
         -5    1    4    4    0  501  0.29931365107E+02 -0.25975643749E+02 -0.15781527931E+03  0.16276902490E+03  0.41800000000E+01 0.  1.
</event>
<event>
11    1  0.8864208E-009  0.1608438E+03  0.7561462E-02  0.1086286E+00
         22   -1    0    0    0    0  0.00000000000E+00  0.00000000000E+00  0.39342645645E+04  0.39342645645E+04  0.00000000000E+00 0. -1.
         22   -1    0    0    0    0 -0.00000000000E+00 -0.00000000000E+00 -0.13607814236E+03  0.13607814236E+03  0.00000000000E+00 0.  1.
         24    2    1    2    0    0 -0.24153077777E+02  0.55631103646E+02 -0.10119839766E+03  0.14252315642E+03  0.79959637121E+02 0.  0.
         25    2    1    2    0    0  0.76624970734E+02 -0.13585020277E+03  0.75761697158E+03  0.78355449665E+03  0.12509000701E+03 0.  0.
        -24    2    1    2    0    0 -0.52471892957E+02  0.80219099128E+02  0.31417678482E+04  0.31442650538E+04  0.80679073500E+02 0.  0.
        -13    1    3    3    0    0 -0.17429494452E+02  0.50832265323E+02 -0.11471759772E+03  0.12668004460E+03  0.00000000000E+00 0.  1.
         14    1    3    3    0    0 -0.67235833252E+01  0.47988383237E+01  0.13519200055E+02  0.15843111820E+02  0.00000000000E+00 0. -1.
         11    1    5    5    0    0 -0.54449263662E+02  0.69892432647E+02  0.15932524939E+04  0.15957140043E+04  0.00000000000E+00 0. -1.
        -12    1    5    5    0    0  0.19773707052E+01  0.10326666481E+02  0.15485153544E+04  0.15485510494E+04  0.00000000000E+00 0.  1.
          5    1    4    4  501    0 -0.28104733563E+01 -0.49599332732E+02  0.69649836249E+02  0.85653748648E+02  0.41800000000E+01 0. -1.
         -5    1    4    4    0  501  0.79435444090E+02 -0.86250870043E+02  0.68796713533E+03  0.69790074800E+03  0.41800000000E+01 0. -1.
</event>
<event>
11    1  0.8864208E-009  0.1300447E+03  0.7561462E-02  0.1119214E+00
         22   -1    0    0    0    0  0.00000000000E+00  0.00000000000E+00  0.99137479459E+02  0.99137479459E+02  0.00000000000E+00 0. -1.
         22   -1    0    0    0    0 -0.00000000000E+00 -0.00000000000E+00 -0.11027258248E+04  0.11027258248E+04  0.00000000000E+00 0.  1.
        -24    2    1    2    0    0 -0.68347077141E+01 -0.87115102784E+01 -0.95890352762E+03  0.96228829839E+03  0.79876093345E+02 0.  0.
         25    2    1    2    0    0 -0.52196174072E+01 -0.27528814887E+02 -0.66974435549E+02  0.14463437240E+03  0.12509375127E+03 0.  0.
         24    2    1    2    0    0  0.12054325121E+02  0.36240325165E+02  0.22289617866E+02  0.94940633439E+02  0.84013266160E+02 0.  0.
        -13    1    5    5    0    0  0.47524340693E+01 -0.19817341329E+02 -0.16633351377E+02  0.26305532212E+02  0.00000000000E+00 0.  1.
         14    1    5    5    0    0  0.73018910520E+01  0.56057666494E+02  0.38922969243E+02  0.68635101227E+02  0.00000000000E+00 0. -1.
         13    1    3    3    0    0  0.14884049404E+02 -0.29431829847E+02 -0.19307348664E+03  0.19587020902E+03  0.00000000000E+00 0. -1.
        -14    1    3    3    0    0 -0.21718757118E+02  0.20720319569E+02 -0.76583004098E+03  0.76641808937E+03  0.00000000000E+00 0.  1.
          5    1    4    4  501    0  0.40197926691E+02 -0.41708862185E+02 -0.76381683078E+02  0.95953824337E+02  0.41800000000E+01 0.  1.
         -5    1    4    4    0  501 -0.45417544098E+02  0.14180047298E+02  0.94072475289E+01  0.48680548059E+02  0.41800000000E+01 0.  1.
</event>
<event>
11    1  0.8864208E-009  0.1363150E+03  0.7561462E-02  0.1111744E+00
         22   -1    0    0    0    0  0.00000000000E+00  0.00000000000E+00  0.24201149506E+04  0.24201149506E+04  0.00000000000E+00 0. -1.
         22   -1    0    0    0    0 -0.00000000000E+00 -0.00000000000E+00 -0.69466968335E+03  0.69466968335E+03  0.00000000000E+00 0.  1.
         24    2    1    2    0    0  0.17246449023E+02  0.48931163824E+02 -0.55911184963E+03  0.56768769834E+03  0.83495890059E+02 0.  0.
         25    2    1    2    0    0 -0.33152876007E+02 -0.68987225217E+02 -0.89202703664E+02  0.17164826235E+03  0.12509057997E+03 0.  0.
        -24    2    1    2    0    0  0.15906426985E+02  0.20056061393E+02  0.23737598205E+04  0.23754486733E+04  0.85822221214E+02 0.  0.
        -13    1    3    3    0    0  0.42941188722E+02  0.35558389881E+02 -0.48372603040E+03  0.48692834921E+03  0.00000000000E+00 0.  1.
         14    1    3    3    0    0 -0.25694739699E+02  0.13372773943E+02 -0.75385819227E+02  0.80759349129E+02  0.00000000000E+00 0. -1.
         13    1    5    5    0    0  0.22928531460E+02  0.48540262215E+02  0.10572613241E+04  0.10586233428E+04  0.00000000000E+00 0. -1.
        -14    1    5    5    0    0 -0.70221044751E+01 -0.28484200822E+02  0.13164984965E+04  0.13168253304E+04  0.00000000000E+00 0.  1.
          5    1    4    4  501    0  0.41059943502E+02  0.60540873429E+00 -0.43723888540E+02  0.60129329858E+02  0.41800000000E+01 0. -1.
         -5    1    4    4    0  501 -0.74212819510E+02 -0.69592633951E+02 -0.45478815124E+02  0.11151893250E+03  0.41800000000E+01 0. -1.
</event>
<event>
11    1  0.8864208E-009  0.2112152E+03  0.7561462E-02  0.1046864E+00
         22   -1    0    0    0    0  0.00000000000E+00  0.00000000000E+00  0.10197801737E+03  0.10197801737E+03  0.00000000000E+00 0.  1.
         22   -1    0    0    0    0 -0.00000000000E+00 -0.00000000000E+00 -0.24550500159E+04  0.24550500159E+04  0.00000000000E+00 0. -1.
         24    2    1    2    0    0  0.47215495067E+02 -0.15346489066E+03 -0.18263552503E+04  0.18345341414E+04  0.64507674179E+02 0.  0.
         25    2    1    2    0    0 -0.44850498108E+02  0.25790612446E+03 -0.51303605929E+03  0.58939133898E+03  0.12509602758E+03 0.  0.
        -24    2    1    2    0    0 -0.23649969585E+01 -0.10444123380E+03 -0.13680688940E+02  0.13310255289E+03  0.81336116265E+02 0.  0.
        -13    1    3    3    0    0  0.45195659261E+01 -0.23697174353E+02 -0.10363655790E+03  0.10640732438E+03  0.00000000000E+00 0.  1.
         14    1    3    3    0    0  0.42695929141E+02 -0.12976771631E+03 -0.17227186924E+04  0.17281268171E+04  0.00000000000E+00 0. -1.
         13    1    5    5    0    0 -0.18849511826E+02 -0.41806941073E+01 -0.24193679574E+02  0.30953455876E+02  0.00000000000E+00 0. -1.
        -14    1    5    5    0    0  0.16484514868E+02 -0.10026053969E+03  0.10512990634E+02  0.10214909702E+03  0.00000000000E+00 0.  1.
          5    1    4    4  501    0  0.49773439218E+01  0.15518091763E+03 -0.39813225574E+03  0.42735542188E+03  0.41800000000E+01 0. -1.
         -5    1    4    4    0  501 -0.49827842030E+02  0.10272520683E+03 -0.11490380355E+03  0.16203591710E+03  0.41800000000E+01 0. -1.
</event>
<event>
11    1  0.8864208E-009  0.1612161E+03  0.7561462E-02  0.1085939E+00
         22   -1    0    0    0    0  0.00000000000E+00  0.00000000000E+00  0.16901441166E+04  0.16901441166E+04  0.00000000000E+00 0. -1.
         22   -1    0    0    0    0 -0.00000000000E+00 -0.00000000000E+00 -0.54140646595E+03  0.54140646595E+03  0.00000000000E+00 0. -1.
        -24    2    1    2    0    0 -0.12389190769E+02  0.10074593420E+03 -0.50380682602E+03  0.52030889793E+03  0.81220662476E+02 0.  0.
         25    2    1    2    0    0  0.93587077066E+02 -0.97892896166E+02  0.28763328334E+03  0.34164429937E+03  0.12508541679E+03 0.  0.
         24    2    1    2    0    0 -0.81197886297E+02 -0.28530380340E+01  0.13649111933E+04  0.13695973852E+04  0.78823825311E+02 0.  0.
        -11    1    5    5    0    0 -0.92377762818E+02  0.66565940614E+00  0.94089081141E+03  0.94541504809E+03  0.00000000000E+00 0.  1.
         12    1    5    5    0    0  0.11179876521E+02 -0.35186974401E+01  0.42402038190E+03  0.42418233713E+03  0.00000000000E+00 0. -1.
         13    1    3    3    0    0 -0.39465848314E+02  0.79386344774E+02 -0.27553270947E+03  0.28944432782E+03  0.00000000000E+00 0. -1.
        -14    1    3    3    0    0  0.27076657545E+02  0.21359589426E+02 -0.22827411654E+03  0.23086457010E+03  0.00000000000E+00 0.  1.
          5    1    4    4  501    0  0.16680257517E+02  0.27732789169E+02  0.85383882228E+02  0.91406883385E+02  0.41800000000E+01 0. -1.
         -5    1    4    4    0  501  0.76906819550E+02 -0.12562568534E+03  0.20224940111E+03  0.25023741599E+03  0.41800000000E+01 0. -1.
</event>
<event>
11    1  0.8864208E-009  0.1929990E+03  0.7561462E-02  0.1059588E+00
         22   -1    0    0    0    0  0.00000000000E+00  0.00000000000E+00  0.97588137404E+03  0.97588137404E+03  0.00000000000E+00 0.  1.
         22   -1    0    0    0    0 -0.00000000000E+00 -0.00000000000E+00 -0.93457054945E+03  0.93457054945E+03  0.00000000000E+00 0.  1.
        -24    2    1    2    0    0 -0.14689462950E+03  0.24965207057E+01 -0.82003227760E+03  0.83627351711E+03  0.72912237167E+02 0.  0.
         25    2    1    2    0    0  0.14758413157E+03 -0.56301903822E+01 -0.14939134867E+02  0.19411876370E+03  0.12508453835E+03 0.  0.
         24    2    1    2    0    0 -0.68950206873E+00  0.31336696765E+01  0.87628223705E+03  0.88005964268E+03  0.81388699534E+02 0.  0.
        -13    1    5    5    0    0  0.24992043443E+02  0.23370620563E+02  0.69571744319E+03  0.69655836001E+03  0.00000000000E+00 0.  1.
         14    1    5    5    0    0 -0.25681545511E+02 -0.20236950886E+02  0.18056479385E+03  0.18350128267E+03  0.00000000000E+00 0. -1.
         11    1    3    3    0    0 -0.12487483245E+02  0.11869161425E+02 -0.28094301692E+02  0.32956092279E+02  0.00000000000E+00 0. -1.
        -12    1    3    3    0    0 -0.13440714625E+03 -0.93726407194E+01 -0.79193797590E+03  0.80331742483E+03  0.00000000000E+00 0.  1.
          5    1    4    4  501    0  0.65321032405E+02 -0.22852639610E+02 -0.65972921340E+02  0.95702555670E+02  0.41800000000E+01 0. -1.
         -5    1    4    4    0  501  0.82263099164E+02  0.17222449228E+02  0.51033786473E+02  0.98416208031E+02  0.41800000000E+01 0. -1.
</event>
<event>
11    1  0.8864208E-009  0.3751774E+03  0.7561462E-02  0.9725977E-01
         22   -1    0    0    0    0  0.00000000000E+00  0.00000000000E+00  0.37561130758E+03  0.37561130758E+03  0.00000000000E+00 0.  1.
         22   -1    0    0    0    0 -0.00000000000E+00 -0.00000000000E+00 -0.96062039422E+03  0.96062039422E+03  0.00000000000E+00 0.  1.
        -24    2    1    2    0    0  0.11709447097E+02 -0.27589658312E+02 -0.59140411893E+03  0.59771365639E+03  0.81267968756E+02 0.  0.
         25    2    1    2    0    0 -0.14297170225E+02  0.36714050933E+03  0.30120884269E+02  0.38929705691E+03  0.12509343781E+03 0.  0.
         24    2    1    2    0    0  0.25877231280E+01 -0.33955085102E+03 -0.23725851974E+02  0.34922098850E+03  0.78044256784E+02 0.  0.
        -13    1    5    5    0    0 -0.17359882200E+02 -0.31963679713E+03 -0.19299898645E+02  0.32068915428E+03  0.00000000000E+00 0.  1.
         14    1    5    5    0    0  0.19947605328E+02 -0.19914053891E+02 -0.44259533294E+01  0.28531834213E+02  0.00000000000E+00 0. -1.
         13    1    3    3    0    0  0.17749946852E+02  0.57662104969E+01 -0.30300041347E+02  0.35586546648E+02  0.00000000000E+00 0. -1.
        -14    1    3    3    0    0 -0.60404997549E+01 -0.33355868809E+02 -0.56110407759E+03  0.56212710974E+03  0.00000000000E+00 0.  1.
          5    1    4    4  501    0 -0.14604598152E+02  0.21347526320E+03 -0.44230516866E+02  0.21853785326E+03  0.41800000000E+01 0. -1.
         -5    1    4    4    0  501  0.30742792698E+00  0.15366524613E+03  0.74351401136E+02  0.17075920365E+03  0.41800000000E+01 0. -1.
</event>
<event>
11    1  0.8864208E-009  0.1981279E+03  0.7561462E-02  0.1055855E+00
         22   -1    0    0    0    0  0.00000000000E+00  0.00000000000E+00  0.73106190235E+03  0.73106190235E+03  0.00000000000E+00 0. -1.
         22   -1    0    0    0    0 -0.00000000000E+00 -0.00000000000E+00 -0.45169350319E+03  0.45169350319E+03  0.00000000000E+00 0. -1.
         24    2    1    2    0    0  0.40996124072E+02  0.14872754535E+03 -0.40636495754E+03  0.43993387850E+03  0.67887950342E+02 0.  0.
         25    2    1    2    0    0 -0.50014336813E+02 -0.13125694156E+03  0.35205179612E+03  0.39914200304E+03  0.12507618818E+03 0.  0.
        -24    2    1    2    0    0  0.90182127409E+01 -0.17470603791E+02  0.33368156059E+03  0.34367952399E+03  0.79910457233E+02 0.  0.
        -13    1    3    3    0    0  0.29643377662E+02  0.37907269109E+02 -0.65156199054E+02  0.81000130652E+02  0.00000000000E+00 0.  1.
         14    1    3    3    0    0  0.11352746410E+02  0.11082027624E+03 -0.34120875849E+03  0.35893374785E+03  0.00000000000E+00 0. -1.
         13    1    5    5    0    0  0.37910880664E+02 -0.28766444114E+02  0.24871077216E+03  0.25322280973E+03  0.00000000000E+00 0. -1.
        -14    1    5    5    0    0 -0.28892667923E+02  0.11295840323E+02  0.84970788427E+02  0.90456714257E+02  0.00000000000E+00 0.  1.
          5    1    4    4  501    0 -0.83794799607E+02 -0.12468377842E+03  0.31102646011E+03  0.34543095451E+03  0.41800000000E+01 0.  1.
         -5    1    4    4    0  501  0.33780462794E+02 -0.65731631358E+01  0.41025336005E+02  0.53711048533E+02  0.41800000000E+01 0.  1.
</event>
<event>
11    1  0.8864208E-009  0.1564918E+03  0.7561462E-02  0.1090424E+00
         22   -1    0    0    0    0  0.00000000000E+00  0.00000000000E+00  0.18167750312E+03  0.18167750312E+03  0.00000000000E+00 0.  1.
         22   -1    0    0    0    0 -0.00000000000E+00 -0.00000000000E+00 -0.22284736478E+04  0.22284736478E+04  0.00000000000E+00 0.  1.
        -24    2    1    2    0    0  0.78477844125E+02 -0.43903128998E+02 -0.18837660820E+04  0.18876232390E+04  0.80377758471E+02 0.  0.
         25    2    1    2    0    0 -0.15159430189E+03  0.68742301409E+02 -0.28770264722E+03  0.35514261841E+03  0.12508848798E+03 0.  0.
         24    2    1    2    0    0  0.73116457769E+02 -0.24839172410E+02  0.12467258451E+03  0.16738529351E+03  0.80694375724E+02 0.  0.
        -13    1    5    5    0    0  0.98356599547E+01  0.44027032079E+01  0.87923626454E+02  0.88581533579E+02  0.00000000000E+00 0.  1.
         14    1    5    5    0    0  0.63280797815E+02 -0.29241875618E+02  0.36748958056E+02  0.78803759935E+02  0.00000000000E+00 0. -1.
         11    1    3    3    0    0 -0.49347721164E+01  0.16746213239E+02 -0.26052940782E+03  0.26111369166E+03  0.00000000000E+00 0. -1.
        -12    1    3    3    0    0  0.83412616242E+02 -0.60649342237E+02 -0.16232366741E+04  0.16265095473E+04  0.00000000000E+00 0.  1.
          5    1    4    4  501    0 -0.13360149942E+03  0.98434538317E+01 -0.24755130154E+03  0.28150554794E+03  0.41800000000E+01 0. -1.
         -5    1    4    4    0  501 -0.17992802479E+02  0.58898847577E+02 -0.40151345676E+02  0.73637070464E+02  0.41800000000E+01 0. -1.
</event>
<event>
11    1  0.8864208E-009  0.1674572E+03  0.7561462E-02  0.1080266E+00
         22   -1    0    0    0    0  0.00000000000E+00  0.00000000000E+00  0.76067176573E+03  0.76067176573E+03  0.00000000000E+00 0. -1.
         22   -1    0    0    0    0 -0.00000000000E+00 -0.00000000000E+00 -0.42746668645E+03  0.42746668645E+03  0.00000000000E+00 0.  1.
         24    2    1    2    0    0 -0.34059202154E+02  0.21337732690E+02 -0.34625214558E+03  0.35813636322E+03  0.82193541424E+02 0.  0.
         25    2    1    2    0    0  0.12910003428E+03  0.32970978632E+02  0.54571259381E+02  0.19073508042E+03  0.12509174340E+03 0.  0.
        -24    2    1    2    0    0 -0.95040832130E+02 -0.54308711322E+02  0.62488596548E+03  0.63926700855E+03  0.78725106939E+02 0.  0.
        -11    1    3    3    0    0 -0.42483866920E+02  0.41481676373E+02 -0.31139302507E+03  0.31700350863E+03  0.00000000000E+00 0.  1.
         12    1    3    3    0    0  0.84246647660E+01 -0.20143943683E+02 -0.34859120510E+02  0.41132854584E+02  0.00000000000E+00 0. -1.
         13    1    5    5    0    0 -0.34411587219E+02  0.78065442647E-01  0.37200328151E+03  0.37359149466E+03  0.00000000000E+00 0. -1.
        -14    1    5    5    0    0 -0.60629244911E+02 -0.54386776764E+02  0.25288268397E+03  0.26567551388E+03  0.00000000000E+00 0.  1.
          5    1    4    4  501    0 -0.21372339748E+02 -0.10879856686E+02 -0.10698720499E+01  0.24367298045E+02  0.41800000000E+01 0. -1.
         -5    1    4    4    0  501  0.15047237403E+03  0.43850835318E+02  0.55641131431E+02  0.16636778237E+03  0.41800000000E+01 0. -1.
</event>
<event>
11    1  0.8864208E-009  0.1809772E+03  0.7561462E-02  0.1068855E+00
         22   -1    0    0    0    0  0.00000000000E+00  0.00000000000E+00  0.11356255951E+04  0.11356255951E+04  0.00000000000E+00 0.  1.
         22   -1    0    0    0    0 -0.00000000000E+00 -0.00000000000E+00 -0.29878348138E+03  0.29878348138E+03  0.00000000000E+00 0.  1.
         24    2    1    2    0    0 -0.85901425249E+02 -0.97280903194E+02 -0.23675610105E+03  0.28176632913E+03  0.80598907310E+02 0.  0.
         25    2    1    2    0    0  0.12972202183E+03  0.74378406031E+02  0.22072152074E+03  0.29449176818E+03  0.12508981402E+03 0.  0.
        -24    2    1    2    0    0 -0.43820596585E+02  0.22902497163E+02  0.85287669400E+03  0.85815097914E+03  0.81115219131E+02 0.  0.
        -13    1    3    3    0    0 -0.98134074049E+02 -0.94900623932E+02 -0.23032554346E+03  0.26774293806E+03  0.00000000000E+00 0.  1.
         14    1    3    3    0    0  0.12232648800E+02 -0.23802792620E+01 -0.64305575884E+01  0.14023391064E+02  0.00000000000E+00 0. -1.
         11    1    5    5    0    0 -0.72477335822E+01  0.49318838816E+02  0.45900151459E+03  0.46170040924E+03  0.00000000000E+00 0. -1.
        -12    1    5    5    0    0 -0.36572863003E+02 -0.26416341654E+02  0.39387517942E+03  0.39645056990E+03  0.00000000000E+00 0.  1.
          5    1    4    4  501    0 -0.18954290858E+02  0.28611121330E+02  0.18153163875E+02  0.39049598773E+02  0.41800000000E+01 0. -1.
         -5    1    4    4    0  501  0.14867631269E+03  0.45767284701E+02  0.20256835687E+03  0.25544216940E+03  0.41800000000E+01 0. -1.
</event>
<event>
11    1  0.8864208E-009  0.1358517E+03  0.7561462E-02  0.1112281E+00
         22   -1    0    0    0    0  0.00000000000E+00  0.00000000000E+00  0.75172449303E+02  0.75172449303E+02  0.00000000000E+00 0. -1.
         22   -1    0    0    0    0 -0.00000000000E+00 -0.00000000000E+00 -0.79434722195E+03  0.79434722195E+03  0.00000000000E+00 0. -1.
        -24    2    1    2    0    0 -0.23368979927E+02 -0.48805103676E+02 -0.58710194363E+03  0.59501767615E+03  0.80182886893E+02 0.  0.
         25    2    1    2    0    0  0.13991120177E+02  0.43527467536E+02 -0.14248239232E+03  0.19504378195E+03  0.12510177010E+03 0.  0.
         24    2    1    2    0    0  0.93778597497E+01  0.52776361404E+01  0.10409563299E+02  0.79458213155E+02  0.78034934055E+02 0.  0.
        -13    1    5    5    0    0 -0.21132360023E+02 -0.10360884065E+01 -0.24696494711E+02  0.32520254771E+02  0.00000000000E+00 0.  1.
         14    1    5    5    0    0  0.30510219773E+02  0.63137245469E+01  0.35106058010E+02  0.46937958384E+02  0.00000000000E+00 0. -1.
         13    1    3    3    0    0  0.29105196967E+01 -0.63319164574E+02 -0.46391869156E+03  0.46822893984E+03  0.00000000000E+00 0. -1.
        -14    1    3    3    0    0 -0.26279499624E+02  0.14514060898E+02 -0.12318325207E+03  0.12678873631E+03  0.00000000000E+00 0.  1.
          5    1    4    4  501    0  0.15894849615E+02 -0.42048613169E+02 -0.32564640397E+02  0.55665611628E+02  0.41800000000E+01 0.  1.
         -5    1    4    4    0  501 -0.19037294377E+01  0.85576080705E+02 -0.10991775192E+03  0.13937817032E+03  0.41800000000E+01 0.  1.
</event>
<event>
11    1  0.8864208E-009  0.2037413E+03  0.7561462E-02  0.1051909E+00
         22   -1    0    0    0    0  0.00000000000E+00  0.00000000000E+00  0.33468094315E+03  0.33468094315E+03  0.00000000000E+00 0.  1.
         22   -1    0    0    0    0 -0.00000000000E+00 -0.00000000000E+00 -0.12452095352E+04  0.12452095352E+04  0.00000000000E+00 0.  1.
         24    2    1    2    0    0 -0.22875529992E+02 -0.30372744475E+02 -0.10558142824E+04  0.10582578001E+04  0.60991630016E+02 0.  0.
         25    2    1    2    0    0 -0.14153790911E+03  0.19861722669E+02 -0.10065232291E+03  0.21495578753E+03  0.12509049821E+03 0.  0.
        -24    2    1    2    0    0  0.16441343910E+03  0.10511021805E+02  0.24593801325E+03  0.30667689079E+03  0.80143299431E+02 0.  0.
        -13    1    3    3    0    0 -0.41625876317E+02 -0.32443512368E+02 -0.81371897911E+03  0.81542864313E+03  0.00000000000E+00 0.  1.
         14    1    3    3    0    0  0.18750346325E+02  0.20707678938E+01 -0.24209530334E+03  0.24282915695E+03  0.00000000000E+00 0. -1.
         11    1    5    5    0    0  0.94386725843E+01  0.17024211769E+02  0.49500558590E+01  0.20085202999E+02  0.00000000000E+00 0. -1.
        -12    1    5    5    0    0  0.15497476651E+03 -0.65131899635E+01  0.24098795739E+03  0.28659168779E+03  0.00000000000E+00 0.  1.
          5    1    4    4  501    0 -0.10265273768E+03  0.67628404303E+02 -0.42470046879E+02  0.13012441317E+03  0.41800000000E+01 0.  1.
         -5    1    4    4    0  501 -0.38885171431E+02 -0.47766681634E+02 -0.58182276028E+02  0.84831374357E+02  0.41800000000E+01 0.  1.
</event>
<event>
11    1  0.8864208E-009  0.2406866E+03  0.7561462E-02  0.1028981E+00
         22   -1    0    0    0    0  0.00000000000E+00  0.00000000000E+00  0.27093632761E+03  0.27093632761E+03  0.00000000000E+00 0. -1.
         22   -1    0    0    0    0 -0.00000000000E+00 -0.00000000000E+00 -0.15554557022E+04  0.15554557022E+04  0.00000000000E+00 0. -1.
        -24    2    1    2    0    0  0.19850304694E+03  0.93528191055E+02 -0.12814831780E+04  0.13027215180E+04  0.82056295731E+02 0.  0.
         25    2    1    2    0    0 -0.12990448804E+03 -0.85304314958E+02 -0.21139571066E+03  0.29066470918E+03  0.12508327031E+03 0.  0.
         24    2    1    2    0    0 -0.68598558899E+02 -0.82238760963E+01  0.20835951410E+03  0.23300580265E+03  0.78132083892E+02 0.  0.
        -13    1    5    5    0    0  0.15027889248E+02  0.83479322945E+01  0.53975640316E+02  0.56647110927E+02  0.00000000000E+00 0.  1.
         14    1    5    5    0    0 -0.83626448147E+02 -0.16571808391E+02  0.15438387378E+03  0.17635869173E+03  0.00000000000E+00 0. -1.
         11    1    3    3    0    0  0.17723363097E+03  0.47400958041E+02 -0.10098779845E+04  0.10264074017E+04  0.00000000000E+00 0. -1.
        -12    1    3    3    0    0  0.21269415975E+02  0.46127233014E+02 -0.27160519355E+03  0.27631411626E+03  0.00000000000E+00 0.  1.
          5    1    4    4  501    0 -0.56594659628E+02 -0.58017600673E+02 -0.19602536274E+02  0.83490893603E+02  0.41800000000E+01 0.  1.
         -5    1    4    4    0  501 -0.73309828416E+02 -0.27286714286E+02 -0.19179317439E+03  0.20717381558E+03  0.41800000000E+01 0.  1.
</event>
<event>
11    1  0.8864208E-009  0.2171788E+03  0.7561462E-02  0.1042999E+00
         22   -1    0    0    0    0  0.00000000000E+00  0.00000000000E+00  0.53481949506E+03  0.53481949506E+03  0.00000000000E+00 0.  1.
         22   -1    0    0    0    0 -0.00000000000E+00 -0.00000000000E+00 -0.37516401207E+03  0.37516401207E+03  0.00000000000E+00 0.  1.
        -24    2    1    2    0    0  0.71187953328E+02 -0.68644309818E+02 -0.17021212802E+03  0.21049785054E+03  0.74548042162E+02 0.  0.
         25    2    1    2    0    0 -0.19525330495E+03  0.17811877542E+03 -0.30455178379E+02  0.29398103909E+03  0.12508869733E+03 0.  0.
         24    2    1    2    0    0  0.12406535163E+03 -0.10947446560E+03  0.36032278938E+03  0.40550461750E+03  0.84997718646E+02 0.  0.
        -13    1    5    5    0    0  0.10525125488E+03 -0.96068148618E+02  0.35392048259E+03  0.38153194339E+03  0.00000000000E+00 0.  1.
         14    1    5    5    0    0  0.18814096747E+02 -0.13406316987E+02  0.64023067860E+01  0.23972674105E+02  0.00000000000E+00 0. -1.
         11    1    3    3    0    0 -0.96684049752E+01 -0.11104711659E+02 -0.61769159888E+02  0.63499777866E+02  0.00000000000E+00 0. -1.
        -12    1    3    3    0    0  0.80856358303E+02 -0.57539598160E+02 -0.10844296813E+03  0.14699807268E+03  0.00000000000E+00 0.  1.
          5    1    4    4  501    0 -0.80809519576E+02  0.12285615372E+03 -0.67041170460E+02  0.16166571652E+03  0.41800000000E+01 0.  1.
         -5    1    4    4    0  501 -0.11444378538E+03  0.55262621699E+02  0.36585992081E+02  0.13231532256E+03  0.41800000000E+01 0.  1.
</event>
<event>
11    1  0.8864208E-009  0.1550257E+03  0.7561462E-02  0.1091851E+00
         22   -1    0    0    0    0  0.00000000000E+00  0.00000000000E+00  0.35843115476E+04  0.35843115476E+04  0.00000000000E+00 0. -1.
         22   -1    0    0    0    0 -0.00000000000E+00 -0.00000000000E+00 -0.84936440070E+02  0.84936440070E+02  0.00000000000E+00 0.  1.
        -24    2    1    2    0    0 -0.40739330924E+02  0.58496928864E+02 -0.24798927945E+02  0.11148253247E+03  0.82047452417E+02 0.  0.
         25    2    1    2    0    0  0.28967449050E+02  0.36820983907E+02  0.27046157941E+03  0.30165094910E+03  0.12509568814E+03 0.  0.
         24    2    1    2    0    0  0.11771881874E+02 -0.95317912770E+02  0.32537124561E+04  0.32561145061E+04  0.80080262352E+02 0.  0.
        -13    1    5    5    0    0 -0.20135654677E+02 -0.86041993633E+02  0.19833953740E+04  0.19853629086E+04  0.00000000000E+00 0.  1.
         14    1    5    5    0    0  0.31907536551E+02 -0.92759191376E+01  0.12703170821E+04  0.12707515976E+04  0.00000000000E+00 0. -1.
         11    1    3    3    0    0  0.39724809388E+01  0.63563338749E+02 -0.14058722042E+02  0.65220597232E+02  0.00000000000E+00 0. -1.
        -12    1    3    3    0    0 -0.44711811863E+02 -0.50664098857E+01 -0.10740205903E+02  0.46261935239E+02  0.00000000000E+00 0.  1.
          5    1    4    4  501    0 -0.89305074890E+01  0.68373295365E+02  0.22154641939E+03  0.23206669263E+03  0.41800000000E+01 0. -1.
         -5    1    4    4    0  501  0.37897956539E+02 -0.31552311458E+02  0.48915160023E+02  0.69584256469E+02  0.41800000000E+01 0. -1.
</event>
<event>
11    1  0.8864208E-009  0.2009296E+03  0.7561462E-02  0.1053868E+00
         22   -1    0    0    0    0  0.00000000000E+00  0.00000000000E+00  0.92686938491E+03  0.92686938491E+03  0.00000000000E+00 0.  1.
         22   -1    0    0    0    0 -0.00000000000E+00 -0.00000000000E+00 -0.43678352608E+03  0.43678352608E+03  0.00000000000E+00 0. -1.
        -24    2    1    2    0    0 -0.14511065526E+03 -0.57567063429E+02 -0.38602562126E+03  0.42403325824E+03  0.80108393821E+02 0.  0.
         25    2    1    2    0    0  0.16463657637E+03  0.82255704269E+02  0.41574826053E+03  0.47155940370E+03  0.12510176623E+03 0.  0.
         24    2    1    2    0    0 -0.19525921108E+02 -0.24688640840E+02  0.46036321955E+03  0.46806024905E+03  0.78455798020E+02 0.  0.
        -11    1    5    5    0    0 -0.24774961653E+02 -0.45247374261E+02  0.41239251661E+03  0.41560643806E+03  0.00000000000E+00 0.  1.
         12    1    5    5    0    0  0.52490405448E+01  0.20558733421E+02  0.47970702948E+02  0.52453810994E+02  0.00000000000E+00 0. -1.
         13    1    3    3    0    0 -0.58341872526E+02 -0.21254192668E+02 -0.25679796331E+03  0.26419823761E+03  0.00000000000E+00 0. -1.
        -14    1    3    3    0    0 -0.86768782735E+02 -0.36312870761E+02 -0.12922765795E+03  0.15983502063E+03  0.00000000000E+00 0.  1.
          5    1    4    4  501    0  0.17126976070E+03  0.36566253801E+02  0.34585531623E+03  0.38769033263E+03  0.41800000000E+01 0. -1.
         -5    1    4    4    0  501 -0.66331843349E+01  0.45689450468E+02  0.69892944305E+02  0.83869071070E+02  0.41800000000E+01 0. -1.
</event>
<event>
11    1  0.8864208E-009  0.1728209E+03  0.7561462E-02  0.1075603E+00
         22   -1    0    0    0    0  0.00000000000E+00  0.00000000000E+00  0.16099620228E+04  0.16099620228E+04  0.00000000000E+00 0.  1.
         22   -1    0    0    0    0 -0.00000000000E+00 -0.00000000000E+00 -0.65990745101E+03  0.65990745101E+03  0.00000000000E+00 0. -1.
         24    2    1    2    0    0 -0.10870045350E+03 -0.47017240537E+02 -0.62752768433E+03  0.64663635430E+03  0.10159316220E+03 0.  0.
         25    2    1    2    0    0  0.20300818148E+03  0.80146494720E+02  0.11246038657E+04  0.11523944849E+04  0.12507362526E+03 0.  0.
        -24    2    1    2    0    0 -0.94307727975E+02 -0.33129254183E+02  0.45297839046E+03  0.47083863464E+03  0.80672812092E+02 0.  0.
        -13    1    3    3    0    0 -0.74775621828E+01  0.10105387071E+02 -0.52938514219E+01  0.13640294972E+02  0.00000000000E+00 0.  1.
         14    1    3    3    0    0 -0.10122289132E+03 -0.57122627607E+02 -0.62223383290E+03  0.63299605933E+03  0.00000000000E+00 0. -1.
         13    1    5    5    0    0 -0.42600462170E+01 -0.30979998958E+02  0.19719356961E+03  0.19965773771E+03  0.00000000000E+00 0. -1.
        -14    1    5    5    0    0 -0.90047681758E+02 -0.21492552256E+01  0.25578482084E+03  0.27118089693E+03  0.00000000000E+00 0.  1.
          5    1    4    4  501    0  0.65449405164E+02  0.78585375225E+02  0.31607220227E+03  0.33223244164E+03  0.41800000000E+01 0.  1.
         -5    1    4    4    0  501  0.13755877631E+03  0.15611194949E+01  0.80853166340E+03  0.82016204323E+03  0.41800000000E+01 0.  1.
</event>
<event>
11    1  0.8864208E-009  0.1510374E+03  0.7561462E-02  0.1095824E+00
         22   -1    0    0    0    0  0.00000000000E+00  0.00000000000E+00  0.13292594782E+04  0.13292594782E+04  0.00000000000E+00 0. -1.
         22   -1    0    0    0    0 -0.00000000000E+00 -0.00000000000E+00 -0.99220645159E+02  0.99220645159E+02  0.00000000000E+00 0. -1.
         24    2    1    2    0    0 -0.71572487556E+01  0.46391870473E+02 -0.57244091645E+02  0.10929049459E+03  0.80399591560E+02 0.  0.
         25    2    1    2    0    0  0.89798343265E+02 -0.32977124984E+02  0.52763393791E+03  0.55063335350E+03  0.12509310263E+03 0.  0.
        -24    2    1    2    0    0 -0.82641094509E+02 -0.13414745489E+02  0.75964898675E+03  0.76855627524E+03  0.81256748973E+02 0.  0.
        -11    1    3    3    0    0  0.47170794789E+01 -0.13640320112E+02  0.10613181158E+02  0.17915043563E+02  0.00000000000E+00 0.  1.
         12    1    3    3    0    0 -0.11874328235E+02  0.60032190585E+02 -0.67857272803E+02  0.91375451024E+02  0.00000000000E+00 0. -1.
         13    1    5    5    0    0 -0.69687226748E+02  0.17872840613E+02  0.64531673904E+03  0.64931459377E+03  0.00000000000E+00 0. -1.
        -14    1    5    5    0    0 -0.12953867761E+02 -0.31287586102E+02  0.11433224771E+03  0.11924168147E+03  0.00000000000E+00 0.  1.
          5    1    4    4  501    0 -0.20292428059E+02 -0.37406057389E+02  0.21271444707E+03  0.21696982315E+03  0.41800000000E+01 0.  1.
         -5    1    4    4    0  501  0.11009077132E+03  0.44289324056E+01  0.31491949083E+03  0.33366353034E+03  0.41800000000E+01 0.  1.
</event>
<event>
11    1  0.8864208E-009  0.1286690E+03  0.7561462E-02  0.1120915E+00
         22   -1    0    0    0    0  0.00000000000E+00  0.00000000000E+00  0.72260837800E+03  0.72260837800E+03  0.00000000000E+00 0.  1.
         22   -1    0    0    0    0 -0.00000000000E+00 -0.00000000000E+00 -0.17561265553E+03  0.17561265553E+03  0.00000000000E+00 0.  1.
         24    2    1    2    0    0 -0.13497595081E+02 -0.23220209898E+02 -0.87664205002E+02  0.12259200089E+03  0.81378268734E+02 0.  0.
         25    2    1    2    0    0  0.25126098303E+02  0.34009244174E+02 -0.37473252334E+01  0.13210028262E+03  0.12509393557E+03 0.  0.
        -24    2    1    2    0    0 -0.11628503221E+02 -0.10789034276E+02  0.63840725271E+03  0.64352875003E+03  0.79459464255E+02 0.  0.
        -13    1    3    3    0    0 -0.72744747952E+01 -0.51267619219E+02 -0.75133426869E+02  0.91248663535E+02  0.00000000000E+00 0.  1.
         14    1    3    3    0    0 -0.62231202861E+01  0.28047409321E+02 -0.12530778134E+02  0.31343337352E+02  0.00000000000E+00 0. -1.
         13    1    5    5    0    0  0.48681054244E+01  0.71539697576E+01  0.57215213032E+01  0.10373694604E+02  0.00000000000E+00 0. -1.
        -14    1    5    5    0    0 -0.16496608646E+02 -0.17943004034E+02  0.63268573140E+03  0.63315505543E+03  0.00000000000E+00 0.  1.
          5    1    4    4  501    0 -0.46502844787E+02  0.29014490004E+02 -0.19760290055E+02  0.58414866828E+02  0.41800000000E+01 0.  1.
         -5    1    4    4    0  501  0.71628943090E+02  0.49947541698E+01  0.16012964822E+02  0.73685415787E+02  0.41800000000E+01 0.  1.
</event>
<event>
11    1  0.8864208E-009  0.1439960E+03  0.7561462E-02  0.1103176E+00
         22   -1    0    0    0    0  0.00000000000E+00  0.00000000000E+00  0.51611938831E+03  0.51611938831E+03  0.00000000000E+00 0. -1.
         22   -1    0    0    0    0 -0.00000000000E+00 -0.00000000000E+00 -0.71564859183E+03  0.71564859183E+03  0.00000000000E+00 0. -1.
        -24    2    1    2    0    0 -0.69758854259E+01 -0.57860869472E+02 -0.32468250430E+03  0.33973019540E+03  0.81248593060E+02 0.  0.
         25    2    1    2    0    0 -0.17147208777E+02  0.10256320470E+03 -0.36135167847E+03  0.39627810932E+03  0.12509223265E+03 0.  0.
         24    2    1    2    0    0  0.24123094203E+02 -0.44702335228E+02  0.48650497924E+03  0.49575967542E+03  0.80686668635E+02 0.  0.
        -11    1    5    5    0    0  0.15719129147E+02 -0.44738064281E+02  0.11817560640E+03  0.12733443904E+03  0.00000000000E+00 0.  1.
         12    1    5    5    0    0  0.84039650564E+01  0.35729052596E-01  0.36832937284E+03  0.36842523638E+03  0.00000000000E+00 0. -1.
         11    1    3    3    0    0  0.26701453147E+02 -0.38286459894E+02 -0.26052457321E+03  0.26467314533E+03  0.00000000000E+00 0. -1.
        -12    1    3    3    0    0 -0.33677338573E+02 -0.19574409578E+02 -0.64157931086E+02  0.75057050068E+02  0.00000000000E+00 0.  1.
          5    1    4    4  501    0 -0.45467732272E+02  0.11862078011E+03 -0.31314548528E+03  0.33795823929E+03  0.41800000000E+01 0. -1.
         -5    1    4    4    0  501  0.28320523495E+02 -0.16057575410E+02 -0.48206193188E+02  0.58319870034E+02  0.41800000000E+01 0. -1.
</event>
<event>
11    1  0.8864208E-009  0.1367840E+03  0.7561462E-02  0.1111204E+00
         22   -1    0    0    0    0  0.00000000000E+00  0.00000000000E+00  0.24018813334E+04  0.24018813334E+04  0.00000000000E+00 0.  1.
         22   -1    0    0    0    0 -0.00000000000E+00 -0.00000000000E+00 -0.48900286752E+03  0.48900286752E+03  0.00000000000E+00 0. -1.
         24    2    1    2    0    0  0.55160085469E+02  0.10313397406E+01 -0.47556762729E+03  0.48511750071E+03  0.78298931504E+02 0.  0.
         25    2    1    2    0    0 -0.90201137831E+02  0.26270647936E+02  0.83455187131E+03  0.84908646216E+03  0.12507838388E+03 0.  0.
        -24    2    1    2    0    0  0.35041052362E+02 -0.27301987677E+02  0.15538942219E+04  0.15566802381E+04  0.81809760345E+02 0.  0.
        -11    1    3    3    0    0 -0.95007179851E+01  0.17745952747E+02 -0.43660237295E+02  0.48077009077E+02  0.00000000000E+00 0.  1.
         12    1    3    3    0    0  0.64660803454E+02 -0.16714613007E+02 -0.43190739000E+03  0.43704049163E+03  0.00000000000E+00 0. -1.
         11    1    5    5    0    0  0.14502694956E+02 -0.51708514024E+02  0.64692555654E+03  0.64915081013E+03  0.00000000000E+00 0. -1.
        -12    1    5    5    0    0  0.20538357406E+02  0.24406526347E+02  0.90696866538E+03  0.90752942797E+03  0.00000000000E+00 0.  1.
          5    1    4    4  501    0 -0.38865445009E+00  0.52861418707E+02  0.17362270065E+03  0.18154006506E+03  0.41800000000E+01 0. -1.
         -5    1    4    4    0  501 -0.89812483381E+02 -0.26590770770E+02  0.66092917065E+03  0.66754639710E+03  0.41800000000E+01 0. -1.
</event>
<event>
11    1  0.8864208E-009  0.1521573E+03  0.7561462E-02  0.1094695E+00
         22   -1    0    0    0    0  0.00000000000E+00  0.00000000000E+00  0.96299855402E+03  0.96299855402E+03  0.00000000000E+00 0. -1.
         22   -1    0    0    0    0 -0.00000000000E+00 -0.00000000000E+00 -0.10899648336E+04  0.10899648336E+04  0.00000000000E+00 0. -1.
         24    2    1    2    0    0  0.23029211553E+02 -0.82430863492E+02 -0.93015160894E+03  0.93745199072E+03  0.79429386581E+02 0.  0.
         25    2    1    2    0    0 -0.57372027649E+02  0.86070966924E+02 -0.11181013702E+03  0.19710013195E+03  0.12508874597E+03 0.  0.
        -24    2    1    2    0    0  0.34342816096E+02 -0.36401034319E+01  0.91499546640E+03  0.91841126493E+03  0.71203010168E+02 0.  0.
        -11    1    3    3    0    0  0.47609149001E+02 -0.27310424190E+02 -0.36811655698E+03  0.37218582706E+03  0.00000000000E+00 0.  1.
         12    1    3    3    0    0 -0.24579937449E+02 -0.55120439302E+02 -0.56203505196E+03  0.56526616367E+03  0.00000000000E+00 0. -1.
         13    1    5    5    0    0  0.55575686028E+02 -0.10996532974E+02  0.64787611173E+03  0.65034839645E+03  0.00000000000E+00 0. -1.
        -14    1    5    5    0    0 -0.21232869932E+02  0.73564295418E+01  0.26711935467E+03  0.26806286849E+03  0.00000000000E+00 0.  1.
          5    1    4    4  501    0  0.25795380855E+02  0.73394762029E+02 -0.49122667882E+02  0.92101583410E+02  0.41800000000E+01 0. -1.
         -5    1    4    4    0  501 -0.83167408504E+02  0.12676204895E+02 -0.62687469137E+02  0.10499854854E+03  0.41800000000E+01 0. -1.
</event>
<event>
11    1  0.8864208E-009  0.1707606E+03  0.7561462E-02  0.1077372E+00
         22   -1    0    0    0    0  0.00000000000E+00  0.00000000000E+00  0.20446370890E+04  0.20446370890E+04  0.00000000000E+00 0.  1.
         22   -1    0    0    0    0 -0.00000000000E+00 -0.00000000000E+00 -0.10980839424E+04  0.10980839424E+04  0.00000000000E+00 0. -1.
         24    2    1    2    0    0 -0.47408537416E+02 -0.10741118250E+03 -0.10671338886E+04  0.10765791506E+04  0.80394027240E+02 0.  0.
         25    2    1    2    0    0 -0.62020790682E+01  0.72539121916E+02  0.18644734792E+03  0.23603070107E+03  0.12508992089E+03 0.  0.
        -24    2    1    2    0    0  0.53610616485E+02  0.34872060588E+02  0.18272396873E+04  0.18301111797E+04  0.80074317468E+02 0.  0.
        -13    1    3    3    0    0 -0.17168171764E+02 -0.61688484681E+02 -0.26705327872E+03  0.27462277571E+03  0.00000000000E+00 0.  1.
         14    1    3    3    0    0 -0.30240365652E+02 -0.45722697822E+02 -0.80008060990E+03  0.80195637485E+03  0.00000000000E+00 0. -1.
         11    1    5    5    0    0 -0.20674955634E+02  0.11127924415E+02  0.32383463297E+03  0.32468469937E+03  0.00000000000E+00 0. -1.
        -12    1    5    5    0    0  0.74285572119E+02  0.23744136173E+02  0.15034050543E+04  0.15054264803E+04  0.00000000000E+00 0.  1.
          5    1    4    4  501    0 -0.34909048624E+02 -0.89511129514E+01  0.12438938906E+03  0.12957220616E+03  0.41800000000E+01 0.  1.
         -5    1    4    4    0  501  0.28706969555E+02  0.81490234868E+02  0.62057958861E+02  0.10645849491E+03  0.41800000000E+01 0.  1.
</event>
<event>
11    1  0.8864208E-009  0.1503383E+03  0.7561462E-02  0.1096534E+00
         22   -1    0    0    0    0  0.00000000000E+00  0.00000000000E+00  0.21388849900E+04  0.21388849900E+04  0.00000000000E+00 0. -1.
         22   -1    0    0    0    0 -0.00000000000E+00 -0.00000000000E+00 -0.73732145711E+03  0.73732145711E+03  0.00000000000E+00 0. -1.
        -24    2    1    2    0    0  0.42415064404E+02  0.73263527489E+02 -0.71731603276E+03  0.72760195637E+03  0.87725332161E+02 0.  0.
         25    2    1    2    0    0 -0.28776983134E+01 -0.10039585395E+02  0.28445526638E+03  0.31092052250E+03  0.12509076031E+03 0.  0.
         24    2    1    2    0    0 -0.39537366090E+02 -0.63223942094E+02  0.18344242993E+04  0.18376839683E+04  0.80058648874E+02 0.  0.
        -11    1    5    5    0    0  0.21588011207E+02 -0.12046446641E+02  0.24049899136E+03  0.24176625891E+03  0.00000000000E+00 0.  1.
         12    1    5    5    0    0 -0.61125377297E+02 -0.51177495453E+02  0.15939253080E+04  0.15959177094E+04  0.00000000000E+00 0. -1.
         11    1    3    3    0    0  0.28749625303E+02  0.22393147824E+02 -0.56979375144E+03  0.57095789092E+03  0.00000000000E+00 0. -1.
        -12    1    3    3    0    0  0.13665439101E+02  0.50870379665E+02 -0.14752228132E+03  0.15664406545E+03  0.00000000000E+00 0.  1.
          5    1    4    4  501    0 -0.29278318513E+02  0.50716691809E+02  0.14654933894E+03  0.15787204917E+03  0.41800000000E+01 0.  1.
         -5    1    4    4    0  501  0.26400620199E+02 -0.60756277204E+02  0.13790592744E+03  0.15304847333E+03  0.41800000000E+01 0.  1.
</event>
<event>
11    1  0.8864208E-009  0.1368064E+03  0.7561462E-02  0.1111178E+00
         22   -1    0    0    0    0  0.00000000000E+00  0.00000000000E+00  0.41086714345E+03  0.41086714345E+03  0.00000000000E+00 0. -1.
         22   -1    0    0    0    0 -0.00000000000E+00 -0.00000000000E+00 -0.91905685163E+03  0.91905685163E+03  0.00000000000E+00 0.  1.
        -24    2    1    2    0    0 -0.71358252732E+01  0.56140364780E+02 -0.83555112696E+03  0.84142835839E+03  0.81567983828E+02 0.  0.
         25    2    1    2    0    0  0.39185126874E+02 -0.25724456760E+02 -0.14309315735E+02  0.13434697331E+03  0.12508849219E+03 0.  0.
         24    2    1    2    0    0 -0.32049301601E+02 -0.30415908020E+02  0.34167073452E+03  0.35414866337E+03  0.82037185164E+02 0.  0.
        -11    1    5    5    0    0 -0.12423457562E+02  0.28430993787E+02  0.10561765691E+03  0.11008066659E+03  0.00000000000E+00 0.  1.
         12    1    5    5    0    0 -0.19625844040E+02 -0.58846901807E+02  0.23605307761E+03  0.24406799679E+03  0.00000000000E+00 0. -1.
         13    1    3    3    0    0  0.96889896098E+01 -0.17986711830E+02 -0.27326017344E+03  0.27402284706E+03  0.00000000000E+00 0. -1.
        -14    1    3    3    0    0 -0.16824814883E+02  0.74127076610E+02 -0.56229095352E+03  0.56740551133E+03  0.00000000000E+00 0.  1.
          5    1    4    4  501    0  0.31138902675E+02  0.49054815415E+02 -0.66231357809E+01  0.58628870898E+02  0.41800000000E+01 0.  1.
         -5    1    4    4    0  501  0.80462241997E+01 -0.74779272175E+02 -0.76861799544E+01  0.75718102414E+02  0.41800000000E+01 0.  1.
</event>
<event>
11    1  0.8864208E-009  0.2347654E+03  0.7561462E-02  0.1032343E+00
         22   -1    0    0    0    0  0.00000000000E+00  0.00000000000E+00  0.28439505055E+02  0.28439505055E+02  0.00000000000E+00 0. -1.
         22   -1    0    0    0    0 -0.00000000000E+00 -0.00000000000E+00 -0.27708990807E+04  0.27708990807E+04  0.00000000000E+00 0. -1.
         24    2    1    2    0    0 -0.18291428884E+02 -0.25317029521E+02 -0.71329258605E+03  0.71874583420E+03  0.82666392883E+02 0.  0.
         25    2    1    2    0    0  0.25850748338E+02  0.21393368858E+03 -0.12700516798E+04  0.12942624264E+04  0.12509226528E+03 0.  0.
        -24    2    1    2    0    0 -0.75593194536E+01 -0.18861665906E+03 -0.75911530978E+03  0.78633032510E+03  0.80161956335E+02 0.  0.
        -13    1    3    3    0    0  0.17573324381E+02  0.14321797427E+02 -0.42069075448E+03  0.42130113519E+03  0.00000000000E+00 0.  1.
         14    1    3    3    0    0 -0.35864753266E+02 -0.39638826948E+02 -0.29260183158E+03  0.29744469901E+03  0.00000000000E+00 0. -1.
         13    1    5    5    0    0 -0.11037431709E+02 -0.15764590537E+03 -0.71537795815E+03  0.73262519707E+03  0.00000000000E+00 0. -1.
        -14    1    5    5    0    0  0.34781122550E+01 -0.30970753688E+02 -0.43737351636E+02  0.53705128033E+02  0.00000000000E+00 0.  1.
          5    1    4    4  501    0  0.35755086184E+02  0.28565370860E+02 -0.10654985540E+03  0.11603771234E+03  0.41800000000E+01 0. -1.
         -5    1    4    4    0  501 -0.99043378457E+01  0.18536831772E+03 -0.11635018244E+04  0.11782247141E+04  0.41800000000E+01 0. -1.
</event>
<event>
11    1  0.8864208E-009  0.1377507E+03  0.7561462E-02  0.1110096E+00
         22   -1    0    0    0    0  0.00000000000E+00  0.00000000000E+00  0.34648455686E+03  0.34648455686E+03  0.00000000000E+00 0. -1.
         22   -1    0    0    0    0 -0.00000000000E+00 -0.00000000000E+00 -0.54970018364E+03  0.54970018364E+03  0.00000000000E+00 0. -1.
        -24    2    1    2    0    0 -0.24649141761E+02  0.49505939204E+02 -0.41590645643E+03  0.42708370971E+03  0.79774033333E+02 0.  0.
         25    2    1    2    0    0  0.50781533181E+02 -0.60132318254E+02 -0.77130469903E+02  0.16670681164E+03  0.12508953532E+03 0.  0.
         24    2    1    2    0    0 -0.26132391420E+02  0.10626379050E+02  0.28982129955E+03  0.30239421915E+03  0.81547877283E+02 0.  0.
        -11    1    5    5    0    0  0.28599279555E+02 -0.16642084973E+01  0.72621150690E+02  0.78067406186E+02  0.00000000000E+00 0.  1.
         12    1    5    5    0    0 -0.54731670975E+02  0.12290587547E+02  0.21720014886E+03  0.22432681297E+03  0.00000000000E+00 0. -1.
         13    1    3    3    0    0  0.27105567775E+01  0.65031029759E+02 -0.25883498168E+03  0.26689310536E+03  0.00000000000E+00 0. -1.
        -14    1    3    3    0    0 -0.27359698539E+02 -0.15525090555E+02 -0.15707147475E+03  0.16019060435E+03  0.00000000000E+00 0.  1.
          5    1    4    4  501    0  0.14086605860E+02 -0.75356547755E+02  0.33594221752E+01  0.76849202153E+02  0.41800000000E+01 0.  1.
         -5    1    4    4    0  501  0.36694927322E+02  0.15224229501E+02 -0.80489892078E+02  0.89857609482E+02  0.41800000000E+01 0.  1.
</event>
<event>
11    1  0.8864208E-009  0.2141644E+03  0.7561462E-02  0.1044936E+00
         22   -1    0    0    0    0  0.00000000000E+00  0.00000000000E+00  0.62711104151E+03  0.62711104151E+03  0.00000000000E+00 0. -1.
         22   -1    0    0    0    0 -0.00000000000E+00 -0.00000000000E+00 -0.83760390842E+03  0.83760390842E+03  0.00000000000E+00 0.  1.
        -24    2    1    2    0    0  0.85543544802E+02  0.12879045351E+03 -0.68499682802E+03  0.70676720065E+03  0.79965883624E+02 0.  0.
         25    2    1    2    0    0 -0.22623685337E+03 -0.19526509899E+03  0.91504266583E+02  0.33665385127E+03  0.12510480433E+03 0.  0.
         24    2    1    2    0    0  0.14069330857E+03  0.66474645475E+02  0.38299969454E+03  0.42129389801E+03  0.81156003559E+02 0.  0.
        -11    1    5    5    0    0 -0.14761011324E+01  0.64336341952E+01 -0.16803556766E+01  0.68113228312E+01  0.00000000000E+00 0.  1.
         12    1    5    5    0    0  0.14216940970E+03  0.60041011280E+02  0.38468005021E+03  0.41448257518E+03  0.00000000000E+00 0. -1.
         11    1    3    3    0    0  0.77897417225E+02  0.59358668735E+02 -0.30293751974E+03  0.31837493625E+03  0.00000000000E+00 0. -1.
        -12    1    3    3    0    0  0.76461275771E+01  0.69431784776E+02 -0.38205930828E+03  0.38839226441E+03  0.00000000000E+00 0.  1.
          5    1    4    4  501    0 -0.24169741665E+03 -0.18215988251E+03  0.90549961589E+02  0.31593770265E+03  0.41800000000E+01 0. -1.
         -5    1    4    4    0  501  0.15460563277E+02 -0.13105216478E+02  0.95430499466E+00  0.20716148623E+02  0.41800000000E+01 0. -1.
</event>
<event>
11    1  0.8864208E-009  0.1921493E+03  0.7561462E-02  0.1060218E+00
         22   -1    0    0    0    0  0.00000000000E+00  0.00000000000E+00  0.45381466778E+03  0.45381466778E+03  0.00000000000E+00 0. -1.
         22   -1    0    0    0    0 -0.00000000000E+00 -0.00000000000E+00 -0.90956951759E+03  0.90956951759E+03  0.00000000000E+00 0. -1.
        -24    2    1    2    0    0 -0.10381647521E+03  0.96502028520E+02 -0.78145798522E+03  0.79825340726E+03  0.80258441953E+02 0.  0.
         25    2    1    2    0    0  0.20643785913E+03 -0.11484801875E+03  0.67481517812E+02  0.27569591061E+03  0.12509125785E+03 0.  0.
         24    2    1    2    0    0 -0.10262138391E+03  0.18345990233E+02  0.25822161760E+03  0.28943486750E+03  0.78907635453E+02 0.  0.
        -11    1    5    5    0    0  0.51836017927E+00 -0.18524783291E+02  0.20157020975E+02  0.27381413182E+02  0.00000000000E+00 0.  1.
         12    1    5    5    0    0 -0.10313974409E+03  0.36870773525E+02  0.23806459663E+03  0.26205345432E+03  0.00000000000E+00 0. -1.
         11    1    3    3    0    0 -0.90432344935E+02  0.55138232053E+02 -0.67501747603E+03  0.68327653742E+03  0.00000000000E+00 0. -1.
        -12    1    3    3    0    0 -0.13384130276E+02  0.41363796467E+02 -0.10644050920E+03  0.11497686984E+03  0.00000000000E+00 0.  1.
          5    1    4    4  501    0  0.21904572447E+03 -0.12039826677E+03  0.72761930958E+02  0.26036233032E+03  0.41800000000E+01 0.  1.
         -5    1    4    4    0  501 -0.12607865346E+02  0.55502480207E+01 -0.52804131456E+01  0.15333580295E+02  0.41800000000E+01 0.  1.
</event>
<event>
11    1  0.8864208E-009  0.1589190E+03  0.7561462E-02  0.1088098E+00
         22   -1    0    0    0    0  0.00000000000E+00  0.00000000000E+00  0.46757273713E+03  0.46757273713E+03  0.00000000000E+00 0.  1.
         22   -1    0    0    0    0 -0.00000000000E+00 -0.00000000000E+00 -0.12420241687E+04  0.12420241687E+04  0.00000000000E+00 0.  1.
        -24    2    1    2    0    0 -0.63821748142E+01 -0.94581611065E+02 -0.10388975004E+04  0.10462992747E+04  0.80297837785E+02 0.  0.
         25    2    1    2    0    0  0.68828096182E+02  0.13676644663E+03 -0.14121860888E+03  0.24296623935E+03  0.12509008842E+03 0.  0.
         24    2    1    2    0    0 -0.62445921367E+02 -0.42184835566E+02  0.40566467764E+03  0.42033139178E+03  0.80222158958E+02 0.  0.
        -11    1    5    5    0    0 -0.39393364568E+02 -0.63983974455E+02  0.32674086673E+03  0.33526911601E+03  0.00000000000E+00 0.  1.
         12    1    5    5    0    0 -0.23052556799E+02  0.21799138889E+02  0.78923810906E+02  0.85062275770E+02  0.00000000000E+00 0. -1.
         11    1    3    3    0    0  0.13789654108E+02 -0.45450469907E+02 -0.19382964904E+03  0.19956410655E+03  0.00000000000E+00 0. -1.
        -12    1    3    3    0    0 -0.20171828922E+02 -0.49131141158E+02 -0.84506785132E+03  0.84673516818E+03  0.00000000000E+00 0.  1.
          5    1    4    4  501    0  0.86722984785E+02  0.35716340573E+02 -0.54568892662E+02  0.10858991445E+03  0.41800000000E+01 0.  1.
         -5    1    4    4    0  501 -0.17894888603E+02  0.10105010606E+03 -0.86649716219E+02  0.13437632490E+03  0.41800000000E+01 0.  1.
</event>
<event>
11    1  0.8864208E-009  0.1536571E+03  0.7561462E-02  0.1093199E+00
         22   -1    0    0    0    0  0.00000000000E+00  0.00000000000E+00  0.12716109380E+04  0.12716109380E+04  0.00000000000E+00 0. -1.
         22   -1    0    0    0    0 -0.00000000000E+00 -0.00000000000E+00 -0.37867241810E+03  0.37867241810E+03  0.00000000000E+00 0. -1.
        -24    2    1    2    0    0  0.39743813159E+02  0.78689020187E+02 -0.31153493991E+03  0.33353394767E+03  0.80120801805E+02 0.  0.
         25    2    1    2    0    0 -0.68858499321E+02  0.93511476922E+01  0.43793238808E+02  0.14964462175E+03  0.12508688245E+03 0.  0.
         24    2    1    2    0    0  0.29114686162E+02 -0.88040167879E+02  0.11606802210E+04  0.11671047867E+04  0.79726228789E+02 0.  0.
        -13    1    5    5    0    0 -0.22788153728E+02 -0.28706377441E+02  0.57151543189E+03  0.57268948388E+03  0.00000000000E+00 0.  1.
         14    1    5    5    0    0  0.51902839890E+02 -0.59333790438E+02  0.58916478911E+03  0.59441530280E+03  0.00000000000E+00 0. -1.
         11    1    3    3    0    0  0.64163276338E+02  0.62326242555E+02 -0.24397571232E+03  0.25985695054E+03  0.00000000000E+00 0. -1.
        -12    1    3    3    0    0 -0.24419463179E+02  0.16362777631E+02 -0.67559227592E+02  0.73676997134E+02  0.00000000000E+00 0.  1.
          5    1    4    4  501    0 -0.50402055644E+02  0.63824146181E+02  0.42741763186E+02  0.91968579249E+02  0.41800000000E+01 0. -1.
         -5    1    4    4    0  501 -0.18456443677E+02 -0.54472998489E+02  0.10514756220E+01  0.57676042501E+02  0.41800000000E+01 0. -1.
</event>
<event>
11    1  0.8864208E-009  0.1488451E+03  0.7561462E-02  0.1098065E+00
         22   -1    0    0    0    0  0.00000000000E+00  0.00000000000E+00  0.32670729299E+03  0.32670729299E+03  0.00000000000E+00 0. -1.
         22   -1    0    0    0    0 -0.00000000000E+00 -0.00000000000E+00 -0.10600873600E+04  0.10600873600E+04  0.00000000000E+00 0.  1.
         24    2    1    2    0    0  0.11222085000E+02 -0.76098867013E+02 -0.82484081219E+03  0.83231076429E+03  0.80385758387E+02 0.  0.
         25    2    1    2    0    0 -0.52032007449E+02  0.10659978141E+03 -0.19147217520E+03  0.25764279857E+03  0.12508946632E+03 0.  0.
        -24    2    1    2    0    0  0.40809922448E+02 -0.30500914398E+02  0.28293292041E+03  0.29684109008E+03  0.73944842676E+02 0.  0.
        -11    1    3    3    0    0 -0.63852615756E+01 -0.81894382818E+02 -0.77110016003E+03  0.77546303477E+03  0.00000000000E+00 0.  1.
         12    1    3    3    0    0  0.17607346576E+02  0.57955158047E+01 -0.53740652156E+02  0.56847729515E+02  0.00000000000E+00 0. -1.
         11    1    5    5    0    0  0.60210171536E+01 -0.31773965792E+02  0.23705400293E+03  0.23924973951E+03  0.00000000000E+00 0. -1.
        -12    1    5    5    0    0  0.34788905295E+02  0.12730513942E+01  0.45878917482E+02  0.57591350572E+02  0.00000000000E+00 0.  1.
          5    1    4    4  501    0 -0.63591527739E+01 -0.15221782026E+02  0.85109173583E+01  0.19027600645E+02  0.41800000000E+01 0. -1.
         -5    1    4    4    0  501 -0.45672854675E+02  0.12182156344E+03 -0.19998309256E+03  0.23861519792E+03  0.41800000000E+01 0. -1.
</event>
<event>
11    1  0.8864208E-009  0.2735880E+03  0.7561462E-02  0.1012033E+00
         22   -1    0    0    0    0  0.00000000000E+00  0.00000000000E+00  0.12724728246E+04  0.12724728246E+04  0.00000000000E+00 0.  1.
         22   -1    0    0    0    0 -0.00000000000E+00 -0.00000000000E+00 -0.17932007593E+04  0.17932007593E+04  0.00000000000E+00 0.  1.
         24    2    1    2    0    0 -0.24150158092E+03  0.25313238143E+02 -0.17453851351E+04  0.17639434971E+04  0.78508709294E+02 0.  0.
         25    2    1    2    0    0  0.27912096660E+03 -0.65669554084E+01  0.62955500538E+03  0.69995739490E+03  0.12509680643E+03 0.  0.
        -24    2    1    2    0    0 -0.37619385683E+02 -0.18746282734E+02  0.59510219506E+03  0.60177269189E+03  0.78848645117E+02 0.  0.
        -13    1    3    3    0    0 -0.96951386856E+02  0.28569587010E+02 -0.49405124686E+03  0.50428407395E+03  0.00000000000E+00 0.  1.
         14    1    3    3    0    0 -0.14455019406E+03 -0.32563488678E+01 -0.12513338883E+04  0.12596594232E+04  0.00000000000E+00 0. -1.
         13    1    5    5    0    0  0.21104405116E+02 -0.69504605176E+01  0.74691142780E+02  0.77926065129E+02  0.00000000000E+00 0. -1.
        -14    1    5    5    0    0 -0.58723790799E+02 -0.11795822217E+02  0.52041105228E+03  0.52384662676E+03  0.00000000000E+00 0.  1.
          5    1    4    4  501    0  0.35105051494E+02 -0.19143370813E+02  0.21506723372E+03  0.21879264317E+03  0.41800000000E+01 0.  1.
         -5    1    4    4    0  501  0.24401591511E+03  0.12576415405E+02  0.41448777166E+03  0.48116475172E+03  0.41800000000E+01 0.  1.
</event>
<event>
11    1  0.8864208E-009  0.1399998E+03  0.7561462E-02  0.1107559E+00
         22   -1    0    0    0    0  0.00000000000E+00  0.00000000000E+00  0.24816083265E+03  0.24816083265E+03  0.00000000000E+00 0.  1.
         22   -1    0    0    0    0 -0.00000000000E+00 -0.00000000000E+00 -0.60121408463E+03  0.60121408463E+03  0.00000000000E+00 0.  1.
         24    2    1    2    0    0  0.25369205881E+02 -0.13552431077E+02 -0.45459885775E+03  0.46154541837E+03  0.74409587806E+02 0.  0.
         25    2    1    2    0    0 -0.42326026775E+02 -0.47574963440E+02 -0.90081404234E+02  0.16678869406E+03  0.12509572090E+03 0.  0.
        -24    2    1    2    0    0  0.16956820894E+02  0.61127394516E+02  0.19162701001E+03  0.22104080485E+03  0.90077934646E+02 0.  0.
        -11    1    3    3    0    0  0.49093449842E+02  0.54259952986E+01 -0.28015480867E+03  0.28447552630E+03  0.00000000000E+00 0.  1.
         12    1    3    3    0    0 -0.23724243961E+02 -0.18978426375E+02 -0.17444404908E+03  0.17706989207E+03  0.00000000000E+00 0. -1.
         11    1    5    5    0    0 -0.34401169399E+02  0.26495242995E+02  0.48575594817E+02  0.65153869948E+02  0.00000000000E+00 0. -1.
        -12    1    5    5    0    0  0.51357990293E+02  0.34632151521E+02  0.14305141519E+03  0.15588693490E+03  0.00000000000E+00 0.  1.
          5    1    4    4  501    0 -0.66385974112E+02 -0.77229769179E+02 -0.66904545033E+02  0.12192303044E+03  0.41800000000E+01 0. -1.
         -5    1    4    4    0  501  0.24059947337E+02  0.29654805740E+02 -0.23176859201E+02  0.44865663617E+02  0.41800000000E+01 0. -1.
</event>
<event>
11    1  0.8864208E-009  0.1321185E+03  0.7561462E-02  0.1116693E+00
         22   -1    0    0    0    0  0.00000000000E+00  0.00000000000E+00  0.22886958072E+04  0.22886958072E+04  0.00000000000E+00 0. -1.
         22   -1    0    0    0    0 -0.00000000000E+00 -0.00000000000E+00 -0.50679767034E+02  0.50679767034E+02  0.00000000000E+00 0.  1.
        -24    2    1    2    0    0  0.20141125301E+02  0.35455780184E+02  0.16135328653E+02  0.92731745578E+02  0.81707102080E+02 0.  0.
         25    2    1    2    0    0 -0.28343209031E+02 -0.47794201186E+02  0.40012221788E+03  0.42288785120E+03  0.12509485316E+03 0.  0.
         24    2    1    2    0    0  0.82020837306E+01  0.12338421002E+02  0.18217584936E+04  0.18237559774E+04  0.84037761550E+02 0.  0.
        -13    1    5    5    0    0 -0.86750606481E+01 -0.34227733451E+02  0.85653162791E+03  0.85725913470E+03  0.00000000000E+00 0.  1.
         14    1    5    5    0    0  0.16877144379E+02  0.46566154453E+02  0.96522686572E+03  0.96649684275E+03  0.00000000000E+00 0. -1.
         11    1    3    3    0    0 -0.30669407514E+02  0.18204216763E+02 -0.29316649701E+01  0.35785482038E+02  0.00000000000E+00 0. -1.
        -12    1    3    3    0    0  0.50810532814E+02  0.17251563421E+02  0.19066993623E+02  0.56946263540E+02  0.00000000000E+00 0.  1.
          5    1    4    4  501    0  0.14908421378E+02  0.37633952991E+02  0.10598901685E+03  0.11353290069E+03  0.41800000000E+01 0.  1.
         -5    1    4    4    0  501 -0.43251630409E+02 -0.85428154177E+02  0.29413320103E+03  0.30935495051E+03  0.41800000000E+01 0.  1.
</event>
<event>
11    1  0.8864208E-009  0.1501343E+03  0.7561462E-02  0.1096742E+00
         22   -1    0    0    0    0  0.00000000000E+00  0.00000000000E+00  0.40033131871E+03  0.40033131871E+03  0.00000000000E+00 0.  1.
         22   -1    0    0    0    0 -0.00000000000E+00 -0.00000000000E+00 -0.60587036076E+03  0.60587036076E+03  0.00000000000E+00 0. -1.
        -24    2    1    2    0    0 -0.11307771254E+01  0.91557856329E+02 -0.52242898392E+03  0.53667987320E+03  0.81909238502E+02 0.  0.
         25    2    1    2    0    0  0.44260404115E+02 -0.62940831176E+01  0.43324174662E+01  0.13290857195E+03  0.12508924735E+03 0.  0.
         24    2    1    2    0    0 -0.43129626989E+02 -0.85263773212E+02  0.31255752440E+03  0.33661323433E+03  0.80536871804E+02 0.  0.
        -13    1    5    5    0    0 -0.53333492196E+02 -0.65045170058E+02  0.29811022133E+03  0.30974996303E+03  0.00000000000E+00 0.  1.
         14    1    5    5    0    0  0.10203865207E+02 -0.20218603154E+02  0.14447303067E+02  0.26863271293E+02  0.00000000000E+00 0. -1.
         13    1    3    3    0    0 -0.39121474298E+02  0.33065944179E+02 -0.17615091321E+03  0.18344751468E+03  0.00000000000E+00 0. -1.
        -14    1    3    3    0    0  0.37990697173E+02  0.58491912151E+02 -0.34627807070E+03  0.35323235852E+03  0.00000000000E+00 0.  1.
          5    1    4    4  501    0  0.42524411516E+02  0.59129813262E+01 -0.56282204006E+02  0.70911549206E+02  0.41800000000E+01 0. -1.
         -5    1    4    4    0  501  0.17359925983E+01 -0.12207064444E+02  0.60614621472E+02  0.61997022742E+02  0.41800000000E+01 0. -1.
</event>
<event>
11    1  0.8864208E-009  0.4636866E+03  0.7561462E-02  0.9478538E-01
         22   -1    0    0    0    0  0.00000000000E+00  0.00000000000E+00  0.19389397847E+04  0.19389397847E+04  0.00000000000E+00 0. -1.
         22   -1    0    0    0    0 -0.00000000000E+00 -0.00000000000E+00 -0.12965543888E+04  0.12965543888E+04  0.00000000000E+00 0. -1.
        -24    2    1    2    0    0 -0.13409267837E+03 -0.53148696149E+02 -0.11704609068E+04  0.11820393068E+04  0.80203230400E+02 0.  0.
         25    2    1    2    0    0  0.52878452165E+03 -0.25878939276E+02  0.87744497750E+03  0.10323958382E+04  0.12509471737E+03 0.  0.
         24    2    1    2    0    0 -0.39469184328E+03  0.79027635425E+02  0.93540132516E+03  0.10210590286E+04  0.74557913080E+02 0.  0.
        -13    1    5    5    0    0 -0.96769917923E+02 -0.12813776907E+02  0.22201881670E+03  0.24253033802E+03  0.00000000000E+00 0.  1.
         14    1    5    5    0    0 -0.29792192536E+03  0.91841412331E+02  0.71338250846E+03  0.77852869055E+03  0.00000000000E+00 0. -1.
         11    1    3    3    0    0 -0.93054688995E+02 -0.56907871349E+02 -0.10270196333E+04  0.10327957243E+04  0.00000000000E+00 0. -1.
        -12    1    3    3    0    0 -0.41037989375E+02  0.37591751999E+01 -0.14344127348E+03  0.14924358247E+03  0.00000000000E+00 0.  1.
          5    1    4    4  501    0  0.37750103302E+03 -0.64846762560E+02  0.55872600310E+03  0.67742479398E+03  0.41800000000E+01 0. -1.
         -5    1    4    4    0  501  0.15128348863E+03  0.38967823284E+02  0.31871897440E+03  0.35497104421E+03  0.41800000000E+01 0. -1.
</event>
<event>
11    1  0.8864208E-009  0.4241536E+03  0.7561462E-02  0.9581062E-01
         22   -1    0    0    0    0  0.00000000000E+00  0.00000000000E+00  0.84265977917E+03  0.84265977917E+03  0.00000000000E+00 0.  1.
         22   -1    0    0    0    0 -0.00000000000E+00 -0.00000000000E+00 -0.84558946905E+03  0.84558946905E+03  0.00000000000E+00 0. -1.
        -24    2    1    2    0    0 -0.93484239555E+01 -0.29653374039E+02 -0.60746060322E+03  0.61287826745E+03  0.75131023055E+02 0.  0.
         25    2    1    2    0    0 -0.37289203579E+03  0.16305566039E+03  0.12786918837E+03  0.44456096344E+03  0.12509317384E+03 0.  0.
         24    2    1    2    0    0  0.38224045974E+03 -0.13340228635E+03  0.47666172497E+03  0.63081001734E+03  0.82528412366E+02 0.  0.
        -13    1    5    5    0    0  0.30985312575E+03 -0.93007828642E+02  0.32862425021E+03  0.46114348478E+03  0.00000000000E+00 0.  1.
         14    1    5    5    0    0  0.72387333993E+02 -0.40394457707E+02  0.14803747476E+03  0.16966653256E+03  0.00000000000E+00 0. -1.
         11    1    3    3    0    0  0.27020784277E+02  0.81438538511E+01 -0.25042886365E+03  0.25201400931E+03  0.00000000000E+00 0. -1.
        -12    1    3    3    0    0 -0.36369208233E+02 -0.37797227890E+02 -0.35703173957E+03  0.36086425815E+03  0.00000000000E+00 0.  1.
          5    1    4    4  501    0 -0.37131801759E+03  0.16257972806E+03  0.10160012362E+03  0.41791063122E+03  0.41800000000E+01 0. -1.
         -5    1    4    4    0  501 -0.15740181947E+01  0.47593232470E+00  0.26269064743E+02  0.26650332218E+02  0.41800000000E+01 0. -1.
</event>
<event>
11    1  0.8864208E-009  0.1423711E+03  0.7561462E-02  0.1104939E+00
         22   -1    0    0    0    0  0.00000000000E+00  0.00000000000E+00  0.14897705665E+04  0.14897705665E+04  0.00000000000E+00 0.  1.
         22   -1    0    0    0    0 -0.00000000000E+00 -0.00000000000E+00 -0.10397999413E+04  0.10397999413E+04  0.00000000000E+00 0.  1.
         24    2    1    2    0    0 -0.50446421943E+02  0.42734744129E+02 -0.90139479316E+03  0.90742905304E+03  0.80893839756E+02 0.  0.
         25    2    1    2    0    0  0.96917986483E+02 -0.37200179260E+02 -0.84508105196E+02  0.18321263361E+03  0.12509316460E+03 0.  0.
        -24    2    1    2    0    0 -0.46471564541E+02 -0.55345648688E+01  0.14358735236E+04  0.14389288212E+04  0.81198145889E+02 0.  0.
        -11    1    3    3    0    0 -0.53792228976E+02  0.63286613196E+02 -0.75643202481E+03  0.76097845401E+03  0.00000000000E+00 0.  1.
         12    1    3    3    0    0  0.33458070336E+01 -0.20551869067E+02 -0.14496276835E+03  0.14645059903E+03  0.00000000000E+00 0. -1.
         11    1    5    5    0    0  0.47012649836E+01 -0.34566500427E+02  0.53265189936E+03  0.53379302238E+03  0.00000000000E+00 0. -1.
        -12    1    5    5    0    0 -0.51172829524E+02  0.29031935559E+02  0.90322162425E+03  0.90513579880E+03  0.00000000000E+00 0.  1.
          5    1    4    4  501    0  0.61336750182E+02 -0.31235417587E+00  0.21711357646E+02  0.65200843084E+02  0.41800000000E+01 0. -1.
         -5    1    4    4    0  501  0.35581236301E+02 -0.36887825084E+02 -0.10621946284E+03  0.11801179052E+03  0.41800000000E+01 0. -1.
</event>
<event>
11    1  0.8864208E-009  0.1359253E+03  0.7561462E-02  0.1112196E+00
         22   -1    0    0    0    0  0.00000000000E+00  0.00000000000E+00  0.86446440465E+02  0.86446440465E+02  0.00000000000E+00 0. -1.
         22   -1    0    0    0    0 -0.00000000000E+00 -0.00000000000E+00 -0.58356829934E+03  0.58356829934E+03  0.00000000000E+00 0.  1.
         24    2    1    2    0    0  0.45486480366E+02  0.10614378658E+02 -0.24605260249E+03  0.26336940262E+03  0.81485422707E+02 0.  0.
         25    2    1    2    0    0 -0.92134265784E+02  0.17994793581E+01 -0.26929498982E+03  0.31089854774E+03  0.12508458892E+03 0.  0.
        -24    2    1    2    0    0  0.46647785418E+02 -0.12413858017E+02  0.18225733428E+02  0.95746789456E+02  0.80654513680E+02 0.  0.
        -13    1    3    3    0    0  0.10038163707E+02  0.35025354211E+02 -0.18570621050E+03  0.18924676163E+03  0.00000000000E+00 0.  1.
         14    1    3    3    0    0  0.35448316659E+02 -0.24410975553E+02 -0.60346391988E+02  0.74122640991E+02  0.00000000000E+00 0. -1.
         13    1    5    5    0    0  0.68798844030E+02 -0.11431017308E+02  0.49817867154E+01  0.69919720362E+02  0.00000000000E+00 0. -1.
        -14    1    5    5    0    0 -0.22151058612E+02 -0.98284070895E+00  0.13243946712E+02  0.25827069095E+02  0.00000000000E+00 0.  1.
          5    1    4    4  501    0 -0.87324996296E+02 -0.10859966495E+02 -0.27974567523E+03  0.29328946292E+03  0.41800000000E+01 0.  1.
         -5    1    4    4    0  501 -0.48092694888E+01  0.12659445853E+02  0.10450685413E+02  0.17609084812E+02  0.41800000000E+01 0.  1.
</event>
<event>
11    1  0.8864208E-009  0.1862111E+03  0.7561462E-02  0.1064727E+00
         22   -1    0    0    0    0  0.00000000000E+00  0.00000000000E+00  0.23603419687E+03  0.23603419687E+03  0.00000000000E+00 0. -1.
         22   -1    0    0    0    0 -0.00000000000E+00 -0.00000000000E+00 -0.86778049351E+03  0.86778049351E+03  0.00000000000E+00 0. -1.
        -24    2    1    2    0    0  0.21173774591E+02 -0.14602013854E+03 -0.71564398443E+03  0.73536329621E+03  0.82720344377E+02 0.  0.
         25    2    1    2    0    0 -0.61153018717E+02  0.78459759342E+02 -0.72833467340E+02  0.17563624501E+03  0.12509097115E+03 0.  0.
         24    2    1    2    0    0  0.39979244126E+02  0.67560379196E+02  0.15673115513E+03  0.19281514915E+03  0.80313647386E+02 0.  0.
        -13    1    5    5    0    0 -0.11909062416E+02 -0.36404960514E+01 -0.63072250256E+00  0.12469033243E+02  0.00000000000E+00 0.  1.
         14    1    5    5    0    0  0.51888306542E+02  0.71200875247E+02  0.15736187763E+03  0.18034611591E+03  0.00000000000E+00 0. -1.
         13    1    3    3    0    0  0.24209790125E+02 -0.13804356144E+03 -0.49241884903E+03  0.51197505962E+03  0.00000000000E+00 0. -1.
        -14    1    3    3    0    0 -0.30360155339E+01 -0.79765770960E+01 -0.22322513540E+03  0.22338823659E+03  0.00000000000E+00 0.  1.
          5    1    4    4  501    0 -0.70832640423E+02  0.24412185341E+02  0.10482984282E+02  0.75766635809E+02  0.41800000000E+01 0.  1.
         -5    1    4    4    0  501  0.96796217058E+01  0.54047574002E+02 -0.83316451622E+02  0.99869609205E+02  0.41800000000E+01 0.  1.
</event>
<event>
11    1  0.8864208E-009  0.1514947E+03  0.7561462E-02  0.1095361E+00
         22   -1    0    0    0    0  0.00000000000E+00  0.00000000000E+00  0.30392986469E+02  0.30392986469E+02  0.00000000000E+00 0.  1.
         22   -1    0    0    0    0 -0.00000000000E+00 -0.00000000000E+00 -0.24346662511E+04  0.24346662511E+04  0.00000000000E+00 0.  1.
         24    2    1    2    0    0  0.31911348367E+01 -0.77047136127E+02 -0.13891676133E+04  0.13930373202E+04  0.69425306790E+02 0.  0.
         25    2    1    2    0    0  0.81141912513E+01  0.11987581504E+03 -0.94117598213E+03  0.95702449648E+03  0.12509039289E+03 0.  0.
        -24    2    1    2    0    0 -0.11305326088E+02 -0.42828678917E+02 -0.73929669198E+02  0.11499742084E+03  0.76136093128E+02 0.  0.
        -13    1    3    3    0    0  0.19611239176E+02 -0.80020466400E+02 -0.95437011429E+03  0.95791972043E+03  0.00000000000E+00 0.  1.
         14    1    3    3    0    0 -0.16420104339E+02  0.29733302734E+01 -0.43479749901E+03  0.43511759981E+03  0.00000000000E+00 0. -1.
         13    1    5    5    0    0 -0.22414833567E+02  0.75632506545E+01  0.13893866239E+01  0.23697213327E+02  0.00000000000E+00 0. -1.
        -14    1    5    5    0    0  0.11109507479E+02 -0.50391929571E+02 -0.75319055822E+02  0.91300207515E+02  0.00000000000E+00 0.  1.
          5    1    4    4  501    0 -0.50061207854E+02  0.32634112172E+02 -0.49814532907E+03  0.50173434314E+03  0.41800000000E+01 0.  1.
         -5    1    4    4    0  501  0.58175399106E+02  0.87241702871E+02 -0.44303065306E+03  0.45529015335E+03  0.41800000000E+01 0.  1.
</event>
<event>
11    1  0.8864208E-009  0.1468839E+03  0.7561462E-02  0.1100106E+00
         22   -1    0    0    0    0  0.00000000000E+00  0.00000000000E+00  0.52206505039E+02  0.52206505039E+02  0.00000000000E+00 0. -1.
         22   -1    0    0    0    0 -0.00000000000E+00 -0.00000000000E+00 -0.22350653466E+04  0.22350653466E+04  0.00000000000E+00 0. -1.
         24    2    1    2    0    0  0.48366271369E+02 -0.53709202528E+02 -0.16721231847E+04  0.16763116672E+04  0.93813038157E+02 0.  0.
         25    2    1    2    0    0 -0.47360960153E+02  0.10314171563E+03 -0.48246517750E+03  0.51117665271E+03  0.12509056208E+03 0.  0.
        -24    2    1    2    0    0 -0.10053112158E+01 -0.49432513105E+02 -0.28270479429E+02  0.99783531803E+02  0.81932589422E+02 0.  0.
        -11    1    3    3    0    0  0.20524181880E+01  0.12220112910E+02 -0.33654991372E+02  0.35863658823E+02  0.00000000000E+00 0.  1.
         12    1    3    3    0    0  0.46313853181E+02 -0.65929315438E+02 -0.16384681933E+04  0.16404480083E+04  0.00000000000E+00 0. -1.
         13    1    5    5    0    0 -0.25131846444E+02 -0.53744194690E+02  0.37634852719E+01  0.59449238767E+02  0.00000000000E+00 0. -1.
        -14    1    5    5    0    0  0.24126535229E+02  0.43116815849E+01 -0.32033964701E+02  0.40334293036E+02  0.00000000000E+00 0.  1.
          5    1    4    4  501    0 -0.42597077783E+02  0.27248937543E+02 -0.47198684002E+02  0.69297935066E+02  0.41800000000E+01 0.  1.
         -5    1    4    4    0  501 -0.47638823700E+01  0.75892778090E+02 -0.43526649350E+03  0.44187871764E+03  0.41800000000E+01 0.  1.
</event>
<event>
11    1  0.8864208E-009  0.2526882E+03  0.7561462E-02  0.1022477E+00
         22   -1    0    0    0    0  0.00000000000E+00  0.00000000000E+00  0.19681919349E+04  0.19681919349E+04  0.00000000000E+00 0.  1.
         22   -1    0    0    0    0 -0.00000000000E+00 -0.00000000000E+00 -0.17621664590E+04  0.17621664590E+04  0.00000000000E+00 0.  1.
         24    2    1    2    0    0  0.32211057927E+02 -0.21640703855E+02 -0.17067326203E+04  0.17090771062E+04  0.80637741625E+02 0.  0.
         25    2    1    2    0    0  0.19183989322E+03  0.46024764925E+01  0.23944460360E+03  0.33136836313E+03  0.12509015335E+03 0.  0.
        -24    2    1    2    0    0 -0.22405095115E+03  0.17038227362E+02  0.16733134927E+04  0.16899129245E+04  0.73065162459E+02 0.  0.
        -13    1    3    3    0    0  0.18184470897E+02 -0.35855684006E+02 -0.15992342760E+04  0.15997395334E+04  0.00000000000E+00 0.  1.
         14    1    3    3    0    0  0.14026587030E+02  0.14214980151E+02 -0.10749834431E+03  0.10933757283E+03  0.00000000000E+00 0. -1.
         11    1    5    5    0    0 -0.27959737051E+02 -0.16423642777E+02  0.38116643709E+03  0.38254324684E+03  0.00000000000E+00 0. -1.
        -12    1    5    5    0    0 -0.19609121409E+03  0.33461870139E+02  0.12921470556E+04  0.13073696777E+04  0.00000000000E+00 0.  1.
          5    1    4    4  501    0  0.13974143087E+03  0.19366056193E+02  0.78485863209E+02  0.16149369882E+03  0.41800000000E+01 0.  1.
         -5    1    4    4    0  501  0.52098462350E+02 -0.14763579701E+02  0.16095874040E+03  0.16987466431E+03  0.41800000000E+01 0.  1.
</event>
<event>
11    1  0.8864208E-009  0.1259769E+03  0.7561462E-02  0.1124313E+00
         22   -1    0    0    0    0  0.00000000000E+00  0.00000000000E+00  0.22953579571E+03  0.22953579571E+03  0.00000000000E+00 0. -1.
         22   -1    0    0    0    0 -0.00000000000E+00 -0.00000000000E+00 -0.13568894866E+03  0.13568894866E+03  0.00000000000E+00 0. -1.
         24    2    1    2    0    0  0.99833631319E+01  0.24779485297E+02 -0.61832316011E+02  0.98975100049E+02  0.72519960669E+02 0.  0.
         25    2    1    2    0    0 -0.74526148916E+01 -0.27690530507E+01  0.59043559084E+02  0.13853906618E+03  0.12507486504E+03 0.  0.
        -24    2    1    2    0    0 -0.25307482403E+01 -0.22010432246E+02  0.96635603973E+02  0.12771057815E+03  0.80502720455E+02 0.  0.
        -13    1    3    3    0    0  0.30688622473E+02  0.11551569019E+02 -0.37991671758E+00  0.32792905220E+02  0.00000000000E+00 0.  1.
         14    1    3    3    0    0 -0.20705259341E+02  0.13227916278E+02 -0.61452399294E+02  0.66182194829E+02  0.00000000000E+00 0. -1.
         13    1    5    5    0    0 -0.16890500057E+02 -0.21648570361E+02  0.10669670633E+03  0.11017321241E+03  0.00000000000E+00 0. -1.
        -14    1    5    5    0    0  0.14359751817E+02 -0.36186188493E+00 -0.10061102358E+02  0.17537365735E+02  0.00000000000E+00 0.  1.
          5    1    4    4  501    0  0.57341524523E+02  0.84653943166E+01  0.37716725331E+02  0.69280134998E+02  0.41800000000E+01 0.  1.
         -5    1    4    4    0  501 -0.64794139415E+02 -0.11234447367E+02  0.21326833754E+02  0.69258931180E+02  0.41800000000E+01 0.  1.
</event>
<event>
11    1  0.8864208E-009  0.1284926E+04  0.7561462E-02  0.8447044E-01
         22   -1    0    0    0    0  0.00000000000E+00  0.00000000000E+00  0.16391177245E+04  0.16391177245E+04  0.00000000000E+00 0.  1.
         22   -1    0    0    0    0 -0.00000000000E+00 -0.00000000000E+00 -0.14470191707E+04  0.14470191707E+04  0.00000000000E+00 0.  1.
         24    2    1    2    0    0  0.19367274718E+03  0.26647330731E+03 -0.25466897112E+03  0.42571923320E+03  0.88675950246E+02 0.  0.
         25    2    1    2    0    0 -0.13228035215E+04  0.19416673990E+03  0.50995242890E+03  0.14363877981E+04  0.12509415333E+03 0.  0.
        -24    2    1    2    0    0  0.11291307744E+04 -0.46064004721E+03 -0.63184903960E+02  0.12240298640E+04  0.84446534062E+02 0.  0.
        -11    1    3    3    0    0  0.13368844615E+03  0.12502321047E+03 -0.17235536687E+03  0.25141554502E+03  0.00000000000E+00 0.  1.
         12    1    3    3    0    0  0.59984301032E+02  0.14145009684E+03 -0.82313604252E+02  0.17430368818E+03  0.00000000000E+00 0. -1.
         13    1    5    5    0    0  0.53246128464E+03 -0.17362572905E+03 -0.40837730883E+02  0.56154130186E+03  0.00000000000E+00 0. -1.
        -14    1    5    5    0    0  0.59666948971E+03 -0.28701431816E+03 -0.22347173077E+02  0.66248856211E+03  0.00000000000E+00 0.  1.
          5    1    4    4  501    0 -0.25049769721E+03  0.85747171931E+02  0.11135106374E+03  0.28725982245E+03  0.41800000000E+01 0.  1.
         -5    1    4    4    0  501 -0.10723058243E+04  0.10841956796E+03  0.39860136516E+03  0.11491279756E+04  0.41800000000E+01 0.  1.
</event>
<event>
11    1  0.8864208E-009  0.1341570E+03  0.7561462E-02  0.1114264E+00
         22   -1    0    0    0    0  0.00000000000E+00  0.00000000000E+00  0.17071500297E+03  0.17071500297E+03  0.00000000000E+00 0.  1.
         22   -1    0    0    0    0 -0.00000000000E+00 -0.00000000000E+00 -0.57940611507E+03  0.57940611507E+03  0.00000000000E+00 0. -1.
        -24    2    1    2    0    0  0.44032208173E+02  0.73744527000E+01 -0.23406821420E+03  0.25131317923E+03  0.79857167795E+02 0.  0.
         25    2    1    2    0    0 -0.55690953629E+02  0.42747030364E+01 -0.31100393811E+03  0.33983833490E+03  0.12508752515E+03 0.  0.
         24    2    1    2    0    0  0.11658745456E+02 -0.11649155736E+02  0.13638104020E+03  0.15896960390E+03  0.79999485395E+02 0.  0.
        -11    1    5    5    0    0 -0.30542132979E+02 -0.19708529966E+02  0.81762378169E+02  0.89478123160E+02  0.00000000000E+00 0.  1.
         12    1    5    5    0    0  0.42200878435E+02  0.80593742292E+01  0.54618662035E+02  0.69491480745E+02  0.00000000000E+00 0. -1.
         13    1    3    3    0    0  0.38456551471E+02  0.19129623865E+02 -0.23439576292E+03  0.23829859952E+03  0.00000000000E+00 0. -1.
        -14    1    3    3    0    0  0.55756567020E+01 -0.11755171165E+02  0.32754872247E+00  0.13014579707E+02  0.00000000000E+00 0.  1.
          5    1    4    4  501    0  0.26154145609E+02  0.93020296843E+01 -0.19896269880E+03  0.20093330984E+03  0.41800000000E+01 0. -1.
         -5    1    4    4    0  501 -0.81845099238E+02 -0.50273266479E+01 -0.11204123931E+03  0.13890502507E+03  0.41800000000E+01 0. -1.
</event>
<event>
11    1  0.8864208E-009  0.1313665E+03  0.7561462E-02  0.1117601E+00
         22   -1    0    0    0    0  0.00000000000E+00  0.00000000000E+00  0.78506127846E+03  0.78506127846E+03  0.00000000000E+00 0. -1.
         22   -1    0    0    0    0 -0.00000000000E+00 -0.00000000000E+00 -0.79113443906E+02  0.79113443906E+02  0.00000000000E+00 0.  1.
         24    2    1    2    0    0  0.18722436191E+02  0.83712793889E+01 -0.29331517451E+02  0.87298701028E+02  0.79624853844E+02 0.  0.
         25    2    1    2    0    0 -0.52620573780E+02 -0.20422955972E+02  0.26567166478E+03  0.29903625828E+03  0.12512085511E+03 0.  0.
        -24    2    1    2    0    0  0.33898137589E+02  0.12051676583E+02  0.46960768722E+03  0.47783976306E+03  0.80654402364E+02 0.  0.
        -11    1    3    3    0    0 -0.98040639958E+01  0.19600378728E+00 -0.50117709169E+02  0.51068021899E+02  0.00000000000E+00 0.  1.
         12    1    3    3    0    0  0.28526500187E+02  0.81752756016E+01  0.20786191718E+02  0.36230679130E+02  0.00000000000E+00 0. -1.
         11    1    5    5    0    0  0.33767651833E+02  0.17823708064E+02  0.47045715162E+03  0.47200409997E+03  0.00000000000E+00 0. -1.
        -12    1    5    5    0    0  0.13048575581E+00 -0.57720314810E+01 -0.84946439371E+00  0.58356630906E+01  0.00000000000E+00 0.  1.
          5    1    4    4  501    0 -0.86654817483E+01 -0.51768412342E+02  0.37796480060E+02  0.64815934732E+02  0.41800000000E+01 0. -1.
         -5    1    4    4    0  501 -0.43955092032E+02  0.31345456370E+02  0.22787518472E+03  0.23422032355E+03  0.41800000000E+01 0. -1.
</event>
<event>
11    1  0.8864208E-009  0.1468454E+03  0.7561462E-02  0.1100146E+00
         22   -1    0    0    0    0  0.00000000000E+00  0.00000000000E+00  0.15459513864E+04  0.15459513864E+04  0.00000000000E+00 0. -1.
         22   -1    0    0    0    0 -0.00000000000E+00 -0.00000000000E+00 -0.13890982764E+03  0.13890982764E+03  0.00000000000E+00 0.  1.
        -24    2    1    2    0    0  0.61599891915E+02  0.27173745193E+02 -0.88742410093E+02  0.13918053540E+03  0.83444873863E+02 0.  0.
         25    2    1    2    0    0 -0.13207578963E+03 -0.18674492950E+02  0.35032845846E+03  0.39518406675E+03  0.12509063480E+03 0.  0.
         24    2    1    2    0    0  0.70475897715E+02 -0.84992522428E+01  0.11454555104E+04  0.11504966119E+04  0.80839583188E+02 0.  0.
        -13    1    5    5    0    0  0.23120106501E+02  0.37126220707E+01  0.67759031845E+02  0.71691068369E+02  0.00000000000E+00 0.  1.
         14    1    5    5    0    0  0.47355791214E+02 -0.12211874313E+02  0.10776964786E+04  0.10788055435E+04  0.00000000000E+00 0. -1.
         11    1    3    3    0    0 -0.19845459376E+02  0.10092422618E+02 -0.92895382230E+01  0.24124567821E+02  0.00000000000E+00 0. -1.
        -12    1    3    3    0    0  0.81445351291E+02  0.17081322575E+02 -0.79452871870E+02  0.11505596758E+03  0.00000000000E+00 0.  1.
          5    1    4    4  501    0  0.16189821356E+02 -0.64142688510E+01  0.11746412187E+03  0.11882148580E+03  0.41800000000E+01 0. -1.
         -5    1    4    4    0  501 -0.14826561099E+03 -0.12260224099E+02  0.23286433659E+03  0.27636258096E+03  0.41800000000E+01 0. -1.
</event>
<event>
11    1  0.8864208E-009  0.1846292E+03  0.7561462E-02  0.1065959E+00
         22   -1    0    0    0    0  0.00000000000E+00  0.00000000000E+00  0.88300512748E+03  0.88300512748E+03  0.00000000000E+00 0.  1.
         22   -1    0    0    0    0 -0.00000000000E+00 -0.00000000000E+00 -0.13804505885E+03  0.13804505885E+03  0.00000000000E+00 0.  1.
        -24    2    1    2    0    0 -0.11607238450E+02 -0.30823345608E+01 -0.75013112107E+02  0.11848056494E+03  0.90920011599E+02 0.  0.
         25    2    1    2    0    0  0.45391105334E+02  0.13295047731E+03  0.26207315642E+03  0.32259177832E+03  0.12508770630E+03 0.  0.
         24    2    1    2    0    0 -0.33783866884E+02 -0.12986814275E+03  0.55790002432E+03  0.57997784307E+03  0.84349138417E+02 0.  0.
        -13    1    5    5    0    0 -0.27419829737E+02 -0.44723806537E+02  0.36858587905E+03  0.37230043805E+03  0.00000000000E+00 0.  1.
         14    1    5    5    0    0 -0.63640371477E+01 -0.85144336212E+02  0.18931414527E+03  0.20767740502E+03  0.00000000000E+00 0. -1.
         13    1    3    3    0    0 -0.27426037321E+02 -0.28027903334E+02 -0.14863640685E+01  0.39242326212E+02  0.00000000000E+00 0. -1.
        -14    1    3    3    0    0  0.15818798871E+02  0.24945568773E+02 -0.73526748038E+02  0.79238238725E+02  0.00000000000E+00 0.  1.
          5    1    4    4  501    0  0.45534918830E+01  0.93507241799E+02  0.24628888020E+03  0.26351475000E+03  0.41800000000E+01 0. -1.
         -5    1    4    4    0  501  0.40837613451E+02  0.39443235511E+02  0.15784276217E+02  0.59077028325E+02  0.41800000000E+01 0. -1.
</event>
<event>
11    1  0.8864208E-009  0.1360115E+03  0.7561462E-02  0.1112096E+00
         22   -1    0    0    0    0  0.00000000000E+00  0.00000000000E+00  0.21707840148E+04  0.21707840148E+04  0.00000000000E+00 0.  1.
         22   -1    0    0    0    0 -0.00000000000E+00 -0.00000000000E+00 -0.71346023704E+02  0.71346023704E+02  0.00000000000E+00 0. -1.
         24    2    1    2    0    0 -0.44825251349E+02  0.21752429175E+02 -0.32901389716E+01  0.95378367855E+02  0.81263378632E+02 0.  0.
         25    2    1    2    0    0  0.61170507372E+02 -0.40371397694E+02  0.22840720789E+03  0.27053421587E+03  0.12508888286E+03 0.  0.
        -24    2    1    2    0    0 -0.16345256023E+02  0.18618968519E+02  0.18743209222E+04  0.18762174548E+04  0.80617522453E+02 0.  0.
        -13    1    3    3    0    0 -0.17792729041E+02 -0.30746552884E+02 -0.70201659512E+01  0.36210695256E+02  0.00000000000E+00 0.  1.
         14    1    3    3    0    0 -0.27032522308E+02  0.52498982058E+02  0.37300269796E+01  0.59167672598E+02  0.00000000000E+00 0. -1.
         13    1    5    5    0    0 -0.44175900188E+02 -0.86855915667E+01  0.10864852986E+04  0.10874176998E+04  0.00000000000E+00 0. -1.
        -14    1    5    5    0    0  0.27830644165E+02  0.27304560086E+02  0.78783562355E+03  0.78879975500E+03  0.00000000000E+00 0.  1.
          5    1    4    4  501    0  0.56346528848E+02  0.14858233737E+02  0.32422420665E+02  0.66816047360E+02  0.41800000000E+01 0. -1.
         -5    1    4    4    0  501  0.48239785237E+01 -0.55229631431E+02  0.19598478722E+03  0.20371816851E+03  0.41800000000E+01 0. -1.
</event>
<event>
11    1  0.8864208E-009  0.1343061E+03  0.7561462E-02  0.1114089E+00
         22   -1    0    0    0    0  0.00000000000E+00  0.00000000000E+00  0.17519492723E+04  0.17519492723E+04  0.00000000000E+00 0.  1.
         22   -1    0    0    0    0 -0.00000000000E+00 -0.00000000000E+00 -0.39075378858E+02  0.39075378858E+02  0.00000000000E+00 0.  1.
        -24    2    1    2    0    0 -0.29453604240E+02 -0.21907670492E+02  0.28558354381E+02  0.90867906185E+02  0.78063665943E+02 0.  0.
         25    2    1    2    0    0 -0.12899428986E+02  0.51285913566E+02  0.95217707715E+03  0.96181360244E+03  0.12509028499E+03 0.  0.
         24    2    1    2    0    0  0.42353033226E+02 -0.29378243074E+02  0.73213846188E+03  0.73834314249E+03  0.80417710228E+02 0.  0.
        -13    1    5    5    0    0  0.53204888407E+02  0.54187767542E+01  0.54995091278E+03  0.55254513821E+03  0.00000000000E+00 0.  1.
         14    1    5    5    0    0 -0.10851855182E+02 -0.34797019829E+02  0.18218754910E+03  0.18579800428E+03  0.00000000000E+00 0. -1.
         11    1    3    3    0    0 -0.19673609775E+02  0.19511484315E+02  0.38239075175E+02  0.47222619707E+02  0.00000000000E+00 0. -1.
        -12    1    3    3    0    0 -0.97799944650E+01 -0.41419154807E+02 -0.96807207945E+01  0.43645286478E+02  0.00000000000E+00 0.  1.
          5    1    4    4  501    0  0.55789109991E+02  0.29655884578E+02  0.47994255317E+03  0.48410145944E+03  0.41800000000E+01 0.  1.
         -5    1    4    4    0  501 -0.68688538977E+02  0.21630028988E+02  0.47223452398E+03  0.47771214301E+03  0.41800000000E+01 0.  1.
</event>
<event>
11    1  0.8864208E-009  0.1441444E+03  0.7561462E-02  0.1103017E+00
         22   -1    0    0    0    0  0.00000000000E+00  0.00000000000E+00  0.13318487790E+04  0.13318487790E+04  0.00000000000E+00 0.  1.
         22   -1    0    0    0    0 -0.00000000000E+00 -0.00000000000E+00 -0.60346564460E+02  0.60346564460E+02  0.00000000000E+00 0.  1.
        -24    2    1    2    0    0 -0.33283500017E+02  0.52971053503E+00 -0.28111136548E+01  0.86700244155E+02  0.80005987338E+02 0.  0.
         25    2    1    2    0    0 -0.28989108566E+02 -0.47254329610E+02  0.38483320249E+03  0.40843229883E+03  0.12508800464E+03 0.  0.
         24    2    1    2    0    0  0.62272608584E+02  0.46724619075E+02  0.88948012570E+03  0.89706280047E+03  0.86519975545E+02 0.  0.
        -13    1    5    5    0    0  0.62187545214E+02  0.69222647516E+02  0.66966195944E+03  0.67609629908E+03  0.00000000000E+00 0.  1.
         14    1    5    5    0    0  0.85063369300E-01 -0.22498028441E+02  0.21981816625E+03  0.22096650139E+03  0.00000000000E+00 0. -1.
         11    1    3    3    0    0 -0.96581317608E+01 -0.22725906958E+02  0.30809952358E+02  0.39484167972E+02  0.00000000000E+00 0. -1.
        -12    1    3    3    0    0 -0.23625368257E+02  0.23255617493E+02 -0.33621066013E+02  0.47216076183E+02  0.00000000000E+00 0.  1.
          5    1    4    4  501    0  0.43869363033E+02 -0.38667433936E+01  0.74018988921E+02  0.86230828816E+02  0.41800000000E+01 0. -1.
         -5    1    4    4    0  501 -0.72858471599E+02 -0.43387586216E+02  0.31081421357E+03  0.32220147001E+03  0.41800000000E+01 0. -1.
</event>
<event>
11    1  0.8864208E-009  0.1395040E+03  0.7561462E-02  0.1108114E+00
         22   -1    0    0    0    0  0.00000000000E+00  0.00000000000E+00  0.55170062451E+03  0.55170062451E+03  0.00000000000E+00 0. -1.
         22   -1    0    0    0    0 -0.00000000000E+00 -0.00000000000E+00 -0.39447623484E+03  0.39447623484E+03  0.00000000000E+00 0.  1.
        -24    2    1    2    0    0  0.57806887647E+02 -0.29507185898E+02 -0.33573990385E+03  0.35094707118E+03  0.78931954603E+02 0.  0.
         25    2    1    2    0    0 -0.22659481101E+02  0.12304781449E+02  0.40338409961E+02  0.13393597383E+03  0.12508716176E+03 0.  0.
         24    2    1    2    0    0 -0.35147406546E+02  0.17202404449E+02  0.45262588356E+03  0.46129381434E+03  0.79940789207E+02 0.  0.
        -11    1    5    5    0    0  0.28207454852E+01  0.27937590002E+02  0.55367699119E+02  0.62080976522E+02  0.00000000000E+00 0.  1.
         12    1    5    5    0    0 -0.37968152032E+02 -0.10735185553E+02  0.39725818444E+03  0.39921283782E+03  0.00000000000E+00 0. -1.
         11    1    3    3    0    0  0.83833259788E+01 -0.42965814448E+02 -0.92014087337E+02  0.10189668117E+03  0.00000000000E+00 0. -1.
        -12    1    3    3    0    0  0.49423561668E+02  0.13458628550E+02 -0.24372581651E+03  0.24905039001E+03  0.00000000000E+00 0.  1.
          5    1    4    4  501    0 -0.32268949716E+02  0.46218558994E+01 -0.40444857675E+02  0.52114350999E+02  0.41800000000E+01 0. -1.
         -5    1    4    4    0  501  0.96094686157E+01  0.76829255495E+01  0.80783267636E+02  0.81821622827E+02  0.41800000000E+01 0. -1.
</event>
<event>
11    1  0.8864208E-009  0.2247779E+03  0.7561462E-02  0.1038265E+00
         22   -1    0    0    0    0  0.00000000000E+00  0.00000000000E+00  0.14804374955E+04  0.14804374955E+04  0.00000000000E+00 0.  1.
         22   -1    0    0    0    0 -0.00000000000E+00 -0.00000000000E+00 -0.68333181368E+03  0.68333181368E+03  0.00000000000E+00 0.  1.
         24    2    1    2    0    0 -0.14334578533E+03 -0.54653869408E+02 -0.34079098232E+03  0.38222064697E+03  0.80119097163E+02 0.  0.
         25    2    1    2    0    0  0.25526769253E+03 -0.93583525343E+02 -0.24327796264E+03  0.38568534926E+03  0.12509816333E+03 0.  0.
        -24    2    1    2    0    0 -0.11192190720E+03  0.14823739475E+03  0.13811746268E+04  0.13958633130E+04  0.79310782669E+02 0.  0.
        -13    1    3    3    0    0 -0.13591007945E+03 -0.61737590551E+02 -0.34068154894E+03  0.37195026223E+03  0.00000000000E+00 0.  1.
         14    1    3    3    0    0 -0.74357058767E+01  0.70837211435E+01 -0.10943337780E+00  0.10270384744E+02  0.00000000000E+00 0. -1.
         13    1    5    5    0    0 -0.27295543483E+01  0.39658975819E+02  0.47849918622E+03  0.48014763984E+03  0.00000000000E+00 0. -1.
        -14    1    5    5    0    0 -0.10919235285E+03  0.10857841893E+03  0.90267544059E+03  0.91571567313E+03  0.00000000000E+00 0.  1.
          5    1    4    4  501    0  0.16751457917E+03 -0.11720562570E+03 -0.19560092388E+03  0.28297612400E+03  0.41800000000E+01 0.  1.
         -5    1    4    4    0  501  0.87753113362E+02  0.23622100361E+02 -0.47677038759E+02  0.10270922527E+03  0.41800000000E+01 0.  1.
</event>
<event>
11    1  0.8864208E-009  0.2216270E+03  0.7561462E-02  0.1040203E+00
         22   -1    0    0    0    0  0.00000000000E+00  0.00000000000E+00  0.19271753216E+03  0.19271753216E+03  0.00000000000E+00 0.  1.
         22   -1    0    0    0    0 -0.00000000000E+00 -0.00000000000E+00 -0.23139620372E+04  0.23139620372E+04  0.00000000000E+00 0. -1.
         24    2    1    2    0    0 -0.41751082227E+02  0.15901709059E+03 -0.77234909984E+03  0.79361863148E+03  0.79232646275E+02 0.  0.
         25    2    1    2    0    0  0.10608558145E+03 -0.32356559901E+03 -0.14498706892E+04  0.14945643809E+04  0.12509526666E+03 0.  0.
        -24    2    1    2    0    0 -0.64334499222E+02  0.16454850841E+03  0.10097528394E+03  0.21849655706E+03  0.79558771176E+02 0.  0.
        -13    1    3    3    0    0 -0.19982844771E+02  0.12256028444E+03 -0.39937342449E+03  0.41823374995E+03  0.00000000000E+00 0.  1.
         14    1    3    3    0    0 -0.21768237456E+02  0.36456806151E+02 -0.37297567535E+03  0.37538488153E+03  0.00000000000E+00 0. -1.
         11    1    5    5    0    0 -0.17026050026E+02  0.55675428161E+01 -0.84266081734E+01  0.19796253125E+02  0.00000000000E+00 0. -1.
        -12    1    5    5    0    0 -0.47308449196E+02  0.15898096560E+03  0.10940189211E+03  0.19870030394E+03  0.00000000000E+00 0.  1.
          5    1    4    4  501    0 -0.19654847476E+02 -0.64776325057E+01 -0.10509709876E+03  0.10719675984E+03  0.41800000000E+01 0. -1.
         -5    1    4    4    0  501  0.12574042893E+03 -0.31708796650E+03 -0.13447735904E+04  0.13873676210E+04  0.41800000000E+01 0. -1.
</event>
<event>
11    1  0.8864208E-009  0.1516897E+03  0.7561462E-02  0.1095165E+00
         22   -1    0    0    0    0  0.00000000000E+00  0.00000000000E+00  0.12532317505E+04  0.12532317505E+04  0.00000000000E+00 0. -1.
         22   -1    0    0    0    0 -0.00000000000E+00 -0.00000000000E+00 -0.61459687789E+03  0.61459687789E+03  0.00000000000E+00 0.  1.
        -24    2    1    2    0    0  0.36528902970E+02 -0.51645141535E+02 -0.45872845532E+03  0.47001084699E+03  0.80478687696E+02 0.  0.
         25    2    1    2    0    0 -0.62603222625E+02  0.13220716731E+03 -0.84532090501E+02  0.21020771361E+03  0.12507481748E+03 0.  0.
         24    2    1    2    0    0  0.26074319655E+02 -0.80562025770E+02  0.11818954184E+04  0.11876100678E+04  0.79817184035E+02 0.  0.
        -13    1    5    5    0    0 -0.27632019615E+01  0.14314451416E+02  0.25720862156E+03  0.25762145448E+03  0.00000000000E+00 0.  1.
         14    1    5    5    0    0  0.28837521617E+02 -0.94876477187E+02  0.92468679685E+03  0.92998861329E+03  0.00000000000E+00 0. -1.
         13    1    3    3    0    0  0.71322581884E+01  0.14867887849E+02 -0.23259650296E+02  0.28512006731E+02  0.00000000000E+00 0. -1.
        -14    1    3    3    0    0  0.29396644782E+02 -0.66513029384E+02 -0.43546880502E+03  0.44149884026E+03  0.00000000000E+00 0.  1.
          5    1    4    4  501    0  0.13883434221E+02  0.65819909756E+02  0.14008873942E+02  0.68838442859E+02  0.41800000000E+01 0.  1.
         -5    1    4    4    0  501 -0.76486656847E+02  0.66387257550E+02 -0.98540964443E+02  0.14136927076E+03  0.41800000000E+01 0.  1.
</event>
<event>
11    1  0.8864208E-009  0.1817173E+03  0.7561462E-02  0.1068262E+00
         22   -1    0    0    0    0  0.00000000000E+00  0.00000000000E+00  0.58980318385E+03  0.58980318385E+03  0.00000000000E+00 0. -1.
         22   -1    0    0    0    0 -0.00000000000E+00 -0.00000000000E+00 -0.44644977153E+03  0.44644977153E+03  0.00000000000E+00 0. -1.
        -24    2    1    2    0    0 -0.58884661186E+02  0.52209624860E+02 -0.36741602129E+03  0.38586064100E+03  0.87753366447E+02 0.  0.
         25    2    1    2    0    0 -0.37102490572E+02  0.60813844375E+02  0.39095509490E+02  0.14916459221E+03  0.12508676282E+03 0.  0.
         24    2    1    2    0    0  0.95987151758E+02 -0.11302346924E+03  0.47167392411E+03  0.50122772218E+03  0.82250233374E+02 0.  0.
        -11    1    5    5    0    0  0.22426600981E+02 -0.24674223379E+02  0.30053168017E+02  0.44888335220E+02  0.00000000000E+00 0.  1.
         12    1    5    5    0    0  0.73560550777E+02 -0.88349245856E+02  0.44162075609E+03  0.45633938696E+03  0.00000000000E+00 0. -1.
         11    1    3    3    0    0 -0.10632234055E+02 -0.58677805235E+01 -0.21904793033E+03  0.21938429988E+03  0.00000000000E+00 0. -1.
        -12    1    3    3    0    0 -0.48252427130E+02  0.58077405384E+02 -0.14836809095E+03  0.16647634112E+03  0.00000000000E+00 0.  1.
          5    1    4    4  501    0  0.13120582924E+01  0.77273835846E+02 -0.16846765042E+02  0.79210183030E+02  0.41800000000E+01 0.  1.
         -5    1    4    4    0  501 -0.38414548864E+02 -0.16459991471E+02  0.55942274532E+02  0.69954409178E+02  0.41800000000E+01 0.  1.
</event>
<event>
11    1  0.8864208E-009  0.1497454E+03  0.7561462E-02  0.1097139E+00
         22   -1    0    0    0    0  0.00000000000E+00  0.00000000000E+00  0.48228563363E+03  0.48228563363E+03  0.00000000000E+00 0.  1.
         22   -1    0    0    0    0 -0.00000000000E+00 -0.00000000000E+00 -0.67620300056E+03  0.67620300056E+03  0.00000000000E+00 0.  1.
        -24    2    1    2    0    0 -0.57299756418E+02 -0.38663664465E+02 -0.58949449730E+03  0.59886374373E+03  0.79723774239E+02 0.  0.
         25    2    1    2    0    0  0.12003225895E+03  0.79845520330E+02  0.50693930614E+02  0.19748767506E+03  0.12509379239E+03 0.  0.
         24    2    1    2    0    0 -0.62732502528E+02 -0.41181855865E+02  0.34488319975E+03  0.36213721540E+03  0.81040910557E+02 0.  0.
        -11    1    5    5    0    0 -0.78146744608E+02 -0.48940262550E+02  0.30614275224E+03  0.31972714577E+03  0.00000000000E+00 0.  1.
         12    1    5    5    0    0  0.15414242080E+02  0.77584066855E+01  0.38740447513E+02  0.42410069638E+02  0.00000000000E+00 0. -1.
         13    1    3    3    0    0 -0.41545681345E+02  0.18336078735E+02 -0.29690432512E+03  0.30035717687E+03  0.00000000000E+00 0. -1.
        -14    1    3    3    0    0 -0.15754075073E+02 -0.56999743200E+02 -0.29259017218E+03  0.29850656686E+03  0.00000000000E+00 0.  1.
          5    1    4    4  501    0  0.27151943614E+02  0.20222803031E+02 -0.41426507019E+02  0.53663932844E+02  0.41800000000E+01 0.  1.
         -5    1    4    4    0  501  0.92880315332E+02  0.59622717299E+02  0.92120437633E+02  0.14382374221E+03  0.41800000000E+01 0.  1.
</event>
<event>
11    1  0.8864208E-009  0.1313231E+03  0.7561462E-02  0.1117654E+00
         22   -1    0    0    0    0  0.00000000000E+00  0.00000000000E+00  0.55160273403E+03  0.55160273403E+03  0.00000000000E+00 0.  1.
         22   -1    0    0    0    0 -0.00000000000E+00 -0.00000000000E+00 -0.40994668506E+03  0.40994668506E+03  0.00000000000E+00 0.  1.
         24    2    1    2    0    0 -0.11973175591E+02 -0.27085052832E+02 -0.19259688152E+03  0.21073827514E+03  0.80250263672E+02 0.  0.
         25    2    1    2    0    0 -0.26951483926E+02  0.36636168772E+02 -0.18206590706E+03  0.22553157864E+03  0.12509159485E+03 0.  0.
        -24    2    1    2    0    0  0.38924659517E+02 -0.95511159400E+01  0.51631883756E+03  0.52527956531E+03  0.87904077167E+02 0.  0.
        -13    1    3    3    0    0 -0.29995545117E+02  0.19373251528E+02 -0.80712661061E+02  0.88258649758E+02  0.00000000000E+00 0.  1.
         14    1    3    3    0    0  0.18022369526E+02 -0.46458304359E+02 -0.11188422046E+03  0.12247962539E+03  0.00000000000E+00 0. -1.
         11    1    5    5    0    0  0.10374768338E+02 -0.10638470855E+02  0.94585430452E+01  0.17614679013E+02  0.00000000000E+00 0. -1.
        -12    1    5    5    0    0  0.28549891179E+02  0.10873549146E+01  0.50686029451E+03  0.50766488630E+03  0.00000000000E+00 0.  1.
          5    1    4    4  501    0 -0.72391607824E+01  0.11332780548E+02 -0.19135895059E+03  0.19187641266E+03  0.41800000000E+01 0. -1.
         -5    1    4    4    0  501 -0.19712323143E+02  0.25303388224E+02  0.92930435270E+01  0.33655165983E+02  0.41800000000E+01 0. -1.
</event>
<event>
11    1  0.8864208E-009  0.2121807E+03  0.7561462E-02  0.1046229E+00
         22   -1    0    0    0    0  0.00000000000E+00  0.00000000000E+00  0.23130327646E+04  0.23130327646E+04  0.00000000000E+00 0.  1.
         22   -1    0    0    0    0 -0.00000000000E+00 -0.00000000000E+00 -0.72694245690E+02  0.72694245690E+02  0.00000000000E+00 0. -1.
        -24    2    1    2    0    0 -0.68812810418E+02  0.43141529300E+02  0.47490207249E+02  0.12462873370E+03  0.81734980584E+02 0.  0.
         25    2    1    2    0    0 -0.83042215433E+02 -0.13313468968E+03  0.31660732054E+03  0.37484395714E+03  0.12508773580E+03 0.  0.
         24    2    1    2    0    0  0.15185502585E+03  0.89993160384E+02  0.18762409912E+04  0.18862543195E+04  0.80724117008E+02 0.  0.
        -11    1    5    5    0    0  0.71167587569E+02  0.65783309403E+02  0.13332272538E+04  0.13367449943E+04  0.00000000000E+00 0.  1.
         12    1    5    5    0    0  0.80687438281E+02  0.24209850980E+02  0.54301373733E+03  0.54950932522E+03  0.00000000000E+00 0. -1.
         13    1    3    3    0    0  0.10825548694E+02  0.15157487080E+02 -0.11277492757E+02  0.21774383160E+02  0.00000000000E+00 0. -1.
        -14    1    3    3    0    0 -0.79638359112E+02  0.27984042221E+02  0.58767700006E+02  0.10285435054E+03  0.00000000000E+00 0.  1.
          5    1    4    4  501    0 -0.72670054648E+02 -0.89747226500E+01  0.88926548618E+02  0.11526875526E+03  0.41800000000E+01 0. -1.
         -5    1    4    4    0  501 -0.10372160785E+02 -0.12415996703E+03  0.22768077192E+03  0.25957520189E+03  0.41800000000E+01 0. -1.
</event>
<event>
11    1  0.8864208E-009  0.1516716E+03  0.7561462E-02  0.1095183E+00
         22   -1    0    0    0    0  0.00000000000E+00  0.00000000000E+00  0.17194139560E+04  0.17194139560E+04  0.00000000000E+00 0. -1.
         22   -1    0    0    0    0 -0.00000000000E+00 -0.00000000000E+00 -0.13840120657E+03  0.13840120657E+03  0.00000000000E+00 0.  1.
        -24    2    1    2    0    0  0.35417448541E+01  0.31047969398E+02 -0.81999091516E+02  0.11905987424E+03  0.80466653237E+02 0.  0.
         25    2    1    2    0    0 -0.40957259646E+02 -0.10622836738E+03  0.16558257305E+03  0.23669992571E+03  0.12508918091E+03 0.  0.
         24    2    1    2    0    0  0.37415514792E+02  0.75180397980E+02  0.14974292679E+04  0.15020553626E+04  0.82606821894E+02 0.  0.
        -11    1    5    5    0    0 -0.13016894537E+02  0.30815488563E+02  0.93981354651E+03  0.94040870694E+03  0.00000000000E+00 0.  1.
         12    1    5    5    0    0  0.50432409329E+02  0.44364909416E+02  0.55761572134E+03  0.56164665563E+03  0.00000000000E+00 0. -1.
         11    1    3    3    0    0  0.37076355101E+02 -0.39174510391E+01 -0.28835253165E+02  0.47132519085E+02  0.00000000000E+00 0. -1.
        -12    1    3    3    0    0 -0.33534610247E+02  0.34965420437E+02 -0.53163838351E+02  0.71927355151E+02  0.00000000000E+00 0.  1.
          5    1    4    4  501    0 -0.33165287344E+02 -0.12344822635E+03  0.17370382943E+03  0.21570788959E+03  0.41800000000E+01 0. -1.
         -5    1    4    4    0  501 -0.77919723019E+01  0.17219858971E+02 -0.81212563818E+01  0.20992036122E+02  0.41800000000E+01 0. -1.
</event>
<event>
11    1  0.8864208E-009  0.1617386E+03  0.7561462E-02  0.1085453E+00
         22   -1    0    0    0    0  0.00000000000E+00  0.00000000000E+00  0.15559523107E+04  0.15559523107E+04  0.00000000000E+00 0.  1.
         22   -1    0    0    0    0 -0.00000000000E+00 -0.00000000000E+00 -0.29158138691E+03  0.29158138691E+03  0.00000000000E+00 0. -1.
        -24    2    1    2    0    0  0.15263544505E+02 -0.34416348426E+02 -0.19107022708E+03  0.21068508177E+03  0.80392233290E+02 0.  0.
         25    2    1    2    0    0 -0.64195943447E+02 -0.56558614794E+02 -0.22209119693E+02  0.15316289107E+03  0.12508249335E+03 0.  0.
         24    2    1    2    0    0  0.48932398942E+02  0.90974963220E+02  0.14776502705E+04  0.14836857247E+04  0.84865683269E+02 0.  0.
        -13    1    5    5    0    0  0.18811109331E+02  0.55274852434E+02  0.12463132627E+04  0.12476802138E+04  0.00000000000E+00 0.  1.
         14    1    5    5    0    0  0.30121289612E+02  0.35700110786E+02  0.23133700784E+03  0.23600551094E+03  0.00000000000E+00 0. -1.
         13    1    3    3    0    0  0.48900292462E+01 -0.44676740965E+02 -0.19087326332E+03  0.19609315700E+03  0.00000000000E+00 0. -1.
        -14    1    3    3    0    0  0.10373515259E+02  0.10260392539E+02 -0.19696375926E+00  0.14591924774E+02  0.00000000000E+00 0.  1.
          5    1    4    4  501    0  0.36912338500E+02 -0.27334444589E+02 -0.43001318185E+01  0.46321227620E+02  0.41800000000E+01 0. -1.
         -5    1    4    4    0  501 -0.10110828195E+03 -0.29224170205E+02 -0.17908987874E+02  0.10684166345E+03  0.41800000000E+01 0. -1.
</event>
<event>
11    1  0.8864208E-009  0.1285147E+03  0.7561462E-02  0.1121107E+00
         22   -1    0    0    0    0  0.00000000000E+00  0.00000000000E+00  0.10626313902E+04  0.10626313902E+04  0.00000000000E+00 0. -1.
         22   -1    0    0    0    0 -0.00000000000E+00 -0.00000000000E+00 -0.67631137457E+02  0.67631137457E+02  0.00000000000E+00 0.  1.
        -24    2    1    2    0    0 -0.16256783269E+02 -0.26558211268E+02 -0.85328318461E+01  0.86178034127E+02  0.79901331395E+02 0.  0.
         25    2    1    2    0    0 -0.12379502609E+01  0.23674332513E+02  0.20422075358E+03  0.24065510312E+03  0.12508699341E+03 0.  0.
         24    2    1    2    0    0  0.17494733530E+02  0.28838787553E+01  0.79931233105E+03  0.80342939046E+03  0.79272948894E+02 0.  0.
        -13    1    5    5    0    0 -0.19402096365E+02  0.84346692248E+01  0.69140834149E+02  0.72305186087E+02  0.00000000000E+00 0.  1.
         14    1    5    5    0    0  0.36896829895E+02 -0.55507904695E+01  0.73017149690E+03  0.73112420437E+03  0.00000000000E+00 0. -1.
         13    1    3    3    0    0 -0.10019268080E+02  0.28073114584E+02  0.31208747386E+01  0.29970407979E+02  0.00000000000E+00 0. -1.
        -14    1    3    3    0    0 -0.62375151891E+01 -0.54631325852E+02 -0.11653706585E+02  0.56207626148E+02  0.00000000000E+00 0.  1.
          5    1    4    4  501    0 -0.40093876329E+02  0.76703792053E+01  0.10461256004E+02  0.42346946919E+02  0.41800000000E+01 0.  1.
         -5    1    4    4    0  501  0.38855926068E+02  0.16003953307E+02  0.19375949758E+03  0.19830815620E+03  0.41800000000E+01 0.  1.
</event>
<event>
11    1  0.8864208E-009  0.1431393E+03  0.7561462E-02  0.1104103E+00
         22   -1    0    0    0    0  0.00000000000E+00  0.00000000000E+00  0.15429574087E+03  0.15429574087E+03  0.00000000000E+00 0. -1.
         22   -1    0    0    0    0 -0.00000000000E+00 -0.00000000000E+00 -0.71714094177E+03  0.71714094177E+03  0.00000000000E+00 0. -1.
        -24    2    1    2    0    0 -0.22282470691E+02 -0.29588821550E+01 -0.59411285801E+03  0.59993837475E+03  0.80316262175E+02 0.  0.
         25    2    1    2    0    0  0.61753982070E+02  0.55237558972E+02 -0.27434058838E+02  0.15252687527E+03  0.12508828031E+03 0.  0.
         24    2    1    2    0    0 -0.39471511379E+02 -0.52278676817E+02  0.58701715949E+02  0.11897143262E+03  0.80107740356E+02 0.  0.
        -13    1    5    5    0    0  0.21871928899E+02 -0.31868647013E+02  0.25375416287E+02  0.46237470605E+02  0.00000000000E+00 0.  1.
         14    1    5    5    0    0 -0.61343440278E+02 -0.20410029804E+02  0.33326299662E+02  0.72733962019E+02  0.00000000000E+00 0. -1.
         13    1    3    3    0    0 -0.19938409870E+02 -0.16276960066E+02 -0.57933748626E+03  0.57990896062E+03  0.00000000000E+00 0. -1.
        -14    1    3    3    0    0 -0.23440608202E+01  0.13318077911E+02 -0.14775371740E+02  0.20029414131E+02  0.00000000000E+00 0.  1.
          5    1    4    4  501    0 -0.32594314710E+02  0.43189323105E+02 -0.16342070344E+02  0.56676649908E+02  0.41800000000E+01 0. -1.
         -5    1    4    4    0  501  0.94348296780E+02  0.12048235867E+02 -0.11091988494E+02  0.95850225360E+02  0.41800000000E+01 0. -1.
</event>
<event>
11    1  0.8864208E-009  0.1449066E+03  0.7561462E-02  0.1102200E+00
         22   -1    0    0    0    0  0.00000000000E+00  0.00000000000E+00  0.45073136021E+03  0.45073136021E+03  0.00000000000E+00 0. -1.
         22   -1    0    0    0    0 -0.00000000000E+00 -0.00000000000E+00 -0.14804811103E+04  0.14804811103E+04  0.00000000000E+00 0. -1.
         24    2    1    2    0    0 -0.71377885861E+02 -0.90158135055E+01 -0.13519259734E+04  0.13561912249E+04  0.79841802401E+02 0.  0.
         25    2    1    2    0    0 -0.61045694008E+01  0.91501570733E+01 -0.85541907241E+02  0.15193958729E+03  0.12508888499E+03 0.  0.
        -24    2    1    2    0    0  0.77482455261E+02 -0.13434356789E+00  0.40771813059E+03  0.42308165830E+03  0.82222056970E+02 0.  0.
        -11    1    3    3    0    0 -0.15725474458E+02 -0.40075212703E+02 -0.47134425952E+03  0.47330616329E+03  0.00000000000E+00 0.  1.
         12    1    3    3    0    0 -0.55652411403E+02  0.31059399197E+02 -0.88058171387E+03  0.88288506159E+03  0.00000000000E+00 0. -1.
         13    1    5    5    0    0  0.94976624214E+01 -0.34131353776E+02  0.16409596272E+03  0.16787685928E+03  0.00000000000E+00 0. -1.
        -14    1    5    5    0    0  0.67984792840E+02  0.33997010208E+02  0.24362216788E+03  0.25520479902E+03  0.00000000000E+00 0.  1.
          5    1    4    4  501    0 -0.68976372863E+01  0.45145287950E+02 -0.10222360887E+03  0.11203933700E+03  0.41800000000E+01 0.  1.
         -5    1    4    4    0  501  0.79306788550E+00 -0.35995130877E+02  0.16681701633E+02  0.39900250286E+02  0.41800000000E+01 0.  1.
</event>
<event>
11    1  0.8864208E-009  0.1338529E+03  0.7561462E-02  0.1114624E+00
         22   -1    0    0    0    0  0.00000000000E+00  0.00000000000E+00  0.13499690557E+03  0.13499690557E+03  0.00000000000E+00 0. -1.
         22   -1    0    0    0    0 -0.00000000000E+00 -0.00000000000E+00 -0.22866108406E+04  0.22866108406E+04  0.00000000000E+00 0. -1.
        -24    2    1    2    0    0 -0.15816082131E+02 -0.43541486256E+02 -0.20522417347E+04  0.20547390570E+04  0.90058010423E+02 0.  0.
         25    2    1    2    0    0  0.25418228534E+02  0.67981075818E+02 -0.19397573914E+03  0.24195592967E+03  0.12509425054E+03 0.  0.
         24    2    1    2    0    0 -0.96021464026E+01 -0.24439589562E+02  0.94603538808E+02  0.12491275951E+03  0.77226117206E+02 0.  0.
        -11    1    5    5    0    0 -0.18884825107E+02 -0.50346668806E+02  0.57610661743E+02  0.78806167434E+02  0.00000000000E+00 0.  1.
         12    1    5    5    0    0  0.92826787046E+01  0.25907079244E+02  0.36992877065E+02  0.46106592071E+02  0.00000000000E+00 0. -1.
         11    1    3    3    0    0 -0.44328667163E+02 -0.54808376555E+02 -0.14761582352E+04  0.14778403581E+04  0.00000000000E+00 0. -1.
        -12    1    3    3    0    0  0.28512585033E+02  0.11266890299E+02 -0.57608349952E+03  0.57689869886E+03  0.00000000000E+00 0.  1.
          5    1    4    4  501    0  0.37512729313E+02  0.35960817158E+02 -0.79193735178E+01  0.52731149316E+02  0.41800000000E+01 0.  1.
         -5    1    4    4    0  501 -0.12094500780E+02  0.32020258660E+02 -0.18605636562E+03  0.18922478036E+03  0.41800000000E+01 0.  1.
</event>
<event>
11    1  0.8864208E-009  0.1341849E+03  0.7561462E-02  0.1114231E+00
         22   -1    0    0    0    0  0.00000000000E+00  0.00000000000E+00  0.73670672385E+03  0.73670672385E+03  0.00000000000E+00 0. -1.
         22   -1    0    0    0    0 -0.00000000000E+00 -0.00000000000E+00 -0.15979088871E+03  0.15979088871E+03  0.00000000000E+00 0. -1.
         24    2    1    2    0    0  0.27833846662E+01 -0.19957798542E+02 -0.33776900480E+02  0.87305660282E+02  0.77944456880E+02 0.  0.
         25    2    1    2    0    0 -0.51243790470E+02  0.19429146723E+02 -0.47048298979E+02  0.14444578057E+03  0.12509046040E+03 0.  0.
        -24    2    1    2    0    0  0.48460405804E+02  0.52865181956E+00  0.65774103460E+03  0.66474617171E+03  0.83159568342E+02 0.  0.
        -13    1    3    3    0    0  0.22026847638E+02  0.93475818330E+01  0.14245395855E+02  0.27847631965E+02  0.00000000000E+00 0.  1.
         14    1    3    3    0    0 -0.19243462971E+02 -0.29305380376E+02 -0.48022296335E+02  0.59458028317E+02  0.00000000000E+00 0. -1.
         13    1    5    5    0    0  0.43612318320E+02 -0.13474333992E+02  0.64002090136E+03  0.64164658977E+03  0.00000000000E+00 0. -1.
        -14    1    5    5    0    0  0.48480874843E+01  0.14002985812E+02  0.17720133240E+02  0.23099581943E+02  0.00000000000E+00 0.  1.
          5    1    4    4  501    0 -0.30100852287E+02  0.41570250994E+02  0.31275447143E+02  0.60247598044E+02  0.41800000000E+01 0. -1.
         -5    1    4    4    0  501 -0.21142938183E+02 -0.22141104271E+02 -0.78323746122E+02  0.84198182521E+02  0.41800000000E+01 0. -1.
</event>
<event>
11    1  0.8864208E-009  0.1605543E+03  0.7561462E-02  0.1086557E+00
         22   -1    0    0    0    0  0.00000000000E+00  0.00000000000E+00  0.42648004820E+03  0.42648004820E+03  0.00000000000E+00 0. -1.
         22   -1    0    0    0    0 -0.00000000000E+00 -0.00000000000E+00 -0.10213737311E+04  0.10213737311E+04  0.00000000000E+00 0.  1.
        -24    2    1    2    0    0  0.30128055508E+02  0.45164115686E+02 -0.82866831195E+03  0.83466479665E+03  0.83825142208E+02 0.  0.
         25    2    1    2    0    0 -0.12812248782E+03 -0.28827224666E+02 -0.13301859811E+03  0.22491785219E+03  0.12509081511E+03 0.  0.
         24    2    1    2    0    0  0.97994432308E+02 -0.16336891020E+02  0.36679322715E+03  0.38827113047E+03  0.79670549775E+02 0.  0.
        -13    1    5    5    0    0  0.21252092279E+02  0.16369829735E+02  0.25789669313E+02  0.37211957689E+02  0.00000000000E+00 0.  1.
         14    1    5    5    0    0  0.76742340028E+02 -0.32706720755E+02  0.34100355784E+03  0.35105917278E+03  0.00000000000E+00 0. -1.
         13    1    3    3    0    0 -0.11538146728E+02 -0.26509720177E+01 -0.18155316921E+02  0.21674224670E+02  0.00000000000E+00 0. -1.
        -14    1    3    3    0    0  0.41666202236E+02  0.47815087704E+02 -0.81051299503E+03  0.81299057198E+03  0.00000000000E+00 0.  1.
          5    1    4    4  501    0 -0.69186835174E+02  0.19472970968E+02 -0.50206739040E+00  0.71998189084E+02  0.41800000000E+01 0.  1.
         -5    1    4    4    0  501 -0.58935652642E+02 -0.48300195634E+02 -0.13251653072E+03  0.15291966311E+03  0.41800000000E+01 0.  1.
</event>
<event>
11    1  0.8864208E-009  0.1324988E+03  0.7561462E-02  0.1116236E+00
         22   -1    0    0    0    0  0.00000000000E+00  0.00000000000E+00  0.15220558681E+03  0.15220558681E+03  0.00000000000E+00 0. -1.
         22   -1    0    0    0    0 -0.00000000000E+00 -0.00000000000E+00 -0.18741992532E+04  0.18741992532E+04  0.00000000000E+00 0.  1.
        -24    2    1    2    0    0  0.19874524847E+02 -0.14330718967E+02 -0.13917156711E+04  0.13946571817E+04  0.87153766894E+02 0.  0.
         25    2    1    2    0    0  0.23435716923E+02  0.46026797246E+01 -0.45727522935E+03  0.47467727591E+03  0.12508982132E+03 0.  0.
         24    2    1    2    0    0 -0.43310241770E+02  0.97280392425E+01  0.12699723405E+03  0.15707038239E+03  0.81070313792E+02 0.  0.
        -13    1    5    5    0    0  0.11406763468E+02 -0.23255954021E+02  0.55118212440E+02  0.60901321766E+02  0.00000000000E+00 0.  1.
         14    1    5    5    0    0 -0.54717005238E+02  0.32983993264E+02  0.71879021612E+02  0.96169060626E+02  0.00000000000E+00 0. -1.
         13    1    3    3    0    0  0.36742671977E+02 -0.27661862268E+02 -0.38874566051E+03  0.39145675513E+03  0.00000000000E+00 0. -1.
        -14    1    3    3    0    0 -0.16868147129E+02  0.13331143301E+02 -0.10029700105E+04  0.10032004265E+04  0.00000000000E+00 0.  1.
          5    1    4    4  501    0 -0.43730315550E+02 -0.15107172767E+02 -0.28360583688E+03  0.28738529935E+03  0.41800000000E+01 0.  1.
         -5    1    4    4    0  501  0.67166032473E+02  0.19709852492E+02 -0.17366939247E+03  0.18729197656E+03  0.41800000000E+01 0.  1.
</event>
<event>
11    1  0.8864208E-009  0.2040214E+03  0.7561462E-02  0.1051716E+00
         22   -1    0    0    0    0  0.00000000000E+00  0.00000000000E+00  0.20231919870E+04  0.20231919870E+04  0.00000000000E+00 0.  1.
         22   -1    0    0    0    0 -0.00000000000E+00 -0.00000000000E+00 -0.10933706927E+03  0.10933706927E+03  0.00000000000E+00 0.  1.
        -24    2    1    2    0    0  0.15801148384E+02 -0.12835198488E+02 -0.54828932413E+02  0.98838678009E+02  0.79677185132E+02 0.  0.
         25    2    1    2    0    0 -0.98419521171E+02  0.14771074341E+03  0.40248601622E+03  0.45732643745E+03  0.12509041240E+03 0.  0.
         24    2    1    2    0    0  0.82618372786E+02 -0.13487554493E+03  0.15661978339E+04  0.15763639408E+04  0.83249088735E+02 0.  0.
        -11    1    5    5    0    0  0.61997514865E+02 -0.13076095193E+03  0.14986037787E+04  0.15055747753E+04  0.00000000000E+00 0.  1.
         12    1    5    5    0    0  0.20620857921E+02 -0.41145929997E+01  0.67594055232E+02  0.70789165552E+02  0.00000000000E+00 0. -1.
         11    1    3    3    0    0 -0.25215736055E+02  0.28047158242E+01 -0.48164424384E+02  0.54438144273E+02  0.00000000000E+00 0. -1.
        -12    1    3    3    0    0  0.41016884439E+02 -0.15639914312E+02 -0.66645080291E+01  0.44400533736E+02  0.00000000000E+00 0.  1.
          5    1    4    4  501    0 -0.67822669690E+02  0.14135482930E+03  0.39488979257E+03  0.42489589662E+03  0.41800000000E+01 0.  1.
         -5    1    4    4    0  501 -0.30596851481E+02  0.63559141149E+01  0.75962236474E+01  0.32430540829E+02  0.41800000000E+01 0.  1.
</event>
<event>
11    1  0.8864208E-009  0.1370655E+03  0.7561462E-02  0.1110880E+00
         22   -1    0    0    0    0  0.00000000000E+00  0.00000000000E+00  0.13356462493E+03  0.13356462493E+03  0.00000000000E+00 0.  1.
         22   -1    0    0    0    0 -0.00000000000E+00 -0.00000000000E+00 -0.51769163999E+03  0.51769163999E+03  0.00000000000E+00 0.  1.
        -24    2    1    2    0    0 -0.69926064254E+02 -0.22577248319E+02 -0.30752115954E+03  0.32606069366E+03  0.79667595566E+02 0.  0.
         25    2    1    2    0    0  0.17182237609E+02 -0.22870249018E+02 -0.14877264858E+03  0.19646508355E+03  0.12508777122E+03 0.  0.
         24    2    1    2    0    0  0.52743826644E+02  0.45447497337E+02  0.72166793071E+02  0.12873048770E+03  0.80722401962E+02 0.  0.
        -11    1    5    5    0    0 -0.17774947041E+02  0.14522805216E+02  0.38209642896E+02  0.44573954546E+02  0.00000000000E+00 0.  1.
         12    1    5    5    0    0  0.70518773685E+02  0.30924692121E+02  0.33957150175E+02  0.84156533156E+02  0.00000000000E+00 0. -1.
         11    1    3    3    0    0 -0.33189319410E+02 -0.51002212908E+02 -0.19674710822E+03  0.20594217936E+03  0.00000000000E+00 0. -1.
        -12    1    3    3    0    0 -0.36736744844E+02  0.28424964590E+02 -0.11077405132E+03  0.12011851431E+03  0.00000000000E+00 0.  1.
          5    1    4    4  501    0  0.55866939852E+02  0.14619461057E+02 -0.12435246028E+03  0.13717088025E+03  0.41800000000E+01 0. -1.
         -5    1    4    4    0  501 -0.38684702243E+02 -0.37489710075E+02 -0.24420188305E+02  0.59294203308E+02  0.41800000000E+01 0. -1.
</event>
<event>
11    1  0.8864208E-009  0.1530562E+03  0.7561462E-02  0.1093796E+00
         22   -1    0    0    0    0  0.00000000000E+00  0.00000000000E+00  0.33725542137E+03  0.33725542137E+03  0.00000000000E+00 0.  1.
         22   -1    0    0    0    0 -0.00000000000E+00 -0.00000000000E+00 -0.27305644892E+04  0.27305644892E+04  0.00000000000E+00 0.  1.
         24    2    1    2    0    0  0.24833849340E+02  0.28433828460E+02 -0.24310023616E+04  0.24325741929E+04  0.78863928775E+02 0.  0.
         25    2    1    2    0    0 -0.30657687578E+02 -0.11529290710E+03 -0.26146366458E+03  0.31343760969E+03  0.12509012367E+03 0.  0.
        -24    2    1    2    0    0  0.58238382373E+01  0.86859078636E+02  0.29915695829E+03  0.32180810803E+03  0.80542883409E+02 0.  0.
        -13    1    3    3    0    0 -0.11458708668E+01 -0.46474506270E+01 -0.18667590023E+04  0.18667651391E+04  0.00000000000E+00 0.  1.
         14    1    3    3    0    0  0.25979720207E+02  0.33081279087E+02 -0.56424335926E+03  0.56580905379E+03  0.00000000000E+00 0. -1.
         11    1    5    5    0    0 -0.31000781644E+02  0.72552195896E+02  0.20786315818E+03  0.22233299827E+03  0.00000000000E+00 0. -1.
        -12    1    5    5    0    0  0.36824619881E+02  0.14306882740E+02  0.91293800107E+02  0.99475109757E+02  0.00000000000E+00 0.  1.
          5    1    4    4  501    0  0.11092933271E+02 -0.12552732368E+03 -0.16427272037E+03  0.20708249858E+03  0.41800000000E+01 0. -1.
         -5    1    4    4    0  501 -0.41750620849E+02  0.10234416586E+02 -0.97190944209E+02  0.10635511112E+03  0.41800000000E+01 0. -1.
</event>
<event>
11    1  0.8864208E-009  0.1436551E+03  0.7561462E-02  0.1103544E+00
         22   -1    0    0    0    0  0.00000000000E+00  0.00000000000E+00  0.18786293326E+03  0.18786293326E+03  0.00000000000E+00 0. -1.
         22   -1    0    0    0    0 -0.00000000000E+00 -0.00000000000E+00 -0.14690872245E+04  0.14690872245E+04  0.00000000000E+00 0. -1.
         24    2    1    2    0    0  0.41033217868E+00  0.61430036688E+01 -0.76324863045E+03  0.76882454739E+03  0.92221515494E+02 0.  0.
         25    2    1    2    0    0  0.69107062752E+02  0.64568423516E+01 -0.68026428048E+03  0.69514527231E+03  0.12509988564E+03 0.  0.
        -24    2    1    2    0    0 -0.69517394930E+02 -0.12599846020E+02  0.16228861970E+03  0.19298033804E+03  0.76892070261E+02 0.  0.
        -11    1    3    3    0    0 -0.45864389622E+02  0.15066554761E+01 -0.38907379490E+03  0.39177063458E+03  0.00000000000E+00 0.  1.
         12    1    3    3    0    0  0.46274721801E+02  0.46363481927E+01 -0.37417483555E+03  0.37705391281E+03  0.00000000000E+00 0. -1.
         13    1    5    5    0    0 -0.39168685414E+02  0.31887134473E+02  0.75243332350E+02  0.90623034186E+02  0.00000000000E+00 0. -1.
        -14    1    5    5    0    0 -0.30348709517E+02 -0.44486980494E+02  0.87045287348E+02  0.10235730385E+03  0.00000000000E+00 0.  1.
          5    1    4    4  501    0  0.53705578832E+02 -0.24133232223E+02 -0.63736653188E+03  0.64009395439E+03  0.41800000000E+01 0. -1.
         -5    1    4    4    0  501  0.15401483919E+02  0.30590074575E+02 -0.42897748605E+02  0.55051317921E+02  0.41800000000E+01 0. -1.
</event>
<event>
11    1  0.8864208E-009  0.1281714E+03  0.7561462E-02  0.1121536E+00
         22   -1    0    0    0    0  0.00000000000E+00  0.00000000000E+00  0.12367951345E+04  0.12367951345E+04  0.00000000000E+00 0.  1.
         22   -1    0    0    0    0 -0.00000000000E+00 -0.00000000000E+00 -0.60817517772E+03  0.60817517772E+03  0.00000000000E+00 0.  1.
         24    2    1    2    0    0  0.28084420969E+02  0.21723323760E+01 -0.56089825533E+03  0.56769635042E+03  0.82938770881E+02 0.  0.
         25    2    1    2    0    0 -0.22993658437E+02  0.24070593624E+02  0.55229016975E+02  0.14073172830E+03  0.12508826175E+03 0.  0.
        -24    2    1    2    0    0 -0.50907625319E+01 -0.26242926000E+02  0.11342891952E+04  0.11365422335E+04  0.66345032108E+02 0.  0.
        -11    1    3    3    0    0  0.44415720050E+02  0.11349598263E+02 -0.16208090926E+03  0.16843927902E+03  0.00000000000E+00 0.  1.
         12    1    3    3    0    0 -0.16331299081E+02 -0.91772658875E+01 -0.39881734607E+03  0.39925707140E+03  0.00000000000E+00 0. -1.
         11    1    5    5    0    0 -0.62091304320E+01  0.44185588530E+01  0.14929033251E+02  0.16761652570E+02  0.00000000000E+00 0. -1.
        -12    1    5    5    0    0  0.11183679001E+01 -0.30661484853E+02  0.11193601619E+04  0.11197805810E+04  0.00000000000E+00 0.  1.
          5    1    4    4  501    0 -0.30501841933E+02 -0.25973804179E+01 -0.34745587854E+02  0.46495559161E+02  0.41800000000E+01 0. -1.
         -5    1    4    4    0  501  0.75081834958E+01  0.26667974042E+02  0.89974604829E+02  0.94236169135E+02  0.41800000000E+01 0. -1.
</event>
<event>
11    1  0.8864208E-009  0.1594108E+03  0.7561462E-02  0.1087633E+00
         22   -1    0    0    0    0  0.00000000000E+00  0.00000000000E+00  0.29841385048E+03  0.29841385048E+03  0.00000000000E+00 0.  1.
         22   -1    0    0    0    0 -0.00000000000E+00 -0.00000000000E+00 -0.19646211398E+03  0.19646211398E+03  0.00000000000E+00 0.  1.
         24    2    1    2    0    0 -0.76883127011E+02 -0.47892184968E+02 -0.70641419025E+02  0.14033304071E+03  0.80613123209E+02 0.  0.
         25    2    1    2    0    0 -0.34576393981E+02  0.80963336330E+02  0.35993626744E+02  0.15714157707E+03  0.12508934897E+03 0.  0.
        -24    2    1    2    0    0  0.11145952099E+03 -0.33071151362E+02  0.13659952878E+03  0.19740134668E+03  0.82407126735E+02 0.  0.
        -13    1    3    3    0    0 -0.58028690291E+02 -0.62462985238E+02 -0.77833649100E+02  0.11544275791E+03  0.00000000000E+00 0.  1.
         14    1    3    3    0    0 -0.18854436720E+02  0.14570800270E+02  0.71922300742E+01  0.24890282802E+02  0.00000000000E+00 0. -1.
         11    1    5    5    0    0  0.42900405871E+02  0.27457893798E+02  0.45093490833E+02  0.68027962421E+02  0.00000000000E+00 0. -1.
        -12    1    5    5    0    0  0.68559115121E+02 -0.60529045160E+02  0.91506037949E+02  0.12937338426E+03  0.00000000000E+00 0.  1.
          5    1    4    4  501    0 -0.27739985419E+02  0.49737402148E+02  0.82633611306E+02  0.10044452240E+03  0.41800000000E+01 0. -1.
         -5    1    4    4    0  501 -0.68364085619E+01  0.31225934182E+02 -0.46639984563E+02  0.56697054664E+02  0.41800000000E+01 0. -1.
</event>
<event>
11    1  0.8864208E-009  0.1320941E+03  0.7561462E-02  0.1116722E+00
         22   -1    0    0    0    0  0.00000000000E+00  0.00000000000E+00  0.10822071581E+04  0.10822071581E+04  0.00000000000E+00 0.  1.
         22   -1    0    0    0    0 -0.00000000000E+00 -0.00000000000E+00 -0.33637982091E+04  0.33637982091E+04  0.00000000000E+00 0.  1.
         24    2    1    2    0    0  0.20316415437E+02  0.36673592545E+02 -0.31938815703E+04  0.31951620353E+04  0.80145100490E+02 0.  0.
         25    2    1    2    0    0 -0.62875287603E+02 -0.42545828026E+02 -0.13560104291E+03  0.19949706419E+03  0.12509191224E+03 0.  0.
        -24    2    1    2    0    0  0.42558872165E+02  0.58722354814E+01  0.10478915623E+04  0.10513462678E+04  0.73528958605E+02 0.  0.
        -13    1    3    3    0    0  0.93580028118E+01  0.41222932980E+02 -0.31235939255E+04  0.31238799455E+04  0.00000000000E+00 0.  1.
         14    1    3    3    0    0  0.10958412626E+02 -0.45493404355E+01 -0.70287644779E+02  0.71282089715E+02  0.00000000000E+00 0. -1.
         13    1    5    5    0    0  0.51142459663E+02  0.19351842684E+02  0.46016623852E+03  0.46340372471E+03  0.00000000000E+00 0. -1.
        -14    1    5    5    0    0 -0.85835874980E+01 -0.13479607203E+02  0.58772532373E+03  0.58794254306E+03  0.00000000000E+00 0.  1.
          5    1    4    4  501    0 -0.42678209080E+02 -0.10886481805E+02  0.13043411531E+02  0.46125350956E+02  0.41800000000E+01 0. -1.
         -5    1    4    4    0  501 -0.20197078522E+02 -0.31659346221E+02 -0.14864445445E+03  0.15337171324E+03  0.41800000000E+01 0. -1.
</event>
<event>
11    1  0.8864208E-009  0.2648318E+03  0.7561462E-02  0.1016282E+00
         22   -1    0    0    0    0  0.00000000000E+00  0.00000000000E+00  0.49267588947E+03  0.49267588947E+03  0.00000000000E+00 0.  1.
         22   -1    0    0    0    0 -0.00000000000E+00 -0.00000000000E+00 -0.26688507343E+03  0.26688507343E+03  0.00000000000E+00 0.  1.
        -24    2    1    2    0    0  0.24532023489E+03 -0.82143902880E+02 -0.98407581028E+02  0.28802906391E+03  0.79668382839E+02 0.  0.
         25    2    1    2    0    0 -0.16372446185E+03  0.68894918685E+02  0.15470219312E+03  0.26670669408E+03  0.12508989920E+03 0.  0.
         24    2    1    2    0    0 -0.81595773040E+02  0.13248984195E+02  0.16949620395E+03  0.20482520491E+03  0.79943703011E+02 0.  0.
        -13    1    5    5    0    0 -0.50184825607E+02  0.46061049226E+02  0.85338719707E+02  0.10919173072E+03  0.00000000000E+00 0.  1.
         14    1    5    5    0    0 -0.31410947433E+02 -0.32812065031E+02  0.84157484246E+02  0.95633474186E+02  0.00000000000E+00 0. -1.
         11    1    3    3    0    0  0.26283550937E+02 -0.24304043696E+02  0.95877763050E+01  0.37059911553E+02  0.00000000000E+00 0. -1.
        -12    1    3    3    0    0  0.21903668395E+03 -0.57839859184E+02 -0.10799535733E+03  0.25096915235E+03  0.00000000000E+00 0.  1.
          5    1    4    4  501    0 -0.25526082334E+02  0.36009439139E+02 -0.13648186825E+02  0.46389718581E+02  0.41800000000E+01 0. -1.
         -5    1    4    4    0  501 -0.13819837951E+03  0.32885479545E+02  0.16835037994E+03  0.22031697550E+03  0.41800000000E+01 0. -1.
</event>
<event>
11    1  0.8864208E-009  0.1556152E+03  0.7561462E-02  0.1091275E+00
         22   -1    0    0    0    0  0.00000000000E+00  0.00000000000E+00  0.21236219981E+03  0.21236219981E+03  0.00000000000E+00 0. -1.
         22   -1    0    0    0    0 -0.00000000000E+00 -0.00000000000E+00 -0.97097311936E+03  0.97097311936E+03  0.00000000000E+00 0.  1.
         24    2    1    2    0    0  0.81700598717E+02 -0.42917818706E+02 -0.69484736279E+03  0.70682569485E+03  0.90954814753E+02 0.  0.
         25    2    1    2    0    0 -0.60259290049E+02  0.82392823721E+02 -0.23301148394E+03  0.28348036875E+03  0.12508800255E+03 0.  0.
        -24    2    1    2    0    0 -0.21441308669E+02 -0.39475005015E+02  0.16924792717E+03  0.19302925557E+03  0.81224546281E+02 0.  0.
        -11    1    3    3    0    0  0.31418652537E+02 -0.59589301218E+02 -0.51349096587E+03  0.51789090413E+03  0.00000000000E+00 0.  1.
         12    1    3    3    0    0  0.50281946181E+02  0.16671482512E+02 -0.18135639692E+03  0.18893479072E+03  0.00000000000E+00 0. -1.
         13    1    5    5    0    0 -0.26599491119E+02 -0.82218574563E+01  0.15638053267E+03  0.15883955069E+03  0.00000000000E+00 0. -1.
        -14    1    5    5    0    0  0.51581824508E+01 -0.31253147559E+02  0.12867394502E+02  0.34189704880E+02  0.00000000000E+00 0.  1.
          5    1    4    4  501    0 -0.47947558570E+02  0.11066730386E+03 -0.21743335995E+03  0.24867842475E+03  0.41800000000E+01 0.  1.
         -5    1    4    4    0  501 -0.12311731479E+02 -0.28274480140E+02 -0.15578123988E+02  0.34801944000E+02  0.41800000000E+01 0.  1.
</event>
<event>
11    1  0.8864208E-009  0.1447837E+03  0.7561462E-02  0.1102331E+00
         22   -1    0    0    0    0  0.00000000000E+00  0.00000000000E+00  0.49831453911E+03  0.49831453911E+03  0.00000000000E+00 0.  1.
         22   -1    0    0    0    0 -0.00000000000E+00 -0.00000000000E+00 -0.18910582068E+03  0.18910582068E+03  0.00000000000E+00 0.  1.
         24    2    1    2    0    0  0.70317020474E+02 -0.17497929201E+02 -0.14089649986E+03  0.17636926746E+03  0.77483120333E+02 0.  0.
         25    2    1    2    0    0 -0.67626331727E+02  0.56308666193E+02  0.25701196775E+03  0.29907624917E+03  0.12508982620E+03 0.  0.
        -24    2    1    2    0    0 -0.26906887472E+01 -0.38810736992E+02  0.19309325055E+03  0.21197484317E+03  0.78325076546E+02 0.  0.
        -13    1    3    3    0    0  0.83379889869E+02 -0.28497026370E+02 -0.12571060211E+03  0.15351691122E+03  0.00000000000E+00 0.  1.
         14    1    3    3    0    0 -0.13062869395E+02  0.10999097169E+02 -0.15185897749E+02  0.22852356241E+02  0.00000000000E+00 0. -1.
         13    1    5    5    0    0 -0.28757879897E+01  0.20064444366E+02  0.17515792149E+02  0.26789084697E+02  0.00000000000E+00 0. -1.
        -14    1    5    5    0    0  0.18509924251E+00 -0.58875181358E+02  0.17557745840E+03  0.18518575847E+03  0.00000000000E+00 0.  1.
          5    1    4    4  501    0 -0.68485913595E+02  0.34432613328E+02  0.26461569613E+03  0.27552652188E+03  0.41800000000E+01 0. -1.
         -5    1    4    4    0  501  0.85958186787E+00  0.21876052865E+02 -0.76037283837E+01  0.23549727286E+02  0.41800000000E+01 0. -1.
</event>
<event>
11    1  0.8864208E-009  0.1370524E+03  0.7561462E-02  0.1110895E+00
         22   -1    0    0    0    0  0.00000000000E+00  0.00000000000E+00  0.80418829357E+03  0.80418829357E+03  0.00000000000E+00 0.  1.
         22   -1    0    0    0    0 -0.00000000000E+00 -0.00000000000E+00 -0.10638754048E+04  0.10638754048E+04  0.00000000000E+00 0. -1.
        -24    2    1    2    0    0  0.23068068761E+02  0.91620003537E+01 -0.98549152850E+03  0.98902066816E+03  0.79701011575E+02 0.  0.
         25    2    1    2    0    0 -0.75951384624E+02  0.60964915684E+01 -0.83299745209E-01  0.14650881325E+03  0.12513610745E+03 0.  0.
         24    2    1    2    0    0  0.52883315864E+02 -0.15258491922E+02  0.72588771698E+03  0.73253421698E+03  0.81632926645E+02 0.  0.
        -11    1    5    5    0    0  0.35616878903E+02 -0.42556544183E+02  0.27808809447E+03  0.28357117238E+03  0.00000000000E+00 0.  1.
         12    1    5    5    0    0  0.17266436960E+02  0.27298052261E+02  0.44779962251E+03  0.44896304461E+03  0.00000000000E+00 0. -1.
         11    1    3    3    0    0  0.41687393828E+02 -0.14195972945E+02 -0.34024880732E+03  0.34308689182E+03  0.00000000000E+00 0. -1.
        -12    1    3    3    0    0 -0.18619325067E+02  0.23357973299E+02 -0.64524272118E+03  0.64593377634E+03  0.00000000000E+00 0.  1.
          5    1    4    4  501    0  0.13821953352E+02 -0.19529741295E+02 -0.38456492652E+02  0.45484408500E+02  0.41800000000E+01 0.  1.
         -5    1    4    4    0  501 -0.89773337977E+02  0.25626232863E+02  0.38373192907E+02  0.10102440475E+03  0.41800000000E+01 0.  1.
</event>
<event>
11    1  0.8864208E-009  0.1460776E+03  0.7561462E-02  0.1100955E+00
         22   -1    0    0    0    0  0.00000000000E+00  0.00000000000E+00  0.33078796981E+04  0.33078796981E+04  0.00000000000E+00 0.  1.
         22   -1    0    0    0    0 -0.00000000000E+00 -0.00000000000E+00 -0.14159343319E+03  0.14159343319E+03  0.00000000000E+00 0.  1.
         24    2    1    2    0    0 -0.77440895878E+02  0.45479797347E+01 -0.10228102707E+03  0.15170089852E+03  0.80833023200E+02 0.  0.
         25    2    1    2    0    0  0.41238071182E+02 -0.46938234681E+02  0.34399910524E+03  0.37132801659E+03  0.12508131399E+03 0.  0.
        -24    2    1    2    0    0  0.36202824696E+02  0.42390254946E+02  0.29245681867E+04  0.29264442162E+04  0.88707910336E+02 0.  0.
        -11    1    3    3    0    0 -0.91310132304E+02  0.17371511417E+02 -0.81507640667E+02  0.12362364320E+03  0.00000000000E+00 0.  1.
         12    1    3    3    0    0  0.13869236427E+02 -0.12823531682E+02 -0.20773386400E+02  0.28077255322E+02  0.00000000000E+00 0. -1.
         13    1    5    5    0    0  0.60078124948E+01  0.38287418285E+02  0.44383500531E+03  0.44552388504E+03  0.00000000000E+00 0. -1.
        -14    1    5    5    0    0  0.30195012201E+02  0.41028366613E+01  0.24807331814E+04  0.24809203311E+04  0.00000000000E+00 0.  1.
          5    1    4    4  501    0  0.26743386495E+02 -0.61798438568E+02  0.72616566836E+02  0.99120602852E+02  0.41800000000E+01 0.  1.
         -5    1    4    4    0  501  0.14494684687E+02  0.14860203888E+02  0.27138253840E+03  0.27220741374E+03  0.41800000000E+01 0.  1.
</event>
<event>
11    1  0.8864208E-009  0.1401489E+03  0.7561462E-02  0.1107392E+00
         22   -1    0    0    0    0  0.00000000000E+00  0.00000000000E+00  0.11853338404E+04  0.11853338404E+04  0.00000000000E+00 0.  1.
         22   -1    0    0    0    0 -0.00000000000E+00 -0.00000000000E+00 -0.27526323095E+03  0.27526323095E+03  0.00000000000E+00 0.  1.
        -24    2    1    2    0    0  0.55529253988E+00  0.55382278297E+02 -0.20385820783E+03  0.22537634302E+03  0.78541848695E+02 0.  0.
         25    2    1    2    0    0 -0.44327689956E+02 -0.98838806705E+02  0.59006168354E+02  0.17567991211E+03  0.12509056642E+03 0.  0.
         24    2    1    2    0    0  0.43772397416E+02  0.43456528408E+02  0.10549226490E+04  0.10595408163E+04  0.77203972474E+02 0.  0.
        -13    1    5    5    0    0  0.47645093269E+01  0.41104034416E+01  0.72288130927E+03  0.72290869635E+03  0.00000000000E+00 0.  1.
         14    1    5    5    0    0  0.39007888090E+02  0.39346124966E+02  0.33204133970E+03  0.33663211990E+03  0.00000000000E+00 0. -1.
         11    1    3    3    0    0  0.13073261262E+02  0.33531763221E+02 -0.22863830792E+02  0.42638527920E+02  0.00000000000E+00 0. -1.
        -12    1    3    3    0    0 -0.12517968722E+02  0.21850515076E+02 -0.18099437703E+03  0.18273781510E+03  0.00000000000E+00 0.  1.
          5    1    4    4  501    0  0.38862660765E+02 -0.40250429449E+02 -0.34580709652E+01  0.56212401901E+02  0.41800000000E+01 0.  1.
         -5    1    4    4    0  501 -0.83190350722E+02 -0.58588377255E+02  0.62464239319E+02  0.11946751021E+03  0.41800000000E+01 0.  1.
</event>
<event>
11    1  0.8864208E-009  0.1963612E+03  0.7561462E-02  0.1057127E+00
         22   -1    0    0    0    0  0.00000000000E+00  0.00000000000E+00  0.12361493445E+04  0.12361493445E+04  0.00000000000E+00 0. -1.
         22   -1    0    0    0    0 -0.00000000000E+00 -0.00000000000E+00 -0.68083486194E+03  0.68083486194E+03  0.00000000000E+00 0.  1.
        -24    2    1    2    0    0  0.94850499559E+02 -0.11609467641E+03 -0.63636984808E+03  0.65877708122E+03  0.80907774960E+02 0.  0.
         25    2    1    2    0    0 -0.14835202776E+03  0.17760838445E+03  0.59316334138E+03  0.64887896413E+03  0.12509235855E+03 0.  0.
         24    2    1    2    0    0  0.53501528197E+02 -0.61513708037E+02  0.59852098930E+03  0.60932816114E+03  0.80044259782E+02 0.  0.
        -11    1    5    5    0    0  0.51172833691E+01 -0.55373979723E+02  0.19197601692E+03  0.19986809473E+03  0.00000000000E+00 0.  1.
         12    1    5    5    0    0  0.48384244828E+02 -0.61397283145E+01  0.40654497238E+03  0.40946006641E+03  0.00000000000E+00 0. -1.
         13    1    3    3    0    0  0.78694104159E+02 -0.93655487301E+02 -0.34400438411E+03  0.36510700982E+03  0.00000000000E+00 0. -1.
        -14    1    3    3    0    0  0.16156395400E+02 -0.22439189111E+02 -0.29236546396E+03  0.29367007141E+03  0.00000000000E+00 0.  1.
          5    1    4    4  501    0 -0.23833591425E+02  0.36293603096E+02  0.28029121282E+03  0.28366512315E+03  0.41800000000E+01 0.  1.
         -5    1    4    4    0  501 -0.12451843633E+03  0.14131478135E+03  0.31287212856E+03  0.36521384098E+03  0.41800000000E+01 0.  1.
</event>
<event>
11    1  0.8864208E-009  0.1764012E+03  0.7561462E-02  0.1072592E+00
         22   -1    0    0    0    0  0.00000000000E+00  0.00000000000E+00  0.55132733100E+03  0.55132733100E+03  0.00000000000E+00 0.  1.
         22   -1    0    0    0    0 -0.00000000000E+00 -0.00000000000E+00 -0.22966074514E+03  0.22966074514E+03  0.00000000000E+00 0.  1.
        -24    2    1    2    0    0 -0.72796759099E+02  0.11307987424E+03 -0.10399662283E+03  0.18800479507E+03  0.80275022996E+02 0.  0.
         25    2    1    2    0    0  0.10005645340E+03 -0.52492507950E+02  0.14970272889E+02  0.16922634129E+03  0.12508672295E+03 0.  0.
         24    2    1    2    0    0 -0.27259694299E+02 -0.60587366286E+02  0.41069293580E+03  0.42375693978E+03  0.80544004199E+02 0.  0.
        -11    1    5    5    0    0 -0.41056495479E+02 -0.17721625033E+02  0.31308172435E+03  0.31625916261E+03  0.00000000000E+00 0.  1.
         12    1    5    5    0    0  0.13796801180E+02 -0.42865741253E+02  0.97611211447E+02  0.10749777717E+03  0.00000000000E+00 0. -1.
         11    1    3    3    0    0 -0.31368340563E+02  0.30794522824E+02  0.61767043662E+01  0.44389493153E+02  0.00000000000E+00 0. -1.
        -12    1    3    3    0    0 -0.41428418536E+02  0.82285351413E+02 -0.11017332719E+03  0.14361530192E+03  0.00000000000E+00 0.  1.
          5    1    4    4  501    0 -0.57657974019E+01 -0.39069981216E+02  0.43325092874E+02  0.58772816203E+02  0.41800000000E+01 0. -1.
         -5    1    4    4    0  501  0.10582225080E+03 -0.13422526735E+02 -0.28354819985E+02  0.11045352509E+03  0.41800000000E+01 0. -1.
</event>
<event>
11    1  0.8864208E-009  0.1778082E+03  0.7561462E-02  0.1071430E+00
         22   -1    0    0    0    0  0.00000000000E+00  0.00000000000E+00  0.10243561045E+04  0.10243561045E+04  0.00000000000E+00 0.  1.
         22   -1    0    0    0    0 -0.00000000000E+00 -0.00000000000E+00 -0.15384275162E+04  0.15384275162E+04  0.00000000000E+00 0.  1.
         24    2    1    2    0    0 -0.13897367861E+02  0.16543462080E+02 -0.14744584497E+04  0.14779424142E+04  0.99092063257E+02 0.  0.
         25    2    1    2    0    0  0.65029818309E+02 -0.12978175694E+03  0.10834528952E+03  0.22013266660E+03  0.12508999736E+03 0.  0.
        -24    2    1    2    0    0 -0.51132450449E+02  0.11323829486E+03  0.85204174840E+03  0.86470853988E+03  0.79424675161E+02 0.  0.
        -13    1    3    3    0    0 -0.20307496619E+02 -0.60945180005E+01 -0.13928162445E+04  0.13929776124E+04  0.00000000000E+00 0.  1.
         14    1    3    3    0    0  0.64101287583E+01  0.22637980081E+02 -0.81642205147E+02  0.84964801854E+02  0.00000000000E+00 0. -1.
         13    1    5    5    0    0 -0.41889847688E+02  0.15762611485E+02  0.37944351293E+03  0.38207407498E+03  0.00000000000E+00 0. -1.
        -14    1    5    5    0    0 -0.92426027603E+01  0.97475683371E+02  0.47259823546E+03  0.48263446491E+03  0.00000000000E+00 0.  1.
          5    1    4    4  501    0 -0.11457086076E+02 -0.10580547160E+03  0.85782951886E+02  0.13675616943E+03  0.41800000000E+01 0.  1.
         -5    1    4    4    0  501  0.76486904386E+02 -0.23976285337E+02  0.22562337638E+02  0.83376497173E+02  0.41800000000E+01 0.  1.
</event>
<event>
11    1  0.8864208E-009  0.2184553E+03  0.7561462E-02  0.1042189E+00
         22   -1    0    0    0    0  0.00000000000E+00  0.00000000000E+00  0.16042304085E+04  0.16042304085E+04  0.00000000000E+00 0.  1.
         22   -1    0    0    0    0 -0.00000000000E+00 -0.00000000000E+00 -0.17735807216E+03  0.17735807216E+03  0.00000000000E+00 0. -1.
        -24    2    1    2    0    0  0.10059946978E+03 -0.15198494772E+03 -0.72164765612E+02  0.21147839392E+03  0.79345321495E+02 0.  0.
         25    2    1    2    0    0 -0.93829020933E+02  0.13556303444E+03  0.27950128035E+03  0.34777796620E+03  0.12508927444E+03 0.  0.
         24    2    1    2    0    0 -0.67704488511E+01  0.16421913280E+02  0.12195358216E+04  0.12223321206E+04  0.80701143458E+02 0.  0.
        -13    1    5    5    0    0 -0.24684415886E+02  0.35258468570E+02  0.10435114039E+04  0.10443986452E+04  0.00000000000E+00 0.  1.
         14    1    5    5    0    0  0.17913967034E+02 -0.18836555289E+02  0.17602441773E+03  0.17793347540E+03  0.00000000000E+00 0. -1.
         11    1    3    3    0    0  0.10138991823E+03 -0.15754493302E+03 -0.78394387252E+02  0.20309111599E+03  0.00000000000E+00 0. -1.
        -12    1    3    3    0    0 -0.79044844420E+00  0.55599853027E+01  0.62296216400E+01  0.83872779306E+01  0.00000000000E+00 0.  1.
          5    1    4    4  501    0 -0.11681078006E+03  0.78902312948E+02  0.22617620368E+03  0.26653982974E+03  0.41800000000E+01 0.  1.
         -5    1    4    4    0  501  0.22981759131E+02  0.56660721494E+02  0.53325076672E+02  0.81238136457E+02  0.41800000000E+01 0.  1.
</event>
<event>
11    1  0.8864208E-009  0.1727363E+03  0.7561462E-02  0.1075675E+00
         22   -1    0    0    0    0  0.00000000000E+00  0.00000000000E+00  0.17891936186E+04  0.17891936186E+04  0.00000000000E+00 0. -1.
         22   -1    0    0    0    0 -0.00000000000E+00 -0.00000000000E+00 -0.36286253221E+03  0.36286253221E+03  0.00000000000E+00 0. -1.
         24    2    1    2    0    0 -0.96222181375E+02  0.71424647654E+02 -0.33295261133E+03  0.36288399558E+03  0.80418681744E+02 0.  0.
         25    2    1    2    0    0  0.71451027289E+02 -0.66741798802E+02  0.45052871060E+03  0.47768471452E+03  0.12508737107E+03 0.  0.
        -24    2    1    2    0    0  0.24771154086E+02 -0.46828488519E+01  0.13087549871E+04  0.13114874407E+04  0.80772221173E+02 0.  0.
        -13    1    3    3    0    0 -0.26286323175E+02 -0.71037320464E+01 -0.14482023931E+03  0.14735784848E+03  0.00000000000E+00 0.  1.
         14    1    3    3    0    0 -0.69935858200E+02  0.78528379701E+02 -0.18813237202E+03  0.21552614710E+03  0.00000000000E+00 0. -1.
         13    1    5    5    0    0  0.15785495911E+02  0.12825686212E+02  0.12345398209E+04  0.12347073537E+04  0.00000000000E+00 0. -1.
        -14    1    5    5    0    0  0.89856581751E+01 -0.17508535064E+02  0.74215166252E+02  0.76780086967E+02  0.00000000000E+00 0.  1.
          5    1    4    4  501    0  0.54638648539E+02  0.26607913668E+02  0.22229606256E+03  0.23049159380E+03  0.41800000000E+01 0.  1.
         -5    1    4    4    0  501  0.16812378750E+02 -0.93349712470E+02  0.22823264805E+03  0.24719312072E+03  0.41800000000E+01 0.  1.
</event>
<event>
11    1  0.8864208E-009  0.1790438E+03  0.7561462E-02  0.1070419E+00
         22   -1    0    0    0    0  0.00000000000E+00  0.00000000000E+00  0.39663717789E+03  0.39663717789E+03  0.00000000000E+00 0. -1.
         22   -1    0    0    0    0 -0.00000000000E+00 -0.00000000000E+00 -0.14737128016E+04  0.14737128016E+04  0.00000000000E+00 0. -1.
        -24    2    1    2    0    0 -0.59694654929E+02 -0.65941505841E+01 -0.10214298933E+04  0.10256611310E+04  0.71097075549E+02 0.  0.
         25    2    1    2    0    0  0.11643023362E+03 -0.10746783161E+03 -0.41169554670E+03  0.45852578594E+03  0.12508932434E+03 0.  0.
         24    2    1    2    0    0 -0.56735578686E+02  0.11406198220E+03  0.35604981628E+03  0.38616306253E+03  0.78239232595E+02 0.  0.
        -11    1    5    5    0    0 -0.78244671774E+01 -0.25973298649E+01 -0.69101548497E-01  0.82445851358E+01  0.00000000000E+00 0.  1.
         12    1    5    5    0    0 -0.48911111509E+02  0.11665931206E+03  0.35611891783E+03  0.37791847739E+03  0.00000000000E+00 0. -1.
         13    1    3    3    0    0 -0.43532826870E+02  0.60036901342E+01 -0.95791456762E+03  0.95892203550E+03  0.00000000000E+00 0. -1.
        -14    1    3    3    0    0 -0.16161828059E+02 -0.12597840718E+02 -0.63515325636E+02  0.66739095496E+02  0.00000000000E+00 0.  1.
          5    1    4    4  501    0  0.35692617829E+02 -0.80912133966E+02 -0.91923909269E+02  0.12762528702E+03  0.41800000000E+01 0.  1.
         -5    1    4    4    0  501  0.80737615786E+02 -0.26555697647E+02 -0.31977163743E+03  0.33090049892E+03  0.41800000000E+01 0.  1.
</event>
<event>
11    1  0.8864208E-009  0.1587801E+03  0.7561462E-02  0.1088230E+00
         22   -1    0    0    0    0  0.00000000000E+00  0.00000000000E+00  0.26442838566E+03  0.26442838566E+03  0.00000000000E+00 0.  1.
         22   -1    0    0    0    0 -0.00000000000E+00 -0.00000000000E+00 -0.36699813505E+03  0.36699813505E+03  0.00000000000E+00 0. -1.
         24    2    1    2    0    0 -0.59696875331E+02 -0.73250026974E+02 -0.24754025535E+03  0.27670487613E+03  0.79750404898E+02 0.  0.
         25    2    1    2    0    0  0.11191770351E+03  0.58135430520E+02 -0.23720588055E+01  0.17764869606E+03  0.12509249341E+03 0.  0.
        -24    2    1    2    0    0 -0.52220828179E+02  0.15114596454E+02  0.14734256477E+03  0.17707294852E+03  0.81789557914E+02 0.  0.
        -11    1    3    3    0    0 -0.89208593476E+01 -0.57416105238E+02 -0.67958393095E+02  0.89412158369E+02  0.00000000000E+00 0.  1.
         12    1    3    3    0    0 -0.50776015983E+02 -0.15833921737E+02 -0.17958186225E+03  0.18729271776E+03  0.00000000000E+00 0. -1.
         11    1    5    5    0    0  0.12472852163E+02 -0.81416084577E+01  0.46420414998E+00  0.14902124508E+02  0.00000000000E+00 0. -1.
        -12    1    5    5    0    0 -0.64693680343E+02  0.23256204912E+02  0.14687836062E+03  0.16217082401E+03  0.00000000000E+00 0.  1.
          5    1    4    4  501    0  0.23115542641E+02  0.35077427928E+02 -0.56891180476E+02  0.70843722923E+02  0.41800000000E+01 0.  1.
         -5    1    4    4    0  501  0.88802160869E+02  0.23058002592E+02  0.54519121671E+02  0.10680497313E+03  0.41800000000E+01 0.  1.
</event>
<event>
11    1  0.8864208E-009  0.1392592E+03  0.7561462E-02  0.1108388E+00
         22   -1    0    0    0    0  0.00000000000E+00  0.00000000000E+00  0.25590910448E+03  0.25590910448E+03  0.00000000000E+00 0.  1.
         22   -1    0    0    0    0 -0.00000000000E+00 -0.00000000000E+00 -0.50169665043E+03  0.50169665043E+03  0.00000000000E+00 0. -1.
        -24    2    1    2    0    0 -0.39807328504E+01  0.82927753631E+02 -0.29861820546E+03  0.31917835284E+03  0.76217647121E+02 0.  0.
         25    2    1    2    0    0 -0.22295982346E+02 -0.12737626756E+02 -0.15667086628E+03  0.20211795691E+03  0.12508617109E+03 0.  0.
         24    2    1    2    0    0  0.26276715196E+02 -0.70190126875E+02  0.20950152580E+03  0.23630944517E+03  0.79587341274E+02 0.  0.
        -11    1    5    5    0    0  0.47489917413E+02 -0.30093757080E+02  0.15786513435E+03  0.16757782406E+03  0.00000000000E+00 0.  1.
         12    1    5    5    0    0 -0.21213202217E+02 -0.40096369795E+02  0.51636391445E+02  0.68731621111E+02  0.00000000000E+00 0. -1.
         13    1    3    3    0    0 -0.32609877210E+02  0.20602917785E+02 -0.15915710590E+03  0.16376467468E+03  0.00000000000E+00 0. -1.
        -14    1    3    3    0    0  0.28629144360E+02  0.62324835846E+02 -0.13946109956E+03  0.15541367816E+03  0.00000000000E+00 0.  1.
          5    1    4    4  501    0  0.21833837308E+02 -0.26143146983E+01 -0.15501131843E+03  0.15661906759E+03  0.41800000000E+01 0.  1.
         -5    1    4    4    0  501 -0.44129819654E+02 -0.10123312058E+02 -0.16595478563E+01  0.45498889314E+02  0.41800000000E+01 0.  1.
</event>
<event>
11    1  0.8864208E-009  0.1397303E+03  0.7561462E-02  0.1107860E+00
         22   -1    0    0    0    0  0.00000000000E+00  0.00000000000E+00  0.41047914268E+03  0.41047914268E+03  0.00000000000E+00 0. -1.
         22   -1    0    0    0    0 -0.00000000000E+00 -0.00000000000E+00 -0.15589454542E+04  0.15589454542E+04  0.00000000000E+00 0. -1.
        -24    2    1    2    0    0 -0.59806571274E+02 -0.16467917658E+02 -0.14293332047E+04  0.14329024881E+04  0.79800451093E+02 0.  0.
         25    2    1    2    0    0  0.49174530801E+02  0.76152080599E+02 -0.71462703519E+02  0.17021176473E+03  0.12509137860E+03 0.  0.
         24    2    1    2    0    0  0.10632040472E+02 -0.59684162941E+02  0.35232959671E+03  0.36631034406E+03  0.79824080697E+02 0.  0.
        -13    1    5    5    0    0  0.32428407854E+02  0.37801805475E+01  0.13279129913E+03  0.13674582452E+03  0.00000000000E+00 0.  1.
         14    1    5    5    0    0 -0.21796367382E+02 -0.63464343488E+02  0.21953829759E+03  0.22956451954E+03  0.00000000000E+00 0. -1.
         13    1    3    3    0    0 -0.31206121644E+02 -0.64058823207E+01 -0.12861513299E+04  0.12865458021E+04  0.00000000000E+00 0. -1.
        -14    1    3    3    0    0 -0.28600449630E+02 -0.10062035337E+02 -0.14318187475E+03  0.14635668598E+03  0.00000000000E+00 0.  1.
          5    1    4    4  501    0 -0.33882199170E+02 -0.58299141267E+01 -0.31414149045E+02  0.46758020484E+02  0.41800000000E+01 0.  1.
         -5    1    4    4    0  501  0.83056729972E+02  0.81981994725E+02 -0.40048554474E+02  0.12345374425E+03  0.41800000000E+01 0.  1.
</event>
<event>
11    1  0.8864208E-009  0.1294127E+03  0.7561462E-02  0.1119993E+00
         22   -1    0    0    0    0  0.00000000000E+00  0.00000000000E+00  0.21020430364E+03  0.21020430364E+03  0.00000000000E+00 0.  1.
         22   -1    0    0    0    0 -0.00000000000E+00 -0.00000000000E+00 -0.18468919204E+04  0.18468919204E+04  0.00000000000E+00 0.  1.
         24    2    1    2    0    0  0.15907861356E+02 -0.29714800825E+02 -0.17479509560E+04  0.17501590238E+04  0.81166709082E+02 0.  0.
         25    2    1    2    0    0  0.36542273518E+02  0.28032928061E+02 -0.33978232902E+02  0.13756105454E+03  0.12508933050E+03 0.  0.
        -24    2    1    2    0    0 -0.52450134874E+02  0.16818727641E+01  0.14524157210E+03  0.16937614572E+03  0.69565214935E+02 0.  0.
        -13    1    3    3    0    0  0.29027676648E+02 -0.53181209152E+02 -0.11291784054E+04  0.11308026876E+04  0.00000000000E+00 0.  1.
         14    1    3    3    0    0 -0.13119815293E+02  0.23466408326E+02 -0.61877255056E+03  0.61935633621E+03  0.00000000000E+00 0. -1.
         11    1    5    5    0    0 -0.14137687109E+02 -0.24633642800E+02  0.17306824845E+02  0.33259836750E+02  0.00000000000E+00 0. -1.
        -12    1    5    5    0    0 -0.38312447765E+02  0.26315515564E+02  0.12793474725E+03  0.13611630897E+03  0.00000000000E+00 0.  1.
          5    1    4    4  501    0 -0.29480366041E+02 -0.12417963179E+02  0.24442632830E+02  0.40474837753E+02  0.41800000000E+01 0.  1.
         -5    1    4    4    0  501  0.66022639560E+02  0.40450891240E+02 -0.58420865732E+02  0.97086216784E+02  0.41800000000E+01 0.  1.
</event>
<event>
11    1  0.8864208E-009  0.1262322E+03  0.7561462E-02  0.1123987E+00
         22   -1    0    0    0    0  0.00000000000E+00  0.00000000000E+00  0.79121696412E+03  0.79121696412E+03  0.00000000000E+00 0. -1.
         22   -1    0    0    0    0 -0.00000000000E+00 -0.00000000000E+00 -0.79950614396E+02  0.79950614396E+02  0.00000000000E+00 0.  1.
         24    2    1    2    0    0  0.90675390471E+00  0.17876824818E+02 -0.36460693014E+02  0.92131399263E+02  0.82694676533E+02 0.  0.
         25    2    1    2    0    0 -0.24905534204E+01 -0.53528683647E+01  0.32727804914E+03  0.35041803580E+03  0.12508805821E+03 0.  0.
        -24    2    1    2    0    0  0.15837995156E+01 -0.12523956453E+02  0.42044899360E+03  0.42861814346E+03  0.82321314221E+02 0.  0.
        -11    1    3    3    0    0  0.20464665066E+02  0.45900466971E+02 -0.24638598569E+02  0.55970670211E+02  0.00000000000E+00 0.  1.
         12    1    3    3    0    0 -0.19557911161E+02 -0.28023642153E+02 -0.11822094444E+02  0.36160729052E+02  0.00000000000E+00 0. -1.
         11    1    5    5    0    0  0.28766535886E+02  0.10496000644E+02  0.32984922910E+03  0.33126755584E+03  0.00000000000E+00 0. -1.
        -12    1    5    5    0    0 -0.27182736370E+02 -0.23019957098E+02  0.90599764505E+02  0.97350587619E+02  0.00000000000E+00 0.  1.
          5    1    4    4  501    0 -0.44941243947E+02 -0.46743849116E+02  0.15093088776E+03  0.16432379048E+03  0.41800000000E+01 0.  1.
         -5    1    4    4    0  501  0.42450690527E+02  0.41390980751E+02  0.17634716138E+03  0.18609424532E+03  0.41800000000E+01 0.  1.
</event>
<event>
11    1  0.8864208E-009  0.2086986E+03  0.7561462E-02  0.1048537E+00
         22   -1    0    0    0    0  0.00000000000E+00  0.00000000000E+00  0.12548003268E+03  0.12548003268E+03  0.00000000000E+00 0.  1.
         22   -1    0    0    0    0 -0.00000000000E+00 -0.00000000000E+00 -0.35523813035E+04  0.35523813035E+04  0.00000000000E+00 0. -1.
         24    2    1    2    0    0  0.34860710010E+01  0.10766295094E+02 -0.22494041303E+04  0.22508744964E+04  0.80554275139E+02 0.  0.
         25    2    1    2    0    0  0.50697259255E+02 -0.16823790249E+03 -0.12174555977E+04  0.12364140145E+04  0.12508908352E+03 0.  0.
        -24    2    1    2    0    0 -0.54183330256E+02  0.15747160739E+03  0.39958457273E+02  0.19057282526E+03  0.83595352784E+02 0.  0.
        -11    1    3    3    0    0 -0.50852516490E+01 -0.16993168202E+02 -0.12304805311E+03  0.12431995385E+03  0.00000000000E+00 0.  1.
         12    1    3    3    0    0  0.85713226500E+01  0.27759463296E+02 -0.21263560772E+04  0.21265545426E+04  0.00000000000E+00 0. -1.
         13    1    5    5    0    0 -0.43607223215E+02  0.19188892062E+02  0.94685582665E+01  0.48574243079E+02  0.00000000000E+00 0. -1.
        -14    1    5    5    0    0 -0.10576107041E+02  0.13828271533E+03  0.30489899007E+02  0.14199858218E+03  0.00000000000E+00 0.  1.
          5    1    4    4  501    0  0.59875964581E+02 -0.18431467410E+02 -0.27527964424E+03  0.28234943786E+03  0.41800000000E+01 0.  1.
         -5    1    4    4    0  501 -0.91787053261E+01 -0.14980643508E+03 -0.94217595351E+03  0.95406457663E+03  0.41800000000E+01 0.  1.
</event>
<event>
11    1  0.8864208E-009  0.1942987E+03  0.7561462E-02  0.1058630E+00
         22   -1    0    0    0    0  0.00000000000E+00  0.00000000000E+00  0.23169079220E+03  0.23169079220E+03  0.00000000000E+00 0. -1.
         22   -1    0    0    0    0 -0.00000000000E+00 -0.00000000000E+00 -0.13475510649E+04  0.13475510649E+04  0.00000000000E+00 0.  1.
         24    2    1    2    0    0  0.14337501651E+03 -0.12129647587E+02 -0.58629945105E+03  0.60876663717E+03  0.78398013561E+02 0.  0.
         25    2    1    2    0    0 -0.15187987249E+03  0.30427657118E+02 -0.72751587886E+03  0.75426817779E+03  0.12509113498E+03 0.  0.
        -24    2    1    2    0    0  0.85048559787E+01 -0.18298009531E+02  0.19795505718E+03  0.21620704216E+03  0.84570270690E+02 0.  0.
        -11    1    3    3    0    0  0.10487242013E+03 -0.19533976429E+02 -0.27430001282E+03  0.29431326469E+03  0.00000000000E+00 0.  1.
         12    1    3    3    0    0  0.38502596377E+02  0.74043288422E+01 -0.31199943823E+03  0.31445337249E+03  0.00000000000E+00 0. -1.
         11    1    5    5    0    0  0.42021578533E+02 -0.10280762627E+02  0.15613263019E+03  0.16201513927E+03  0.00000000000E+00 0. -1.
        -12    1    5    5    0    0 -0.33516722554E+02 -0.80172469043E+01  0.41822426999E+02  0.54191902889E+02  0.00000000000E+00 0.  1.
          5    1    4    4  501    0 -0.13339618997E+03 -0.26790762384E+02 -0.55770391299E+03  0.57407614078E+03  0.41800000000E+01 0. -1.
         -5    1    4    4    0  501 -0.18483682519E+02  0.57218419502E+02 -0.16981196587E+03  0.18019203701E+03  0.41800000000E+01 0. -1.
</event>
<event>
11    1  0.8864208E-009  0.1434013E+03  0.7561462E-02  0.1103819E+00
         22   -1    0    0    0    0  0.00000000000E+00  0.00000000000E+00  0.80599959253E+03  0.80599959253E+03  0.00000000000E+00 0. -1.
         22   -1    0    0    0    0 -0.00000000000E+00 -0.00000000000E+00 -0.13489016041E+03  0.13489016041E+03  0.00000000000E+00 0.  1.
         24    2    1    2    0    0  0.58032819719E+01 -0.70418955776E+02 -0.90878827580E+02  0.14048198510E+03  0.80521546310E+02 0.  0.
         25    2    1    2    0    0 -0.56273837846E+02  0.55172081153E+02  0.42470492222E+03  0.44970237839E+03  0.12508898756E+03 0.  0.
        -24    2    1    2    0    0  0.50470555874E+02  0.15246874623E+02  0.33728333748E+03  0.35070538945E+03  0.80339755097E+02 0.  0.
        -11    1    3    3    0    0 -0.35879343551E+02 -0.19073482894E+02 -0.40235081138E+02  0.57183798384E+02  0.00000000000E+00 0.  1.
         12    1    3    3    0    0  0.41682625523E+02 -0.51345472882E+02 -0.50643746441E+02  0.83298186713E+02  0.00000000000E+00 0. -1.
         13    1    5    5    0    0 -0.10357385776E+01  0.28695796790E+02  0.22049791860E+03  0.22235973919E+03  0.00000000000E+00 0. -1.
        -14    1    5    5    0    0  0.51506294451E+02 -0.13448922167E+02  0.11678541888E+03  0.12834565026E+03  0.00000000000E+00 0.  1.
          5    1    4    4  501    0  0.16602825995E+02  0.65576004529E+02  0.13909188981E+03  0.15472521582E+03  0.41800000000E+01 0.  1.
         -5    1    4    4    0  501 -0.72876663840E+02 -0.10403923376E+02  0.28561303241E+03  0.29497716257E+03  0.41800000000E+01 0.  1.
</event>
<event>
11    1  0.8864208E-009  0.1570982E+03  0.7561462E-02  0.1089839E+00
         22   -1    0    0    0    0  0.00000000000E+00  0.00000000000E+00  0.22996085054E+03  0.22996085054E+03  0.00000000000E+00 0.  1.
         22   -1    0    0    0    0 -0.00000000000E+00 -0.00000000000E+00 -0.82516880496E+03  0.82516880496E+03  0.00000000000E+00 0.  1.
         24    2    1    2    0    0 -0.10436135924E+02  0.99431100114E+02 -0.37527189062E+03  0.39667699715E+03  0.80797225034E+02 0.  0.
         25    2    1    2    0    0  0.31695581592E+02 -0.84636239166E+02 -0.41797449541E+03  0.44555427014E+03  0.12509206993E+03 0.  0.
        -24    2    1    2    0    0 -0.21259445668E+02 -0.14794860948E+02  0.19803843160E+03  0.21289838821E+03  0.73726870068E+02 0.  0.
        -13    1    3    3    0    0 -0.33945023012E+02  0.82073968233E+02 -0.19793458856E+03  0.21694815555E+03  0.00000000000E+00 0.  1.
         14    1    3    3    0    0  0.23508887088E+02  0.17357131881E+02 -0.17733730207E+03  0.17972884160E+03  0.00000000000E+00 0. -1.
         11    1    5    5    0    0  0.64751335927E+01 -0.38901928355E+02  0.12601857741E+03  0.13204533024E+03  0.00000000000E+00 0. -1.
        -12    1    5    5    0    0 -0.27734579261E+02  0.24107067406E+02  0.72019854192E+02  0.80853057973E+02  0.00000000000E+00 0.  1.
          5    1    4    4  501    0 -0.40672643364E+01  0.25922097783E+02 -0.27936996934E+02  0.38554454870E+02  0.41800000000E+01 0. -1.
         -5    1    4    4    0  501  0.35762845929E+02 -0.11055833695E+03 -0.39003749847E+03  0.40699981527E+03  0.41800000000E+01 0. -1.
</event>
<event>
11    1  0.8864208E-009  0.1510394E+03  0.7561462E-02  0.1095821E+00
         22   -1    0    0    0    0  0.00000000000E+00  0.00000000000E+00  0.42927828463E+03  0.42927828463E+03  0.00000000000E+00 0.  1.
         22   -1    0    0    0    0 -0.00000000000E+00 -0.00000000000E+00 -0.16695234570E+04  0.16695234570E+04  0.00000000000E+00 0. -1.
        -24    2    1    2    0    0  0.40793005581E+02  0.52077126623E+02 -0.15383301344E+04  0.15418528628E+04  0.80464598000E+02 0.  0.
         25    2    1    2    0    0 -0.33266366024E+02 -0.13293685352E+03 -0.48809738470E+02  0.19185588548E+03  0.12508969619E+03 0.  0.
         24    2    1    2    0    0 -0.75266395573E+01  0.80859726894E+02  0.34689470051E+03  0.36509299340E+03  0.79762239501E+02 0.  0.
        -11    1    5    5    0    0 -0.16374630992E+02  0.33906863145E+02  0.28202034728E+03  0.28452289923E+03  0.00000000000E+00 0.  1.
         12    1    5    5    0    0  0.88479914346E+01  0.46952863749E+02  0.64874353230E+02  0.80570094165E+02  0.00000000000E+00 0. -1.
         11    1    3    3    0    0 -0.62714486611E+01  0.27974024883E+02 -0.10957768413E+04  0.10961517975E+04  0.00000000000E+00 0. -1.
        -12    1    3    3    0    0  0.47064454242E+02  0.24103101740E+02 -0.44255329313E+03  0.44570106532E+03  0.00000000000E+00 0.  1.
          5    1    4    4  501    0  0.21112356988E+02 -0.11996379922E+03 -0.72952930405E+01  0.12209724994E+03  0.41800000000E+01 0.  1.
         -5    1    4    4    0  501 -0.54378723012E+02 -0.12973054296E+02 -0.41514445430E+02  0.69758635548E+02  0.41800000000E+01 0.  1.
</event>
<event>
11    1  0.9112727E-009  0.2073569E+03  0.7561462E-02  0.1049440E+00
         22   -1    0    0    0    0  0.00000000000E+00  0.00000000000E+00  0.10867723954E+04  0.10867723954E+04  0.00000000000E+00 0. -1.
         22   -1    0    0    0    0 -0.00000000000E+00 -0.00000000000E+00 -0.17000460580E+04  0.17000460580E+04  0.00000000000E+00 0.  1.
         24    2    1    2    0    0 -0.10770139138E+03 -0.22404774994E+02 -0.15101509973E+04  0.15163095816E+04  0.80852638439E+02 0.  0.
         25    2    1    2    0    0  0.15449384132E+03 -0.13569117569E+03 -0.96885823015E+02  0.25945287143E+03  0.12509391521E+03 0.  0.
        -24    2    1    2    0    0 -0.46792449933E+02  0.15809595069E+03  0.99376315769E+03  0.10110560003E+04  0.86516814743E+02 0.  0.
        -11    1    3    3    0    0 -0.10904770766E+03  0.49113543667E+01 -0.11981546812E+04  0.12031168539E+04  0.00000000000E+00 0.  1.
         12    1    3    3    0    0  0.13463162786E+01 -0.27316129360E+02 -0.31199631604E+03  0.31319272775E+03  0.00000000000E+00 0. -1.
         13    1    5    5    0    0 -0.49200681503E+02  0.14799422636E+03  0.70231702922E+03  0.71942491452E+03  0.00000000000E+00 0. -1.
        -14    1    5    5    0    0  0.24082315701E+01  0.10101724326E+02  0.29144612847E+03  0.29163108582E+03  0.00000000000E+00 0.  1.
          5    1    4    4  501    0  0.14224630014E+03 -0.15854844877E+03 -0.77103380592E+02  0.22657013089E+03  0.41800000000E+01 0.  1.
         -5    1    4    4    0  501  0.12247541173E+02  0.22857273073E+02 -0.19782442423E+02  0.32882740538E+02  0.41800000000E+01 0.  1.
</event>
<event>
11    1  0.8864208E-009  0.2228804E+03  0.7561462E-02  0.1039428E+00
         22   -1    0    0    0    0  0.00000000000E+00  0.00000000000E+00  0.39715842749E+03  0.39715842749E+03  0.00000000000E+00 0.  1.
         22   -1    0    0    0    0 -0.00000000000E+00 -0.00000000000E+00 -0.30202741687E+03  0.30202741687E+03  0.00000000000E+00 0. -1.
        -24    2    1    2    0    0 -0.46309016451E+02  0.72417816173E+02 -0.11115837660E+03  0.16170433700E+03  0.80020265013E+02 0.  0.
         25    2    1    2    0    0 -0.42586647582E+02 -0.22248068289E+03  0.59808450628E+01  0.25883288848E+03  0.12508963521E+03 0.  0.
         24    2    1    2    0    0  0.88895664032E+02  0.15006286672E+03  0.20030854216E+03  0.27864861889E+03  0.84262908174E+02 0.  0.
        -13    1    5    5    0    0  0.86997785207E+02  0.65075998159E+02  0.10914308450E+03  0.15399906838E+03  0.00000000000E+00 0.  1.
         14    1    5    5    0    0  0.18978788256E+01  0.84986868563E+02  0.91165457656E+02  0.12464955051E+03  0.00000000000E+00 0. -1.
         11    1    3    3    0    0 -0.21661601523E+01  0.14552628753E+02  0.11773339940E+02  0.18843640486E+02  0.00000000000E+00 0. -1.
        -12    1    3    3    0    0 -0.44142856299E+02  0.57865187421E+02 -0.12293171654E+03  0.14286069652E+03  0.00000000000E+00 0.  1.
          5    1    4    4  501    0 -0.47921759365E+01 -0.21580217925E+03 -0.12031335874E+02  0.21623082797E+03  0.41800000000E+01 0. -1.
         -5    1    4    4    0  501 -0.37794471645E+02 -0.66785036437E+01  0.18012180937E+02  0.42602060513E+02  0.41800000000E+01 0. -1.
</event>
<event>
11    1  0.8864208E-009  0.2387214E+03  0.7561462E-02  0.1030085E+00
         22   -1    0    0    0    0  0.00000000000E+00  0.00000000000E+00  0.75664590950E+03  0.75664590950E+03  0.00000000000E+00 0. -1.
         22   -1    0    0    0    0 -0.00000000000E+00 -0.00000000000E+00 -0.75334594710E+03  0.75334594710E+03  0.00000000000E+00 0.  1.
        -24    2    1    2    0    0 -0.72234889928E+02  0.15157255381E+02 -0.63932344727E+03  0.64851507652E+03  0.79935677513E+02 0.  0.
         25    2    1    2    0    0  0.25225471833E+03 -0.74236198246E+02  0.15004779806E+03  0.32757395623E+03  0.12508756551E+03 0.  0.
         24    2    1    2    0    0 -0.18001982840E+03  0.59078942865E+02  0.49257561160E+03  0.53390282384E+03  0.80771480441E+02 0.  0.
        -11    1    5    5    0    0 -0.32179800793E+02  0.26550862538E+02  0.44730939329E+02  0.61166533446E+02  0.00000000000E+00 0.  1.
         12    1    5    5    0    0 -0.14784002761E+03  0.32528080328E+02  0.44784467228E+03  0.47273629040E+03  0.00000000000E+00 0. -1.
         13    1    3    3    0    0  0.62393803723E+01 -0.21972136354E+00 -0.25562030721E+01  0.67462818689E+01  0.00000000000E+00 0. -1.
        -14    1    3    3    0    0 -0.78474270301E+02  0.15376976744E+02 -0.63676724419E+03  0.64176879465E+03  0.00000000000E+00 0.  1.
          5    1    4    4  501    0  0.23356425951E+02 -0.18963196396E+02 -0.20629108036E+02  0.36717270447E+02  0.41800000000E+01 0. -1.
         -5    1    4    4    0  501  0.22889829238E+03 -0.55273001850E+02  0.17067690610E+03  0.29085668578E+03  0.41800000000E+01 0. -1.
</event>
<event>
11    1  0.8864208E-009  0.1566862E+03  0.7561462E-02  0.1090236E+00
         22   -1    0    0    0    0  0.00000000000E+00  0.00000000000E+00  0.31487711173E+03  0.31487711173E+03  0.00000000000E+00 0.  1.
         22   -1    0    0    0    0 -0.00000000000E+00 -0.00000000000E+00 -0.73176364653E+03  0.73176364653E+03  0.00000000000E+00 0. -1.
        -24    2    1    2    0    0 -0.29749194633E+02 -0.58817079309E+02 -0.49828878858E+03  0.50905301607E+03  0.80615091304E+02 0.  0.
         25    2    1    2    0    0  0.10535738833E+03  0.10909677466E+03 -0.16891126795E+03  0.25919448436E+03  0.12509387980E+03 0.  0.
         24    2    1    2    0    0 -0.75608193696E+02 -0.50279695352E+02  0.25031352173E+03  0.27839325783E+03  0.81248385369E+02 0.  0.
        -13    1    5    5    0    0  0.15221846447E+02 -0.17408946739E+01  0.60845851744E+02  0.62745143222E+02  0.00000000000E+00 0.  1.
         14    1    5    5    0    0 -0.90830040143E+02 -0.48538800678E+02  0.18946766999E+03  0.21564811461E+03  0.00000000000E+00 0. -1.
         13    1    3    3    0    0  0.18601621576E+02 -0.34618832105E+02 -0.32901724210E+03  0.33135604636E+03  0.00000000000E+00 0. -1.
        -14    1    3    3    0    0 -0.48350816209E+02 -0.24198247204E+02 -0.16927154648E+03  0.17769696971E+03  0.00000000000E+00 0.  1.
          5    1    4    4  501    0  0.56991645111E+02  0.20473800733E+02  0.19009768829E+01  0.60731460068E+02  0.41800000000E+01 0.  1.
         -5    1    4    4    0  501  0.48365743218E+02  0.88622973928E+02 -0.17081224484E+03  0.19846302429E+03  0.41800000000E+01 0.  1.
</event>
<event>
11    1  0.8864208E-009  0.1558496E+03  0.7561462E-02  0.1091047E+00
         22   -1    0    0    0    0  0.00000000000E+00  0.00000000000E+00  0.48600556821E+03  0.48600556821E+03  0.00000000000E+00 0. -1.
         22   -1    0    0    0    0 -0.00000000000E+00 -0.00000000000E+00 -0.16284824706E+03  0.16284824706E+03  0.00000000000E+00 0.  1.
         24    2    1    2    0    0 -0.56080636893E+02  0.61412731042E+02 -0.25849404849E+02  0.11707885957E+03  0.78247723664E+02 0.  0.
         25    2    1    2    0    0 -0.11093064274E+01 -0.13204964918E+03  0.22982852150E+02  0.18334150550E+03  0.12509019040E+03 0.  0.
        -24    2    1    2    0    0  0.57189943321E+02  0.70636918140E+02  0.32602387384E+03  0.34843345020E+03  0.82789124173E+02 0.  0.
        -13    1    3    3    0    0 -0.45063367993E+02  0.80395347471E+02 -0.19161256826E+02  0.94134333763E+02  0.00000000000E+00 0.  1.
         14    1    3    3    0    0 -0.11017268900E+02 -0.18982616429E+02 -0.66881480225E+01  0.22944525806E+02  0.00000000000E+00 0. -1.
         11    1    5    5    0    0  0.71754939115E+02  0.42526680168E+02  0.17160395037E+03  0.19080148216E+03  0.00000000000E+00 0. -1.
        -12    1    5    5    0    0 -0.14564995794E+02  0.28110237972E+02  0.15441992347E+03  0.15763196804E+03  0.00000000000E+00 0.  1.
          5    1    4    4  501    0 -0.45920880332E+02 -0.57133378296E+02  0.53420259852E+02  0.90797283707E+02  0.41800000000E+01 0.  1.
         -5    1    4    4    0  501  0.44811573904E+02 -0.74916270885E+02 -0.30437407703E+02  0.92544221790E+02  0.41800000000E+01 0.  1.
</event>
<event>
11    1  0.8864208E-009  0.1726255E+03  0.7561462E-02  0.1075769E+00
         22   -1    0    0    0    0  0.00000000000E+00  0.00000000000E+00  0.27492741831E+04  0.27492741831E+04  0.00000000000E+00 0.  1.
         22   -1    0    0    0    0 -0.00000000000E+00 -0.00000000000E+00 -0.58469748849E+03  0.58469748849E+03  0.00000000000E+00 0. -1.
         24    2    1    2    0    0 -0.63781789631E+02 -0.13885058350E+03 -0.55110586139E+03  0.57756483008E+03  0.80720884890E+02 0.  0.
         25    2    1    2    0    0 -0.17003979704E+02  0.51262453379E+02  0.23534651742E+03  0.27194122397E+03  0.12508825517E+03 0.  0.
        -24    2    1    2    0    0  0.80785769335E+02  0.87588130120E+02  0.24803360386E+04  0.24844656176E+04  0.79401003812E+02 0.  0.
        -11    1    3    3    0    0 -0.18977838075E+02  0.35785191770E+01 -0.11492707388E+03  0.11653839045E+03  0.00000000000E+00 0.  1.
         12    1    3    3    0    0 -0.44803951557E+02 -0.14242910268E+03 -0.43617878751E+03  0.46102643963E+03  0.00000000000E+00 0. -1.
         13    1    5    5    0    0  0.94487770381E+01  0.32990026123E+02  0.13937735975E+04  0.13941959913E+04  0.00000000000E+00 0. -1.
        -14    1    5    5    0    0  0.71336992297E+02  0.54598103996E+02  0.10865624411E+04  0.10902696262E+04  0.00000000000E+00 0.  1.
          5    1    4    4  501    0 -0.43306268307E+02  0.24666112822E+02  0.22821784626E+03  0.23363370423E+03  0.41800000000E+01 0. -1.
         -5    1    4    4    0  501  0.26302288603E+02  0.26596340556E+02  0.71286711575E+01  0.38307519747E+02  0.41800000000E+01 0. -1.
</event>
<event>
11    1  0.8864208E-009  0.1301848E+03  0.7561462E-02  0.1119042E+00
         22   -1    0    0    0    0  0.00000000000E+00  0.00000000000E+00  0.21570397853E+04  0.21570397853E+04  0.00000000000E+00 0.  1.
         22   -1    0    0    0    0 -0.00000000000E+00 -0.00000000000E+00 -0.72609098156E+02  0.72609098156E+02  0.00000000000E+00 0.  1.
         24    2    1    2    0    0 -0.23133746741E+02 -0.22658323505E+02 -0.38060745847E+02  0.93386387431E+02  0.78891236020E+02 0.  0.
         25    2    1    2    0    0 -0.17896005054E+02  0.21660972334E+02  0.76310568272E+03  0.77379930445E+03  0.12508243621E+03 0.  0.
        -24    2    1    2    0    0  0.41029751795E+02  0.99735117106E+00  0.13593857503E+04  0.13624631916E+04  0.81804004276E+02 0.  0.
        -13    1    3    3    0    0  0.14581903928E+02 -0.41903291959E+01 -0.47907811648E+02  0.50252852634E+02  0.00000000000E+00 0.  1.
         14    1    3    3    0    0 -0.37715650670E+02 -0.18467994309E+02  0.98470658010E+01  0.43133534797E+02  0.00000000000E+00 0. -1.
         13    1    5    5    0    0 -0.20136072402E+02 -0.12345464973E+02  0.20026164057E+03  0.20164968783E+03  0.00000000000E+00 0. -1.
        -14    1    5    5    0    0  0.61165824198E+02  0.13342816144E+02  0.11591241097E+04  0.11608135037E+04  0.00000000000E+00 0.  1.
          5    1    4    4  501    0 -0.18718739590E+02  0.33602729050E+02  0.65468398235E+02  0.76046815706E+02  0.41800000000E+01 0.  1.
         -5    1    4    4    0  501  0.82273453591E+00 -0.11941756716E+02  0.69763728448E+03  0.69775248874E+03  0.41800000000E+01 0.  1.
</event>
<event>
11    1  0.8864208E-009  0.1372791E+03  0.7561462E-02  0.1110635E+00
         22   -1    0    0    0    0  0.00000000000E+00  0.00000000000E+00  0.32016110148E+03  0.32016110148E+03  0.00000000000E+00 0. -1.
         22   -1    0    0    0    0 -0.00000000000E+00 -0.00000000000E+00 -0.12106550641E+04  0.12106550641E+04  0.00000000000E+00 0. -1.
         24    2    1    2    0    0  0.34108064203E+02  0.28776986482E+02 -0.10906119372E+04  0.10945229384E+04  0.80960423384E+02 0.  0.
         25    2    1    2    0    0 -0.77794677159E+02  0.59082572160E+01 -0.59339745002E+02  0.15892135367E+03  0.12509145462E+03 0.  0.
        -24    2    1    2    0    0  0.43686612955E+02 -0.34685243698E+02  0.25945771961E+03  0.27737187348E+03  0.80655202251E+02 0.  0.
        -11    1    3    3    0    0  0.14171446176E+02 -0.27561711181E+02 -0.27967591332E+03  0.28138780055E+03  0.00000000000E+00 0.  1.
         12    1    3    3    0    0  0.19936618028E+02  0.56338697663E+02 -0.81093602386E+03  0.81313513784E+03  0.00000000000E+00 0. -1.
         13    1    5    5    0    0  0.10722713198E+02 -0.40377510949E+02  0.22682254534E+03  0.23063778321E+03  0.00000000000E+00 0. -1.
        -14    1    5    5    0    0  0.32963899757E+02  0.56922672512E+01  0.32635174265E+02  0.46734090266E+02  0.00000000000E+00 0.  1.
          5    1    4    4  501    0 -0.96814287689E+02  0.42353398545E+02 -0.37685168974E+02  0.11226959085E+03  0.41800000000E+01 0. -1.
         -5    1    4    4    0  501  0.19019610530E+02 -0.36445141329E+02 -0.21654576029E+02  0.46651762820E+02  0.41800000000E+01 0. -1.
</event>
<event>
11    1  0.8864208E-009  0.1724845E+03  0.7561462E-02  0.1075890E+00
         22   -1    0    0    0    0  0.00000000000E+00  0.00000000000E+00  0.19525957942E+04  0.19525957942E+04  0.00000000000E+00 0.  1.
         22   -1    0    0    0    0 -0.00000000000E+00 -0.00000000000E+00 -0.84790653190E+03  0.84790653190E+03  0.00000000000E+00 0.  1.
         24    2    1    2    0    0 -0.53942293528E+02  0.61120123268E+02 -0.82775418199E+03  0.83570247552E+03  0.81093780827E+02 0.  0.
         25    2    1    2    0    0  0.15844948319E+03 -0.39668390294E+02  0.87424087543E+03  0.89812232152E+03  0.12508707456E+03 0.  0.
        -24    2    1    2    0    0 -0.10450718966E+03 -0.21451732974E+02  0.10582025689E+04  0.10666775291E+04  0.81402363096E+02 0.  0.
        -13    1    3    3    0    0 -0.75206661638E+02  0.47359545833E+02 -0.68157267917E+03  0.68734291698E+03  0.00000000000E+00 0.  1.
         14    1    3    3    0    0  0.21264368110E+02  0.13760577435E+02 -0.14618150282E+03  0.14835955854E+03  0.00000000000E+00 0. -1.
         11    1    5    5    0    0  0.84278539465E+01  0.17494390473E+01  0.16463257150E+02  0.18577623505E+02  0.00000000000E+00 0. -1.
        -12    1    5    5    0    0 -0.11293504360E+03 -0.23201172021E+02  0.10417393117E+04  0.10480999056E+04  0.00000000000E+00 0.  1.
          5    1    4    4  501    0 -0.21205417983E+02 -0.86653527237E+01  0.90859863046E+02  0.93796296315E+02  0.41800000000E+01 0. -1.
         -5    1    4    4    0  501  0.17965490117E+03 -0.31003037570E+02  0.78338101238E+03  0.80432602520E+03  0.41800000000E+01 0. -1.
</event>
<event>
11    1  0.8864208E-009  0.1701349E+03  0.7561462E-02  0.1077914E+00
         22   -1    0    0    0    0  0.00000000000E+00  0.00000000000E+00  0.40374744909E+03  0.40374744909E+03  0.00000000000E+00 0.  1.
         22   -1    0    0    0    0 -0.00000000000E+00 -0.00000000000E+00 -0.86551278077E+03  0.86551278077E+03  0.00000000000E+00 0.  1.
        -24    2    1    2    0    0 -0.10805832972E+03 -0.29368880247E+02 -0.60411535026E+03  0.61910134265E+03  0.76105074020E+02 0.  0.
         25    2    1    2    0    0  0.10778436032E+03  0.94460278099E+02 -0.20985759690E+03  0.28324375181E+03  0.12508636813E+03 0.  0.
         24    2    1    2    0    0  0.27396939639E+00 -0.65091397852E+02  0.35220761548E+03  0.36691513541E+03  0.79621272619E+02 0.  0.
        -11    1    5    5    0    0 -0.29422334381E+02 -0.65454018418E+02  0.27450757084E+03  0.28373281223E+03  0.00000000000E+00 0.  1.
         12    1    5    5    0    0  0.29696303777E+02  0.36262056610E+00  0.77700044639E+02  0.83182323174E+02  0.00000000000E+00 0. -1.
         11    1    3    3    0    0 -0.89179121749E+01  0.17216610901E+02 -0.18103831595E+03  0.18207364633E+03  0.00000000000E+00 0. -1.
        -12    1    3    3    0    0 -0.99140417544E+02 -0.46585491148E+02 -0.42307703432E+03  0.43702769631E+03  0.00000000000E+00 0.  1.
          5    1    4    4  501    0 -0.23566920400E+02  0.41323456740E+02 -0.42574218254E+02  0.63977060529E+02  0.41800000000E+01 0.  1.
         -5    1    4    4    0  501  0.13135128072E+03  0.53136821359E+02 -0.16728337865E+03  0.21926669128E+03  0.41800000000E+01 0.  1.
</event>
<event>
11    1  0.8864208E-009  0.1336884E+03  0.7561462E-02  0.1114818E+00
         22   -1    0    0    0    0  0.00000000000E+00  0.00000000000E+00  0.10058449645E+04  0.10058449645E+04  0.00000000000E+00 0. -1.
         22   -1    0    0    0    0 -0.00000000000E+00 -0.00000000000E+00 -0.66538278074E+03  0.66538278074E+03  0.00000000000E+00 0. -1.
         24    2    1    2    0    0 -0.32122184379E+01  0.48178387983E+02 -0.54688806967E+03  0.55476879516E+03  0.79689271054E+02 0.  0.
         25    2    1    2    0    0 -0.28963212087E+02 -0.36949433714E+02 -0.72946050354E+02  0.15222807628E+03  0.12509249634E+03 0.  0.
        -24    2    1    2    0    0  0.32175430525E+02 -0.11228954269E+02  0.96029630383E+03  0.96423087383E+03  0.80067716013E+02 0.  0.
        -13    1    3    3    0    0 -0.32844440476E+02  0.27385406062E+02 -0.14288151522E+03  0.14914370629E+03  0.00000000000E+00 0.  1.
         14    1    3    3    0    0  0.29632222039E+02  0.20792981922E+02 -0.40400655446E+03  0.40562508888E+03  0.00000000000E+00 0. -1.
         11    1    5    5    0    0  0.56132133109E+02  0.15759229267E+01  0.76445147617E+03  0.76651116060E+03  0.00000000000E+00 0. -1.
        -12    1    5    5    0    0 -0.23956702584E+02 -0.12804877196E+02  0.19584482766E+03  0.19771971323E+03  0.00000000000E+00 0.  1.
          5    1    4    4  501    0 -0.69103920278E+02 -0.45363913075E+02 -0.73946863079E+02  0.11099030303E+03  0.41800000000E+01 0.  1.
         -5    1    4    4    0  501  0.40140708190E+02  0.84144793610E+01  0.10008127252E+01  0.41237773255E+02  0.41800000000E+01 0.  1.
</event>
<event>
11    1  0.8864208E-009  0.1401637E+03  0.7561462E-02  0.1107376E+00
         22   -1    0    0    0    0  0.00000000000E+00  0.00000000000E+00  0.16815445198E+03  0.16815445198E+03  0.00000000000E+00 0.  1.
         22   -1    0    0    0    0 -0.00000000000E+00 -0.00000000000E+00 -0.12771569618E+04  0.12771569618E+04  0.00000000000E+00 0. -1.
        -24    2    1    2    0    0  0.45797442686E+02 -0.46834670770E+02 -0.11414828219E+04  0.11463355534E+04  0.82530455875E+02 0.  0.
         25    2    1    2    0    0  0.45816247368E+01  0.42398690071E+02 -0.76954512830E+02  0.15293256185E+03  0.12509089185E+03 0.  0.
         24    2    1    2    0    0 -0.50379067423E+02  0.44359806983E+01  0.10943482493E+03  0.14604329851E+03  0.82431400405E+02 0.  0.
        -11    1    5    5    0    0 -0.40583034611E+02  0.12703305107E+02  0.12132357151E+03  0.12856035806E+03  0.00000000000E+00 0.  1.
         12    1    5    5    0    0 -0.97960328114E+01 -0.82673244088E+01 -0.11888746579E+02  0.17482940455E+02  0.00000000000E+00 0. -1.
         13    1    3    3    0    0  0.56334259613E+02 -0.61338618200E+02 -0.10358229040E+04  0.10391655611E+04  0.00000000000E+00 0. -1.
        -14    1    3    3    0    0 -0.10536816927E+02  0.14503947430E+02 -0.10565991786E+03  0.10716999227E+03  0.00000000000E+00 0.  1.
          5    1    4    4  501    0 -0.15488158213E+02 -0.93120929010E+01  0.28326609751E+02  0.33859523609E+02  0.41800000000E+01 0.  1.
         -5    1    4    4    0  501  0.20069782950E+02  0.51710782972E+02 -0.10528112258E+03  0.11907303824E+03  0.41800000000E+01 0.  1.
</event>
<event>
11    1  0.8864208E-009  0.2019709E+03  0.7561462E-02  0.1053139E+00
         22   -1    0    0    0    0  0.00000000000E+00  0.00000000000E+00  0.29664474515E+04  0.29664474515E+04  0.00000000000E+00 0.  1.
         22   -1    0    0    0    0 -0.00000000000E+00 -0.00000000000E+00 -0.68480555730E+03  0.68480555730E+03  0.00000000000E+00 0.  1.
        -24    2    1    2    0    0 -0.21063237146E+02  0.92422182530E+01 -0.66326546251E+03  0.66857261558E+03  0.80865258249E+02 0.  0.
         25    2    1    2    0    0 -0.10740368035E+03 -0.10572936379E+03  0.61141063845E+03  0.64201662233E+03  0.12509246824E+03 0.  0.
         24    2    1    2    0    0  0.12846691750E+03  0.96487145538E+02  0.23334967183E+04  0.23406637709E+04  0.87672322059E+02 0.  0.
        -11    1    5    5    0    0  0.11898381630E+03  0.96810943365E+02  0.23129611916E+04  0.23180420577E+04  0.00000000000E+00 0.  1.
         12    1    5    5    0    0  0.94831011930E+01 -0.32379782778E+00  0.20535526635E+02  0.22621713186E+02  0.00000000000E+00 0. -1.
         11    1    3    3    0    0 -0.75070975098E+01  0.17869964723E+02 -0.34267635452E+02  0.39369569362E+02  0.00000000000E+00 0. -1.
        -12    1    3    3    0    0 -0.13556139636E+02 -0.86277464701E+01 -0.62899782706E+03  0.62920304622E+03  0.00000000000E+00 0.  1.
          5    1    4    4  501    0 -0.19582895879E+02 -0.46223559251E+02  0.42105385010E+03  0.42405651077E+03  0.41800000000E+01 0. -1.
         -5    1    4    4    0  501 -0.87820784472E+02 -0.59505804540E+02  0.19035678836E+03  0.21796011156E+03  0.41800000000E+01 0. -1.
</event>
<event>
11    1  0.8864208E-009  0.1421131E+03  0.7561462E-02  0.1105221E+00
         22   -1    0    0    0    0  0.00000000000E+00  0.00000000000E+00  0.16873079942E+04  0.16873079942E+04  0.00000000000E+00 0. -1.
         22   -1    0    0    0    0 -0.00000000000E+00 -0.00000000000E+00 -0.51058921049E+03  0.51058921049E+03  0.00000000000E+00 0. -1.
         24    2    1    2    0    0  0.62833290283E+02  0.32541040787E+02 -0.35460716251E+03  0.37022653299E+03  0.79463855433E+02 0.  0.
         25    2    1    2    0    0 -0.21245201063E+02 -0.66193120058E+02 -0.11187707818E+03  0.18165389957E+03  0.12509504744E+03 0.  0.
        -24    2    1    2    0    0 -0.41588089220E+02  0.33652079271E+02  0.16432030244E+04  0.16460167721E+04  0.79956257794E+02 0.  0.
        -11    1    3    3    0    0 -0.11645159512E+02  0.42744871658E+01 -0.84214519022E+01  0.14993392969E+02  0.00000000000E+00 0.  1.
         12    1    3    3    0    0  0.74478449795E+02  0.28266553621E+02 -0.34618571061E+03  0.35523314002E+03  0.00000000000E+00 0. -1.
         13    1    5    5    0    0 -0.38915626633E+02  0.14954174793E+02  0.15653585994E+04  0.15659136624E+04  0.00000000000E+00 0. -1.
        -14    1    5    5    0    0 -0.26724625873E+01  0.18697904478E+02  0.77844425021E+02  0.80103109771E+02  0.00000000000E+00 0.  1.
          5    1    4    4  501    0 -0.37256241593E+02  0.27287117350E+02 -0.50747530169E+02  0.68741534236E+02  0.41800000000E+01 0.  1.
         -5    1    4    4    0  501  0.16011040529E+02 -0.93480237408E+02 -0.61129548014E+02  0.11291236533E+03  0.41800000000E+01 0.  1.
</event>
<event>
11    1  0.8864208E-009  0.1421189E+03  0.7561462E-02  0.1105215E+00
         22   -1    0    0    0    0  0.00000000000E+00  0.00000000000E+00  0.37966897160E+03  0.37966897160E+03  0.00000000000E+00 0.  1.
         22   -1    0    0    0    0 -0.00000000000E+00 -0.00000000000E+00 -0.12468946501E+03  0.12468946501E+03  0.00000000000E+00 0. -1.
        -24    2    1    2    0    0  0.32507801068E+02 -0.18246199300E+02 -0.54758495745E+02  0.10396577478E+03  0.80129323912E+02 0.  0.
         25    2    1    2    0    0 -0.56050928195E+02 -0.45871627071E+02  0.14635642227E+03  0.20569929992E+03  0.12508431926E+03 0.  0.
         24    2    1    2    0    0  0.23543127127E+02  0.64117826371E+02  0.16338158006E+03  0.19469336191E+03  0.80911000331E+02 0.  0.
        -11    1    5    5    0    0  0.30062764646E+02  0.80933619738E+02  0.14616724260E+03  0.16976125421E+03  0.00000000000E+00 0.  1.
         12    1    5    5    0    0 -0.65196375190E+01 -0.16815793368E+02  0.17214337457E+02  0.24932107694E+02  0.00000000000E+00 0. -1.
         11    1    3    3    0    0  0.25011885622E+02  0.10563412529E+02 -0.66604997418E+02  0.71926391454E+02  0.00000000000E+00 0. -1.
        -12    1    3    3    0    0  0.74959154465E+01 -0.28809611829E+02  0.11846501673E+02  0.32039383327E+02  0.00000000000E+00 0.  1.
          5    1    4    4  501    0  0.89460463573E+01 -0.72213776268E+02  0.88765622341E+02  0.11485499266E+03  0.41800000000E+01 0.  1.
         -5    1    4    4    0  501 -0.64996974552E+02  0.26342149197E+02  0.57590799931E+02  0.90844307262E+02  0.41800000000E+01 0.  1.
</event>
<event>
11    1  0.8864208E-009  0.2144838E+03  0.7561462E-02  0.1044729E+00
         22   -1    0    0    0    0  0.00000000000E+00  0.00000000000E+00  0.19576956285E+04  0.19576956285E+04  0.00000000000E+00 0. -1.
         22   -1    0    0    0    0 -0.00000000000E+00 -0.00000000000E+00 -0.21324755600E+03  0.21324755600E+03  0.00000000000E+00 0.  1.
        -24    2    1    2    0    0 -0.17898566982E+03 -0.34137375278E+02 -0.11487042015E+03  0.23001199330E+03  0.80678827714E+02 0.  0.
         25    2    1    2    0    0  0.12595855295E+03  0.80088940639E+02  0.20388198352E+03  0.28196574778E+03  0.12512803140E+03 0.  0.
         24    2    1    2    0    0  0.53027116871E+02 -0.45951565361E+02  0.16554365091E+04  0.16589654434E+04  0.82297540743E+02 0.  0.
        -11    1    5    5    0    0 -0.16723732585E+02  0.84041308771E+01  0.38532105581E+03  0.38577536041E+03  0.00000000000E+00 0.  1.
         12    1    5    5    0    0  0.69750849455E+02 -0.54355696238E+02  0.12701154533E+04  0.12731900830E+04  0.00000000000E+00 0. -1.
         13    1    3    3    0    0 -0.13189428864E+03  0.90954780525E+01 -0.95908950328E+02  0.16333204783E+03  0.00000000000E+00 0. -1.
        -14    1    3    3    0    0 -0.47091381183E+02 -0.43232853331E+02 -0.18961469824E+02  0.66679945461E+02  0.00000000000E+00 0.  1.
          5    1    4    4  501    0  0.13628507052E+03  0.87145170395E+02  0.13184199090E+03  0.20872873337E+03  0.41800000000E+01 0. -1.
         -5    1    4    4    0  501 -0.10326517564E+02 -0.70562297557E+01  0.72039992620E+02  0.73237014413E+02  0.41800000000E+01 0. -1.
</event>
<event>
11    1  0.8864208E-009  0.1843120E+03  0.7561462E-02  0.1066207E+00
         22   -1    0    0    0    0  0.00000000000E+00  0.00000000000E+00  0.28246530665E+04  0.28246530665E+04  0.00000000000E+00 0. -1.
         22   -1    0    0    0    0 -0.00000000000E+00 -0.00000000000E+00 -0.70712522686E+02  0.70712522686E+02  0.00000000000E+00 0. -1.
         24    2    1    2    0    0 -0.14265153284E+03 -0.25476980425E+01  0.11697155989E+03  0.20420983834E+03  0.87540628666E+02 0.  0.
         25    2    1    2    0    0  0.11800978462E+03 -0.54828045192E+02  0.28777970851E+03  0.33970102789E+03  0.12508878412E+03 0.  0.
        -24    2    1    2    0    0  0.24641748214E+02  0.57375743234E+02  0.23491892754E+04  0.23514547229E+04  0.82157596807E+02 0.  0.
        -11    1    3    3    0    0 -0.55619020522E+02  0.30071110682E+02  0.84964080889E+02  0.10590865018E+03  0.00000000000E+00 0.  1.
         12    1    3    3    0    0 -0.87032512314E+02 -0.32618808725E+02  0.32007479001E+02  0.98301188163E+02  0.00000000000E+00 0. -1.
         13    1    5    5    0    0  0.29983815023E+02  0.67302951412E+02  0.22909438792E+04  0.22921283939E+04  0.00000000000E+00 0. -1.
        -14    1    5    5    0    0 -0.53420668088E+01 -0.99272081778E+01  0.58245396193E+02  0.59326329043E+02  0.00000000000E+00 0.  1.
          5    1    4    4  501    0  0.52139719151E+02 -0.26280301216E+02  0.25325258792E+03  0.25992989485E+03  0.41800000000E+01 0. -1.
         -5    1    4    4    0  501  0.65870065470E+02 -0.28547743976E+02  0.34527120588E+02  0.79771133044E+02  0.41800000000E+01 0. -1.
</event>
<event>
11    1  0.8864208E-009  0.1700698E+03  0.7561462E-02  0.1077971E+00
         22   -1    0    0    0    0  0.00000000000E+00  0.00000000000E+00  0.71442807955E+03  0.71442807955E+03  0.00000000000E+00 0.  1.
         22   -1    0    0    0    0 -0.00000000000E+00 -0.00000000000E+00 -0.16551995654E+03  0.16551995654E+03  0.00000000000E+00 0. -1.
        -24    2    1    2    0    0  0.71618383035E+01  0.24915899539E+02 -0.10986371753E+03  0.13674410724E+03  0.77180440903E+02 0.  0.
         25    2    1    2    0    0  0.92508244560E+02  0.43860742619E+02  0.19086680682E+03  0.25011831679E+03  0.12508994523E+03 0.  0.
         24    2    1    2    0    0 -0.99670082864E+02 -0.68776642158E+02  0.46790503373E+03  0.49308561205E+03  0.97641939255E+02 0.  0.
        -13    1    5    5    0    0 -0.47357229355E+02 -0.76228224773E+02  0.38058429429E+03  0.39102155245E+03  0.00000000000E+00 0.  1.
         14    1    5    5    0    0 -0.52312853509E+02  0.74515826158E+01  0.87320739441E+02  0.10206405960E+03  0.00000000000E+00 0. -1.
         13    1    3    3    0    0  0.37958470618E+02  0.17663002185E+02 -0.90330050389E+02  0.99560761051E+02  0.00000000000E+00 0. -1.
        -14    1    3    3    0    0 -0.30796632314E+02  0.72528973534E+01 -0.19533667141E+02  0.37183346190E+02  0.00000000000E+00 0.  1.
          5    1    4    4  501    0 -0.13894142196E+02 -0.26882866716E+02  0.19210172282E+02  0.36086546376E+02  0.41800000000E+01 0. -1.
         -5    1    4    4    0  501  0.10640238676E+03  0.70743609335E+02  0.17165663453E+03  0.21403177042E+03  0.41800000000E+01 0. -1.
</event>
<event>
11    1  0.8864208E-009  0.1747458E+03  0.7561462E-02  0.1073974E+00
         22   -1    0    0    0    0  0.00000000000E+00  0.00000000000E+00  0.51126786883E+03  0.51126786883E+03  0.00000000000E+00 0. -1.
         22   -1    0    0    0    0 -0.00000000000E+00 -0.00000000000E+00 -0.44903035301E+03  0.44903035301E+03  0.00000000000E+00 0.  1.
         24    2    1    2    0    0  0.28772106314E+01  0.29048799214E+02 -0.23443782976E+03  0.24993076916E+03  0.81560911434E+02 0.  0.
         25    2    1    2    0    0 -0.53581226710E+02  0.83480356198E+02 -0.16271426462E+03  0.22795438103E+03  0.12508936882E+03 0.  0.
        -24    2    1    2    0    0  0.50704016078E+02 -0.11252915541E+03  0.45938961020E+03  0.48241307165E+03  0.80310956135E+02 0.  0.
        -13    1    3    3    0    0  0.29202875846E+02  0.83981152781E+01 -0.19856354767E+03  0.20087513227E+03  0.00000000000E+00 0.  1.
         14    1    3    3    0    0 -0.26325665215E+02  0.20650683936E+02 -0.35874282088E+02  0.49055636897E+02  0.00000000000E+00 0. -1.
         13    1    5    5    0    0 -0.12495909067E+02 -0.45005631796E+02  0.23699942132E+03  0.24155823385E+03  0.00000000000E+00 0. -1.
        -14    1    5    5    0    0  0.63199925145E+02 -0.67523523617E+02  0.22239018888E+03  0.24085483780E+03  0.00000000000E+00 0.  1.
          5    1    4    4  501    0  0.26695604261E+02  0.68988994820E+02 -0.10251177692E+03  0.12648428163E+03  0.41800000000E+01 0.  1.
         -5    1    4    4    0  501 -0.80276830970E+02  0.14491361378E+02 -0.60202487702E+02  0.10147009939E+03  0.41800000000E+01 0.  1.
</event>
<event>
11    1  0.1067690E-008  0.1409306E+03  0.7561462E-02  0.1106524E+00
         22   -1    0    0    0    0  0.00000000000E+00  0.00000000000E+00  0.50386276710E+03  0.50386276710E+03  0.00000000000E+00 0. -1.
         22   -1    0    0    0    0 -0.00000000000E+00 -0.00000000000E+00 -0.10569150621E+04  0.10569150621E+04  0.00000000000E+00 0.  1.
        -24    2    1    2    0    0 -0.72904723970E+01  0.17059934978E+02 -0.77558628184E+03  0.77992563273E+03  0.80035739818E+02 0.  0.
         25    2    1    2    0    0  0.33771430091E+02  0.42526177913E+02 -0.25576067502E+03  0.28984398323E+03  0.12508807469E+03 0.  0.
         24    2    1    2    0    0 -0.26480957694E+02 -0.59586112892E+02  0.47829466189E+03  0.49100821321E+03  0.89841726808E+02 0.  0.
        -13    1    5    5    0    0  0.47959129343E+01 -0.23294791944E+02  0.22621774667E+02  0.32823662222E+02  0.00000000000E+00 0.  1.
         14    1    5    5    0    0 -0.31276870628E+02 -0.36291320947E+02  0.45567288723E+03  0.45818455099E+03  0.00000000000E+00 0. -1.
         13    1    3    3    0    0 -0.42753757366E+02 -0.11633853868E+00 -0.40381605895E+03  0.40607303133E+03  0.00000000000E+00 0. -1.
        -14    1    3    3    0    0  0.35463284969E+02  0.17176273517E+02 -0.37177022288E+03  0.37385260140E+03  0.00000000000E+00 0.  1.
          5    1    4    4  501    0  0.15302014927E+02 -0.39015991821E+02 -0.38689096323E+02  0.57190190180E+02  0.41800000000E+01 0. -1.
         -5    1    4    4    0  501  0.18469415164E+02  0.81542169734E+02 -0.21707157870E+03  0.23265379305E+03  0.41800000000E+01 0. -1.
</event>
<event>
11    1  0.8864208E-009  0.1350248E+03  0.7561462E-02  0.1113245E+00
         22   -1    0    0    0    0  0.00000000000E+00  0.00000000000E+00  0.55075042172E+02  0.55075042172E+02  0.00000000000E+00 0. -1.
         22   -1    0    0    0    0 -0.00000000000E+00 -0.00000000000E+00 -0.12362715388E+04  0.12362715388E+04  0.00000000000E+00 0. -1.
         24    2    1    2    0    0  0.49021709562E+02 -0.73584376260E+01 -0.93445619686E+03  0.93910237855E+03  0.79041880890E+02 0.  0.
         25    2    1    2    0    0 -0.57072702156E+02  0.32357370086E+02 -0.22569965070E+03  0.26625706669E+03  0.12509276760E+03 0.  0.
        -24    2    1    2    0    0  0.80509925943E+01 -0.24998932460E+02 -0.21040649115E+02  0.85987135781E+02  0.79128462002E+02 0.  0.
        -11    1    3    3    0    0  0.57171495050E+02 -0.16906555517E+02 -0.39261538959E+03  0.39711617394E+03  0.00000000000E+00 0.  1.
         12    1    3    3    0    0 -0.81497854884E+01  0.95481178908E+01 -0.54184080727E+03  0.54198620460E+03  0.00000000000E+00 0. -1.
         11    1    5    5    0    0 -0.14821754024E+02  0.93203810875E+01  0.20832853989E+02  0.27213263334E+02  0.00000000000E+00 0. -1.
        -12    1    5    5    0    0  0.22872746619E+02 -0.34319313548E+02 -0.41873503104E+02  0.58773872447E+02  0.00000000000E+00 0.  1.
          5    1    4    4  501    0 -0.94353806773E+02  0.25779410186E+02 -0.12623565927E+03  0.15975022038E+03  0.41800000000E+01 0. -1.
         -5    1    4    4    0  501  0.37281104617E+02  0.65779599002E+01 -0.99463991435E+02  0.10650684631E+03  0.41800000000E+01 0. -1.
</event>
<event>
11    1  0.8864208E-009  0.1475470E+03  0.7561462E-02  0.1099412E+00
         22   -1    0    0    0    0  0.00000000000E+00  0.00000000000E+00  0.25704846340E+03  0.25704846340E+03  0.00000000000E+00 0.  1.
         22   -1    0    0    0    0 -0.00000000000E+00 -0.00000000000E+00 -0.87472007147E+03  0.87472007147E+03  0.00000000000E+00 0. -1.
        -24    2    1    2    0    0 -0.45882385223E+02 -0.70815986168E+02 -0.71059051659E+03  0.72011831323E+03  0.80693281001E+02 0.  0.
         25    2    1    2    0    0  0.56913587275E+02  0.50208749945E+01 -0.11494349666E+03  0.17923273567E+03  0.12509196821E+03 0.  0.
         24    2    1    2    0    0 -0.11031202052E+02  0.65795111174E+02  0.20786240518E+03  0.23241748597E+03  0.79752267818E+02 0.  0.
        -11    1    5    5    0    0  0.18036000036E+02  0.41791478662E+02  0.17966535341E+03  0.18534147998E+03  0.00000000000E+00 0.  1.
         12    1    5    5    0    0 -0.29067202088E+02  0.24003632512E+02  0.28197051776E+02  0.47076005988E+02  0.00000000000E+00 0. -1.
         11    1    3    3    0    0 -0.58554448985E+02 -0.60011920479E+02 -0.68117807489E+03  0.68631889367E+03  0.00000000000E+00 0. -1.
        -12    1    3    3    0    0  0.12672063762E+02 -0.10804065689E+02 -0.29412441705E+02  0.33799419558E+02  0.00000000000E+00 0.  1.
          5    1    4    4  501    0  0.90908270545E+01  0.18199957939E+02  0.23942047217E+02  0.31695041102E+02  0.41800000000E+01 0. -1.
         -5    1    4    4    0  501  0.47822760221E+02 -0.13179082945E+02 -0.13888554387E+03  0.14753769457E+03  0.41800000000E+01 0. -1.
</event>
<event>
11    1  0.8864208E-009  0.1427406E+03  0.7561462E-02  0.1104536E+00
         22   -1    0    0    0    0  0.00000000000E+00  0.00000000000E+00  0.36873136218E+03  0.36873136218E+03  0.00000000000E+00 0. -1.
         22   -1    0    0    0    0 -0.00000000000E+00 -0.00000000000E+00 -0.23414673153E+03  0.23414673153E+03  0.00000000000E+00 0.  1.
        -24    2    1    2    0    0  0.74111799325E+02  0.23022423103E+02 -0.16994834578E+03  0.20313493725E+03  0.79741907006E+02 0.  0.
         25    2    1    2    0    0 -0.98557119364E+01 -0.82759041333E+01  0.68277554500E+02  0.14312280758E+03  0.12512668761E+03 0.  0.
         24    2    1    2    0    0 -0.64256087389E+02 -0.14746518970E+02  0.23625542193E+03  0.25662034889E+03  0.75439210518E+02 0.  0.
        -11    1    5    5    0    0 -0.33123636913E+02  0.17054710013E+01  0.22724445927E+02  0.40205526938E+02  0.00000000000E+00 0.  1.
         12    1    5    5    0    0 -0.31132450476E+02 -0.16451989971E+02  0.21353097600E+03  0.21641482195E+03  0.00000000000E+00 0. -1.
         11    1    3    3    0    0  0.64168704355E+02  0.38951949447E+02 -0.74149884772E+02  0.10551342282E+03  0.00000000000E+00 0. -1.
        -12    1    3    3    0    0  0.99430949700E+01 -0.15929526344E+02 -0.95798461004E+02  0.97621514422E+02  0.00000000000E+00 0.  1.
          5    1    4    4  501    0  0.31600713813E+02  0.43587271780E+02  0.51256747417E+02  0.74452548180E+02  0.41800000000E+01 0.  1.
         -5    1    4    4    0  501 -0.41456425749E+02 -0.51863175914E+02  0.17020807083E+02  0.68670259396E+02  0.41800000000E+01 0.  1.
</event>
<event>
11    1  0.8864208E-009  0.1559245E+03  0.7561462E-02  0.1090974E+00
         22   -1    0    0    0    0  0.00000000000E+00  0.00000000000E+00  0.48157964335E+02  0.48157964335E+02  0.00000000000E+00 0. -1.
         22   -1    0    0    0    0 -0.00000000000E+00 -0.00000000000E+00 -0.27324778861E+04  0.27324778861E+04  0.00000000000E+00 0.  1.
         24    2    1    2    0    0  0.22390238260E+01  0.96883903617E+02 -0.24341549900E+04  0.24374169305E+04  0.80618071915E+02 0.  0.
         25    2    1    2    0    0 -0.17811861021E+02 -0.31376168895E+02 -0.13641256903E+03  0.18856925589E+03  0.12509296108E+03 0.  0.
        -24    2    1    2    0    0  0.15572837195E+02 -0.65507734722E+02 -0.11375236275E+03  0.15464966410E+03  0.80269184681E+02 0.  0.
        -13    1    3    3    0    0  0.11579177931E+02  0.39238799591E+02 -0.18274737671E+04  0.18279316536E+04  0.00000000000E+00 0.  1.
         14    1    3    3    0    0 -0.93401541047E+01  0.57645104026E+02 -0.60668122293E+03  0.60948527689E+03  0.00000000000E+00 0. -1.
         13    1    5    5    0    0  0.30389646426E+02  0.63654434723E+01 -0.28298455162E+02  0.42010142168E+02  0.00000000000E+00 0. -1.
        -14    1    5    5    0    0 -0.14816809231E+02 -0.71873178195E+02 -0.85453907584E+02  0.11263952193E+03  0.00000000000E+00 0.  1.
          5    1    4    4  501    0 -0.59423820547E+02  0.10930994012E+02 -0.32250833009E+02  0.68616803396E+02  0.41800000000E+01 0. -1.
         -5    1    4    4    0  501  0.41611959526E+02 -0.42307162907E+02 -0.10416173602E+03  0.11995245250E+03  0.41800000000E+01 0. -1.
</event>
<event>
11    1  0.8864208E-009  0.1488376E+03  0.7561462E-02  0.1098073E+00
         22   -1    0    0    0    0  0.00000000000E+00  0.00000000000E+00  0.31179329482E+03  0.31179329482E+03  0.00000000000E+00 0.  1.
         22   -1    0    0    0    0 -0.00000000000E+00 -0.00000000000E+00 -0.32566357185E+03  0.32566357185E+03  0.00000000000E+00 0. -1.
        -24    2    1    2    0    0 -0.69596677635E+02 -0.21382345759E+02 -0.19444638308E+03  0.22282721338E+03  0.80880584083E+02 0.  0.
         25    2    1    2    0    0  0.11837658670E+03  0.19996231931E+02 -0.37687117992E+02  0.17742842037E+03  0.12509060685E+03 0.  0.
         24    2    1    2    0    0 -0.48779909062E+02  0.13861138280E+01  0.21826322405E+03  0.23720123292E+03  0.79020181507E+02 0.  0.
        -13    1    5    5    0    0 -0.38636828065E+02 -0.17266047703E+02  0.21031514927E+03  0.21453061064E+03  0.00000000000E+00 0.  1.
         14    1    5    5    0    0 -0.10143080997E+02  0.18652161531E+02  0.79480747741E+01  0.22670622279E+02  0.00000000000E+00 0. -1.
         11    1    3    3    0    0 -0.30740761219E+02 -0.32238449635E+02 -0.16981053024E+03  0.17555605434E+03  0.00000000000E+00 0. -1.
        -12    1    3    3    0    0 -0.38855916416E+02  0.10856103875E+02 -0.24635852843E+02  0.47271159042E+02  0.00000000000E+00 0.  1.
          5    1    4    4  501    0 -0.23756514988E+02  0.19751937982E+02 -0.61114218464E+01  0.31770000558E+02  0.41800000000E+01 0. -1.
         -5    1    4    4    0  501  0.14213310169E+03  0.24429394939E+00 -0.31575696146E+02  0.14565841981E+03  0.41800000000E+01 0. -1.
</event>
<event>
11    1  0.8864208E-009  0.1540550E+03  0.7561462E-02  0.1092806E+00
         22   -1    0    0    0    0  0.00000000000E+00  0.00000000000E+00  0.12978700368E+04  0.12978700368E+04  0.00000000000E+00 0.  1.
         22   -1    0    0    0    0 -0.00000000000E+00 -0.00000000000E+00 -0.14962271929E+04  0.14962271929E+04  0.00000000000E+00 0.  1.
         24    2    1    2    0    0  0.86287097131E+02  0.24157000296E+02 -0.14653162699E+04  0.14703176114E+04  0.81566437302E+02 0.  0.
         25    2    1    2    0    0 -0.11700883954E+03 -0.54663224414E+02  0.28104699361E+03  0.33363999593E+03  0.12509635339E+03 0.  0.
        -24    2    1    2    0    0  0.30721742410E+02  0.30506224118E+02  0.98591212017E+03  0.99013962244E+03  0.80494149198E+02 0.  0.
        -13    1    3    3    0    0  0.34303078394E+02 -0.16088832662E+02 -0.95937905989E+03  0.96012693550E+03  0.00000000000E+00 0.  1.
         14    1    3    3    0    0  0.51984018737E+02  0.40245832958E+02 -0.50593720999E+03  0.51019067585E+03  0.00000000000E+00 0. -1.
         13    1    5    5    0    0  0.61123709352E+00  0.10894204459E+02  0.14926989641E+02  0.18489789650E+02  0.00000000000E+00 0. -1.
        -14    1    5    5    0    0  0.30110505316E+02  0.19612019659E+02  0.97098513053E+03  0.97164983279E+03  0.00000000000E+00 0.  1.
          5    1    4    4  501    0  0.14455973569E+02 -0.26313223021E+01 -0.36800177145E+01  0.15713496087E+02  0.41800000000E+01 0.  1.
         -5    1    4    4    0  501 -0.13146481311E+03 -0.52031902112E+02  0.28472701132E+03  0.31792649984E+03  0.41800000000E+01 0.  1.
</event>
<event>
11    1  0.8864208E-009  0.1857391E+03  0.7561462E-02  0.1065093E+00
         22   -1    0    0    0    0  0.00000000000E+00  0.00000000000E+00  0.22441958026E+03  0.22441958026E+03  0.00000000000E+00 0.  1.
         22   -1    0    0    0    0 -0.00000000000E+00 -0.00000000000E+00 -0.59845703871E+03  0.59845703871E+03  0.00000000000E+00 0.  1.
        -24    2    1    2    0    0  0.67347172812E+02  0.12174829423E+03 -0.39078197757E+03  0.42253027709E+03  0.80392737421E+02 0.  0.
         25    2    1    2    0    0 -0.55248456913E+02 -0.12021949012E+03 -0.13639810544E+03  0.22750318042E+03  0.12509251030E+03 0.  0.
         24    2    1    2    0    0 -0.12098715899E+02 -0.15288041126E+01  0.15314262456E+03  0.17284316146E+03  0.79204664247E+02 0.  0.
        -13    1    5    5    0    0 -0.40510993178E+02 -0.88820075028E+01  0.12678656056E+03  0.13339738590E+03  0.00000000000E+00 0.  1.
         14    1    5    5    0    0  0.28412277279E+02  0.73532033901E+01  0.26356063998E+02  0.39445775562E+02  0.00000000000E+00 0. -1.
         11    1    3    3    0    0  0.45215155798E+02  0.96287119118E+01 -0.10372930382E+03  0.11356447895E+03  0.00000000000E+00 0. -1.
        -12    1    3    3    0    0  0.22132017014E+02  0.11211958232E+03 -0.28705267374E+03  0.30896579814E+03  0.00000000000E+00 0.  1.
          5    1    4    4  501    0 -0.80582043785E+02 -0.12954435647E+03 -0.12720712749E+03  0.19868148317E+03  0.41800000000E+01 0. -1.
         -5    1    4    4    0  501  0.25333586872E+02  0.93248663443E+01 -0.91909779586E+01  0.28821697243E+02  0.41800000000E+01 0. -1.
</event>
<event>
11    1  0.8864208E-009  0.1719780E+03  0.7561462E-02  0.1076323E+00
         22   -1    0    0    0    0  0.00000000000E+00  0.00000000000E+00  0.10075825516E+04  0.10075825516E+04  0.00000000000E+00 0. -1.
         22   -1    0    0    0    0 -0.00000000000E+00 -0.00000000000E+00 -0.38746383048E+03  0.38746383048E+03  0.00000000000E+00 0.  1.
         24    2    1    2    0    0 -0.42727322182E+02 -0.12021586817E+03 -0.33547627649E+03  0.36746818978E+03  0.78810274628E+02 0.  0.
         25    2    1    2    0    0 -0.13330971537E+02  0.40954463438E+02  0.10844574785E+03  0.17106769008E+03  0.12509473003E+03 0.  0.
        -24    2    1    2    0    0  0.56058293719E+02  0.79261404735E+02  0.84714924981E+03  0.85651050227E+03  0.80768103051E+02 0.  0.
        -11    1    3    3    0    0 -0.44440907384E+02 -0.11871885845E+03 -0.33974904675E+03  0.36262732436E+03  0.00000000000E+00 0.  1.
         12    1    3    3    0    0  0.17135852027E+01 -0.14970097251E+01  0.42727702577E+01  0.48408654226E+01  0.00000000000E+00 0. -1.
         13    1    5    5    0    0  0.14535859182E+02  0.80452736732E+02  0.46741999616E+03  0.47451595006E+03  0.00000000000E+00 0. -1.
        -14    1    5    5    0    0  0.41522434537E+02 -0.11913319973E+01  0.37972925365E+03  0.38199455221E+03  0.00000000000E+00 0.  1.
          5    1    4    4  501    0  0.61330673683E+01 -0.63907912641E+01  0.11835541855E+03  0.11875998580E+03  0.41800000000E+01 0. -1.
         -5    1    4    4    0  501 -0.19464038905E+02  0.47345254702E+02 -0.99096706903E+01  0.52307704275E+02  0.41800000000E+01 0. -1.
</event>
<event>
11    1  0.8864208E-009  0.1776395E+03  0.7561462E-02  0.1071568E+00
         22   -1    0    0    0    0  0.00000000000E+00  0.00000000000E+00  0.17333534011E+03  0.17333534011E+03  0.00000000000E+00 0. -1.
         22   -1    0    0    0    0 -0.00000000000E+00 -0.00000000000E+00 -0.10566690986E+04  0.10566690986E+04  0.00000000000E+00 0. -1.
        -24    2    1    2    0    0 -0.38449195788E+02 -0.35157226928E+01 -0.76197591478E+03  0.76713581893E+03  0.79996056231E+02 0.  0.
         25    2    1    2    0    0 -0.34613941752E+02 -0.10334898778E+03 -0.22445738090E+03  0.27912120648E+03  0.12509354033E+03 0.  0.
         24    2    1    2    0    0  0.73063137540E+02  0.10686471048E+03  0.10309953723E+03  0.18374741326E+03  0.79845531428E+02 0.  0.
        -11    1    5    5    0    0  0.14812512422E+01  0.62737702793E+02  0.20870616208E+02  0.66134681354E+02  0.00000000000E+00 0.  1.
         12    1    5    5    0    0  0.71581886298E+02  0.44127007684E+02  0.82228921022E+02  0.11761273190E+03  0.00000000000E+00 0. -1.
         11    1    3    3    0    0 -0.23070247113E+02  0.35560335494E+02 -0.50240349129E+03  0.50418849831E+03  0.00000000000E+00 0. -1.
        -12    1    3    3    0    0 -0.15378948675E+02 -0.39076058187E+02 -0.25957242349E+03  0.26294732062E+03  0.00000000000E+00 0.  1.
          5    1    4    4  501    0  0.10521820251E+02  0.38957354179E+01 -0.12621161376E+03  0.12677826826E+03  0.41800000000E+01 0. -1.
         -5    1    4    4    0  501 -0.45135762002E+02 -0.10724472320E+03 -0.98245767137E+02  0.15234293822E+03  0.41800000000E+01 0. -1.
</event>
<event>
11    1  0.8864208E-009  0.2185206E+03  0.7561462E-02  0.1042148E+00
         22   -1    0    0    0    0  0.00000000000E+00  0.00000000000E+00  0.18328917910E+03  0.18328917910E+03  0.00000000000E+00 0. -1.
         22   -1    0    0    0    0 -0.00000000000E+00 -0.00000000000E+00 -0.13635123862E+04  0.13635123862E+04  0.00000000000E+00 0. -1.
        -24    2    1    2    0    0 -0.14485978937E+03 -0.76231845873E+02 -0.66299248850E+03  0.68752196660E+03  0.79572368588E+02 0.  0.
         25    2    1    2    0    0  0.21188221263E+03  0.35419917545E+02 -0.64411533123E+03  0.69042085924E+03  0.12509100829E+03 0.  0.
         24    2    1    2    0    0 -0.67022423259E+02  0.40811928328E+02  0.12688461261E+03  0.16885873948E+03  0.79094565364E+02 0.  0.
        -13    1    5    5    0    0  0.17414754508E+02  0.19473075423E+01  0.28912552740E+02  0.33808303525E+02  0.00000000000E+00 0.  1.
         14    1    5    5    0    0 -0.84437177767E+02  0.38864620786E+02  0.97972059867E+02  0.13505043596E+03  0.00000000000E+00 0. -1.
         13    1    3    3    0    0 -0.14877447562E+03 -0.58288457237E+02 -0.62792831138E+03  0.64793931280E+03  0.00000000000E+00 0. -1.
        -14    1    3    3    0    0  0.39146862515E+01 -0.17943388636E+02 -0.35064177126E+02  0.39582653798E+02  0.00000000000E+00 0.  1.
          5    1    4    4  501    0  0.52501626462E+02 -0.59021925809E+00 -0.44581685606E+02  0.69005566670E+02  0.41800000000E+01 0.  1.
         -5    1    4    4    0  501  0.15938058617E+03  0.36010136803E+02 -0.59953364562E+03  0.62141529257E+03  0.41800000000E+01 0.  1.
</event>
<event>
11    1  0.8864208E-009  0.2128140E+03  0.7561462E-02  0.1045815E+00
         22   -1    0    0    0    0  0.00000000000E+00  0.00000000000E+00  0.26067911507E+04  0.26067911507E+04  0.00000000000E+00 0.  1.
         22   -1    0    0    0    0 -0.00000000000E+00 -0.00000000000E+00 -0.36362664715E+03  0.36362664715E+03  0.00000000000E+00 0.  1.
        -24    2    1    2    0    0 -0.16622340275E+02 -0.23673429382E+02 -0.32535692138E+03  0.33613898980E+03  0.79344569560E+02 0.  0.
         25    2    1    2    0    0  0.11577946016E+03 -0.11855808629E+03  0.34632426213E+03  0.40379360365E+03  0.12509147288E+03 0.  0.
         24    2    1    2    0    0 -0.99157119882E+02  0.14223151567E+03  0.22221971628E+04  0.22304852044E+04  0.82716855581E+02 0.  0.
        -11    1    5    5    0    0 -0.57515921106E+02  0.13712212732E+03  0.18376913014E+04  0.18436973391E+04  0.00000000000E+00 0.  1.
         12    1    5    5    0    0 -0.41641198777E+02  0.51093883448E+01  0.38450586146E+03  0.38678786535E+03  0.00000000000E+00 0. -1.
         13    1    3    3    0    0  0.24429843937E+02 -0.21562929983E+02 -0.66675290590E+02  0.74211667543E+02  0.00000000000E+00 0. -1.
        -14    1    3    3    0    0 -0.41052184213E+02 -0.21104993994E+01 -0.25868163079E+03  0.26192732226E+03  0.00000000000E+00 0.  1.
          5    1    4    4  501    0  0.48070393684E+02 -0.12753424544E+03  0.19758977457E+03  0.24007277630E+03  0.41800000000E+01 0.  1.
         -5    1    4    4    0  501  0.67709066473E+02  0.89761591512E+01  0.14873448756E+03  0.16372082734E+03  0.41800000000E+01 0.  1.
</event>
<event>
11    1  0.8864208E-009  0.1296382E+03  0.7561462E-02  0.1119714E+00
         22   -1    0    0    0    0  0.00000000000E+00  0.00000000000E+00  0.33118728550E+04  0.33118728550E+04  0.00000000000E+00 0.  1.
         22   -1    0    0    0    0 -0.00000000000E+00 -0.00000000000E+00 -0.59703125681E+03  0.59703125681E+03  0.00000000000E+00 0. -1.
        -24    2    1    2    0    0  0.14868347396E+02  0.25054146810E+02 -0.50858485577E+03  0.51565135905E+03  0.79931161272E+02 0.  0.
         25    2    1    2    0    0  0.18153681815E+02 -0.33567401324E+02 -0.33611415699E+02  0.13502966605E+03  0.12508779658E+03 0.  0.
         24    2    1    2    0    0 -0.33022029211E+02  0.85132545138E+01  0.32570378696E+04  0.32582230867E+04  0.80988075736E+02 0.  0.
        -11    1    5    5    0    0  0.70435115389E+01 -0.27476229905E+02  0.17367036361E+04  0.17369352533E+04  0.00000000000E+00 0.  1.
         12    1    5    5    0    0 -0.40065540750E+02  0.35989484418E+02  0.15203342335E+04  0.15212878334E+04  0.00000000000E+00 0. -1.
         13    1    3    3    0    0 -0.19109227637E+02  0.42296638248E+02 -0.30835849072E+03  0.31183188898E+03  0.00000000000E+00 0. -1.
        -14    1    3    3    0    0  0.33977575033E+02 -0.17242491437E+02 -0.20022636505E+03  0.20381947007E+03  0.00000000000E+00 0.  1.
          5    1    4    4  501    0  0.57009507371E+02  0.19787195570E+02 -0.32967037864E+02  0.68890601861E+02  0.41800000000E+01 0.  1.
         -5    1    4    4    0  501 -0.38855825556E+02 -0.53354596895E+02 -0.64437783485E+00  0.66139064192E+02  0.41800000000E+01 0.  1.
</event>
<event>
11    1  0.8864208E-009  0.1316145E+03  0.7561462E-02  0.1117301E+00
         22   -1    0    0    0    0  0.00000000000E+00  0.00000000000E+00  0.95426390128E+03  0.95426390128E+03  0.00000000000E+00 0.  1.
         22   -1    0    0    0    0 -0.00000000000E+00 -0.00000000000E+00 -0.91119781791E+03  0.91119781791E+03  0.00000000000E+00 0.  1.
        -24    2    1    2    0    0 -0.52126579321E+01 -0.43988341819E+02 -0.78127443937E+03  0.78645429235E+03  0.78475845452E+02 0.  0.
         25    2    1    2    0    0  0.70449906360E+01  0.84074915681E+02 -0.79509028432E+02  0.17054969097E+03  0.12508912082E+03 0.  0.
         24    2    1    2    0    0 -0.18323327039E+01 -0.40086573862E+02  0.90384955117E+03  0.90845773586E+03  0.82104542165E+02 0.  0.
        -13    1    5    5    0    0 -0.29367259084E+02  0.10725830087E+02  0.22658659550E+03  0.22873339196E+03  0.00000000000E+00 0.  1.
         14    1    5    5    0    0  0.27534926380E+02 -0.50812403949E+02  0.67726295567E+03  0.67972434390E+03  0.00000000000E+00 0. -1.
         13    1    3    3    0    0 -0.55963089494E+01 -0.37510219328E+02 -0.13714756706E+03  0.14229473068E+03  0.00000000000E+00 0. -1.
        -14    1    3    3    0    0  0.38365101732E+00 -0.64781224909E+01 -0.64412687231E+03  0.64415956167E+03  0.00000000000E+00 0.  1.
          5    1    4    4  501    0  0.64009310380E+02  0.55749674586E+02 -0.31097540946E+02  0.90497223629E+02  0.41800000000E+01 0. -1.
         -5    1    4    4    0  501 -0.56964319744E+02  0.28325241095E+02 -0.48411487486E+02  0.80052467342E+02  0.41800000000E+01 0. -1.
</event>
<event>
11    1  0.8864208E-009  0.1737241E+03  0.7561462E-02  0.1074836E+00
         22   -1    0    0    0    0  0.00000000000E+00  0.00000000000E+00  0.69224695806E+03  0.69224695806E+03  0.00000000000E+00 0.  1.
         22   -1    0    0    0    0 -0.00000000000E+00 -0.00000000000E+00 -0.20660926788E+04  0.20660926788E+04  0.00000000000E+00 0.  1.
        -24    2    1    2    0    0  0.73756376348E+02 -0.94317560437E+02 -0.19248223205E+04  0.19298208894E+04  0.70227448102E+02 0.  0.
         25    2    1    2    0    0 -0.43057411970E+02  0.14939122117E+03 -0.60396483712E+02  0.20848998448E+03  0.12509460699E+03 0.  0.
         24    2    1    2    0    0 -0.30698964377E+02 -0.55073660729E+02  0.61137308348E+03  0.62002876296E+03  0.81750138702E+02 0.  0.
        -13    1    5    5    0    0 -0.53720225540E+02 -0.24995182537E+02  0.26240965011E+03  0.26901569889E+03  0.00000000000E+00 0.  1.
         14    1    5    5    0    0  0.23021261162E+02 -0.30078478192E+02  0.34896343337E+03  0.35101306407E+03  0.00000000000E+00 0. -1.
         13    1    3    3    0    0  0.11009565844E+02  0.89333876547E+01 -0.38697966301E+03  0.38723930010E+03  0.00000000000E+00 0. -1.
        -14    1    3    3    0    0  0.62746810504E+02 -0.10325094809E+03 -0.15378426574E+04  0.15425815893E+04  0.00000000000E+00 0.  1.
          5    1    4    4  501    0 -0.64370047063E+02  0.49289677298E+02 -0.67831176311E+02  0.10578996232E+03  0.41800000000E+01 0.  1.
         -5    1    4    4    0  501  0.21312635092E+02  0.10010154387E+03  0.74346925994E+01  0.10270002217E+03  0.41800000000E+01 0.  1.
</event>
<event>
11    1  0.8864208E-009  0.1607044E+03  0.7561462E-02  0.1086417E+00
         22   -1    0    0    0    0  0.00000000000E+00  0.00000000000E+00  0.14683431309E+04  0.14683431309E+04  0.00000000000E+00 0. -1.
         22   -1    0    0    0    0 -0.00000000000E+00 -0.00000000000E+00 -0.30886699303E+03  0.30886699303E+03  0.00000000000E+00 0.  1.
        -24    2    1    2    0    0 -0.84710926215E+02  0.52198945173E+02 -0.25064188899E+03  0.28120172841E+03  0.79701848472E+02 0.  0.
         25    2    1    2    0    0  0.99028756328E+02 -0.62025325805E+02  0.13465208023E+03  0.21779104943E+03  0.12509165791E+03 0.  0.
         24    2    1    2    0    0 -0.14317830113E+02  0.98263806315E+01  0.12754659467E+04  0.12782173461E+04  0.82003931815E+02 0.  0.
        -11    1    5    5    0    0  0.15768369126E+02  0.35451981055E+01  0.54047164636E+02  0.56411930473E+02  0.00000000000E+00 0.  1.
         12    1    5    5    0    0 -0.30086199239E+02  0.62811825259E+01  0.12214187820E+04  0.12218054156E+04  0.00000000000E+00 0. -1.
         11    1    3    3    0    0 -0.32506124213E+02  0.63825264298E+02 -0.16957431861E+03  0.18408085725E+03  0.00000000000E+00 0. -1.
        -12    1    3    3    0    0 -0.52204802002E+02 -0.11626319125E+02 -0.81067570381E+02  0.97120871165E+02  0.00000000000E+00 0.  1.
          5    1    4    4  501    0  0.11029461807E+03 -0.74358110218E+01  0.11216962234E+03  0.15754266291E+03  0.41800000000E+01 0. -1.
         -5    1    4    4    0  501 -0.11265861743E+02 -0.54589514783E+02  0.22482457894E+02  0.60248386518E+02  0.41800000000E+01 0. -1.
</event>
<event>
11    1  0.8864208E-009  0.1359503E+03  0.7561462E-02  0.1112167E+00
         22   -1    0    0    0    0  0.00000000000E+00  0.00000000000E+00  0.15040804779E+04  0.15040804779E+04  0.00000000000E+00 0. -1.
         22   -1    0    0    0    0 -0.00000000000E+00 -0.00000000000E+00 -0.12997375495E+04  0.12997375495E+04  0.00000000000E+00 0.  1.
        -24    2    1    2    0    0 -0.47021037394E+02 -0.24255632684E+02 -0.12520472120E+04  0.12557254611E+04  0.80155468109E+02 0.  0.
         25    2    1    2    0    0  0.86600511573E+02 -0.91379615114E+00  0.86391433343E+02  0.17496281661E+03  0.12509206135E+03 0.  0.
         24    2    1    2    0    0 -0.39579474179E+02  0.25169428835E+02  0.13699987070E+04  0.13731297496E+04  0.79930076748E+02 0.  0.
        -13    1    5    5    0    0  0.17872880326E+02  0.19214592854E+02  0.20111778718E+03  0.20282259427E+03  0.00000000000E+00 0.  1.
         14    1    5    5    0    0 -0.57452354505E+02  0.59548359810E+01  0.11688809199E+04  0.11703071554E+04  0.00000000000E+00 0. -1.
         11    1    3    3    0    0 -0.43611488175E+02  0.10090738295E+02 -0.32877882058E+03  0.33181214228E+03  0.00000000000E+00 0. -1.
        -12    1    3    3    0    0 -0.34095492198E+01 -0.34346370979E+02 -0.92326839139E+03  0.92391331886E+03  0.00000000000E+00 0.  1.
          5    1    4    4  501    0  0.57587746537E+01  0.46162303159E+02  0.63029843642E+02  0.78449699221E+02  0.41800000000E+01 0. -1.
         -5    1    4    4    0  501  0.80841736919E+02 -0.47076099310E+02  0.23361589702E+02  0.96513117387E+02  0.41800000000E+01 0. -1.
</event>
<event>
11    1  0.8864208E-009  0.2015940E+03  0.7561462E-02  0.1053402E+00
         22   -1    0    0    0    0  0.00000000000E+00  0.00000000000E+00  0.37463570549E+03  0.37463570549E+03  0.00000000000E+00 0. -1.
         22   -1    0    0    0    0 -0.00000000000E+00 -0.00000000000E+00 -0.22162534215E+04  0.22162534215E+04  0.00000000000E+00 0.  1.
        -24    2    1    2    0    0  0.47220137095E+02 -0.15275535667E+03 -0.16306370632E+04  0.16404156143E+04  0.80138727334E+02 0.  0.
         25    2    1    2    0    0 -0.35505890213E+02  0.14794228354E+03 -0.55924639633E+03  0.59291829281E+03  0.12509189678E+03 0.  0.
         24    2    1    2    0    0 -0.11714246883E+02  0.48130731320E+01  0.34826574351E+03  0.35755521984E+03  0.79976983425E+02 0.  0.
        -13    1    5    5    0    0  0.23453126329E+02  0.29380128428E+02  0.14335860294E+03  0.14820570204E+03  0.00000000000E+00 0.  1.
         14    1    5    5    0    0 -0.35167373211E+02 -0.24567055296E+02  0.20490714057E+03  0.20934951780E+03  0.00000000000E+00 0. -1.
         13    1    3    3    0    0  0.55937699604E+02 -0.55102498282E+02 -0.59752061977E+03  0.60265761640E+03  0.00000000000E+00 0. -1.
        -14    1    3    3    0    0 -0.87175625090E+01 -0.97652858385E+02 -0.10331164434E+04  0.10377579980E+04  0.00000000000E+00 0.  1.
          5    1    4    4  501    0 -0.16336644202E+02 -0.73721961249E+01 -0.83486869343E+01  0.20209111633E+02  0.41800000000E+01 0.  1.
         -5    1    4    4    0  501 -0.19169246011E+02  0.15531447966E+03 -0.55089770939E+03  0.57270918117E+03  0.41800000000E+01 0.  1.
</event>
<event>
11    1  0.8864208E-009  0.1705547E+03  0.7561462E-02  0.1077550E+00
         22   -1    0    0    0    0  0.00000000000E+00  0.00000000000E+00  0.40332597767E+03  0.40332597767E+03  0.00000000000E+00 0. -1.
         22   -1    0    0    0    0 -0.00000000000E+00 -0.00000000000E+00 -0.48267103275E+03  0.48267103275E+03  0.00000000000E+00 0. -1.
         24    2    1    2    0    0  0.10153676914E+03  0.52231333980E+02 -0.41531214838E+03  0.43821238404E+03  0.80672704150E+02 0.  0.
         25    2    1    2    0    0 -0.12980621242E+03 -0.68295591377E+02  0.15437006533E+03  0.24696474198E+03  0.12509007206E+03 0.  0.
        -24    2    1    2    0    0  0.28269443277E+02  0.16064257398E+02  0.18159702798E+03  0.20081988439E+03  0.79334252433E+02 0.  0.
        -11    1    3    3    0    0  0.69004788514E+02  0.32809713149E+01 -0.13326706111E+03  0.15010841145E+03  0.00000000000E+00 0.  1.
         12    1    3    3    0    0  0.32531980626E+02  0.48950362665E+02 -0.28204508727E+03  0.28810397259E+03  0.00000000000E+00 0. -1.
         11    1    5    5    0    0 -0.85615102702E+01 -0.62090476146E+00  0.14800139131E+03  0.14825011572E+03  0.00000000000E+00 0. -1.
        -12    1    5    5    0    0  0.36830953547E+02  0.16685162159E+02  0.33595636664E+02  0.52569768673E+02  0.00000000000E+00 0.  1.
          5    1    4    4  501    0 -0.14501166827E+03 -0.62370582038E+02  0.92863016664E+02  0.18319248266E+03  0.41800000000E+01 0.  1.
         -5    1    4    4    0  501  0.15205455857E+02 -0.59250093396E+01  0.61507048661E+02  0.63772259318E+02  0.41800000000E+01 0.  1.
</event>
<event>
11    1  0.8864208E-009  0.1390580E+03  0.7561462E-02  0.1108615E+00
         22   -1    0    0    0    0  0.00000000000E+00  0.00000000000E+00  0.45973189636E+03  0.45973189636E+03  0.00000000000E+00 0.  1.
         22   -1    0    0    0    0 -0.00000000000E+00 -0.00000000000E+00 -0.29228646772E+04  0.29228646772E+04  0.00000000000E+00 0.  1.
        -24    2    1    2    0    0 -0.83797329782E+01 -0.59847070904E+02 -0.18542047471E+04  0.18569588638E+04  0.81049898855E+02 0.  0.
         25    2    1    2    0    0  0.65867801974E+02  0.47169445967E+02 -0.10564895910E+04  0.10669507743E+04  0.12510065842E+03 0.  0.
         24    2    1    2    0    0 -0.57488068995E+02  0.12677624937E+02  0.44756155722E+03  0.45868693551E+03  0.81343451221E+02 0.  0.
        -11    1    5    5    0    0 -0.30632942270E+02  0.32033947714E+02  0.38817267640E+03  0.39069499313E+03  0.00000000000E+00 0.  1.
         12    1    5    5    0    0 -0.26855126726E+02 -0.19356322778E+02  0.59388880824E+02  0.67991942379E+02  0.00000000000E+00 0. -1.
         13    1    3    3    0    0 -0.10154878635E+02  0.17513370688E+02 -0.22208945577E+03  0.22301023761E+03  0.00000000000E+00 0. -1.
        -14    1    3    3    0    0  0.17751456570E+01 -0.77360441592E+02 -0.16321152913E+04  0.16339486262E+04  0.00000000000E+00 0.  1.
          5    1    4    4  501    0  0.98909584181E+02  0.47763976258E+02 -0.91573685671E+03  0.92231012485E+03  0.41800000000E+01 0.  1.
         -5    1    4    4    0  501 -0.33041782207E+02 -0.59453029074E+00 -0.14075273433E+03  0.14464064940E+03  0.41800000000E+01 0.  1.
</event>
<event>
11    1  0.8864208E-009  0.2023155E+03  0.7561462E-02  0.1052898E+00
         22   -1    0    0    0    0  0.00000000000E+00  0.00000000000E+00  0.11982089643E+04  0.11982089643E+04  0.00000000000E+00 0.  1.
         22   -1    0    0    0    0 -0.00000000000E+00 -0.00000000000E+00 -0.63972528131E+03  0.63972528131E+03  0.00000000000E+00 0.  1.
         24    2    1    2    0    0  0.63228078822E+01  0.45196493495E+01 -0.39220440361E+03  0.39985510992E+03  0.77455855741E+02 0.  0.
         25    2    1    2    0    0 -0.12560065729E+03  0.10055502297E+03 -0.19299077368E+03  0.28067808243E+03  0.12509160433E+03 0.  0.
        -24    2    1    2    0    0  0.11927784941E+03 -0.10507467232E+03  0.11436788603E+04  0.11574010533E+04  0.79422733007E+02 0.  0.
        -13    1    3    3    0    0 -0.27809925569E+02  0.76213690222E+01 -0.30176053208E+03  0.30313511170E+03  0.00000000000E+00 0.  1.
         14    1    3    3    0    0  0.34132733452E+02 -0.31017196726E+01 -0.90443871526E+02  0.96719998214E+02  0.00000000000E+00 0. -1.
         11    1    5    5    0    0  0.47025402741E+01 -0.14824052661E+02  0.26382512357E+02  0.30625208254E+02  0.00000000000E+00 0. -1.
        -12    1    5    5    0    0  0.11457530913E+03 -0.90250619658E+02  0.11172963480E+04  0.11267758450E+04  0.00000000000E+00 0.  1.
          5    1    4    4  501    0 -0.24971892038E+02 -0.29454145483E+02 -0.44926621006E+02  0.59388683713E+02  0.41800000000E+01 0.  1.
         -5    1    4    4    0  501 -0.10062876525E+03  0.13000916845E+03 -0.14806415268E+03  0.22128939872E+03  0.41800000000E+01 0.  1.
</event>
<event>
11    1  0.8864208E-009  0.6295092E+03  0.7561462E-02  0.9143160E-01
         22   -1    0    0    0    0  0.00000000000E+00  0.00000000000E+00  0.12378855924E+04  0.12378855924E+04  0.00000000000E+00 0. -1.
         22   -1    0    0    0    0 -0.00000000000E+00 -0.00000000000E+00 -0.90753030087E+03  0.90753030087E+03  0.00000000000E+00 0. -1.
         24    2    1    2    0    0 -0.61386735929E+02  0.12954197096E+03 -0.22918663324E+03  0.28219448519E+03  0.80980003871E+02 0.  0.
         25    2    1    2    0    0  0.11101586648E+03  0.50336549349E+03 -0.43143694593E+03  0.68372980517E+03  0.12508903033E+03 0.  0.
        -24    2    1    2    0    0 -0.49629130553E+02 -0.63290746445E+03  0.99097887068E+03  0.11794916029E+04  0.78271386769E+02 0.  0.
        -13    1    3    3    0    0  0.11456349885E+02  0.68441422800E+02 -0.10313067510E+03  0.12430371054E+03  0.00000000000E+00 0.  1.
         14    1    3    3    0    0 -0.72843085814E+02  0.61100548160E+02 -0.12605595814E+03  0.15789077465E+03  0.00000000000E+00 0. -1.
         11    1    5    5    0    0 -0.35159044674E+02 -0.58548363067E+03  0.94278036944E+03  0.11103432195E+04  0.00000000000E+00 0. -1.
        -12    1    5    5    0    0 -0.14470085879E+02 -0.47423833785E+02  0.48198501245E+02  0.69148383340E+02  0.00000000000E+00 0.  1.
          5    1    4    4  501    0  0.10790803091E+03  0.49164657846E+03 -0.43978921866E+03  0.66842541132E+03  0.41800000000E+01 0. -1.
         -5    1    4    4    0  501  0.31078355671E+01  0.11718915029E+02  0.83522727241E+01  0.15304393847E+02  0.41800000000E+01 0. -1.
</event>
<event>
11    1  0.8864208E-009  0.1744107E+03  0.7561462E-02  0.1074256E+00
         22   -1    0    0    0    0  0.00000000000E+00  0.00000000000E+00  0.10179415975E+03  0.10179415975E+03  0.00000000000E+00 0.  1.
         22   -1    0    0    0    0 -0.00000000000E+00 -0.00000000000E+00 -0.12153903551E+04  0.12153903551E+04  0.00000000000E+00 0.  1.
         24    2    1    2    0    0 -0.40747796573E+02  0.10788420515E+03 -0.82411116177E+03  0.83579209356E+03  0.78037376041E+02 0.  0.
         25    2    1    2    0    0  0.25940557338E+02 -0.15057497027E+03 -0.32940017454E+03  0.38405346598E+03  0.12508739167E+03 0.  0.
        -24    2    1    2    0    0  0.14807239235E+02  0.42690765121E+02  0.39915140931E+02  0.97338955349E+02  0.76419225281E+02 0.  0.
        -13    1    3    3    0    0 -0.20077252566E+02  0.29168542756E+02 -0.51272137572E+03  0.51394270992E+03  0.00000000000E+00 0.  1.
         14    1    3    3    0    0 -0.20670544007E+02  0.78715662392E+02 -0.31138978604E+03  0.32184938364E+03  0.00000000000E+00 0. -1.
         13    1    5    5    0    0  0.36761982644E+02  0.16742539131E+02  0.47661925123E+02  0.62477316611E+02  0.00000000000E+00 0. -1.
        -14    1    5    5    0    0 -0.21954743409E+02  0.25948225991E+02 -0.77467841916E+01  0.34861638738E+02  0.00000000000E+00 0.  1.
          5    1    4    4  501    0  0.75434480361E+02 -0.76453535952E+02 -0.16316093407E+03  0.19538287231E+03  0.41800000000E+01 0.  1.
         -5    1    4    4    0  501 -0.49493923023E+02 -0.74121434318E+02 -0.16623924047E+03  0.18867059367E+03  0.41800000000E+01 0.  1.
</event>
<event>
11    1  0.8864208E-009  0.1585605E+03  0.7561462E-02  0.1088439E+00
         22   -1    0    0    0    0  0.00000000000E+00  0.00000000000E+00  0.24146204610E+03  0.24146204610E+03  0.00000000000E+00 0.  1.
         22   -1    0    0    0    0 -0.00000000000E+00 -0.00000000000E+00 -0.54777427762E+03  0.54777427762E+03  0.00000000000E+00 0. -1.
         24    2    1    2    0    0  0.21907346389E+02 -0.32559906994E+02 -0.44234137123E+03  0.45127713537E+03  0.80281285724E+02 0.  0.
         25    2    1    2    0    0 -0.77064669883E+02 -0.52133298742E+02  0.85339436798E+01  0.15613456632E+03  0.12509328688E+03 0.  0.
        -24    2    1    2    0    0  0.55157323494E+02  0.84693205736E+02  0.12749519603E+03  0.18182462203E+03  0.81178191230E+02 0.  0.
        -13    1    3    3    0    0 -0.16247844135E+02  0.19131760499E+02 -0.12751286988E+03  0.12995979641E+03  0.00000000000E+00 0.  1.
         14    1    3    3    0    0  0.38155190525E+02 -0.51691667493E+02 -0.31482850135E+03  0.32131733896E+03  0.00000000000E+00 0. -1.
         11    1    5    5    0    0  0.23216302135E+02  0.32387109626E+02 -0.56671175653E+00  0.39852762978E+02  0.00000000000E+00 0. -1.
        -12    1    5    5    0    0  0.31941021359E+02  0.52306096110E+02  0.12806190779E+03  0.14197185905E+03  0.00000000000E+00 0.  1.
          5    1    4    4  501    0 -0.42560881560E+02 -0.23584059708E+02  0.66661690954E+02  0.82637097918E+02  0.41800000000E+01 0.  1.
         -5    1    4    4    0  501 -0.34503788324E+02 -0.28549239033E+02 -0.58127747275E+02  0.73497468401E+02  0.41800000000E+01 0.  1.
</event>
<event>
11    1  0.8864208E-009  0.1512388E+03  0.7561462E-02  0.1095620E+00
         22   -1    0    0    0    0  0.00000000000E+00  0.00000000000E+00  0.32521811339E+04  0.32521811339E+04  0.00000000000E+00 0.  1.
         22   -1    0    0    0    0 -0.00000000000E+00 -0.00000000000E+00 -0.99710137583E+02  0.99710137583E+02  0.00000000000E+00 0. -1.
        -24    2    1    2    0    0  0.21057535108E+02 -0.41594060952E+02 -0.59754706391E+02  0.11299387553E+03  0.83806355851E+02 0.  0.
         25    2    1    2    0    0  0.28597742909E+02 -0.32751113774E+02  0.35125437914E+03  0.37539003041E+03  0.12509024626E+03 0.  0.
         24    2    1    2    0    0 -0.49655278017E+02  0.74345174725E+02  0.28609713236E+04  0.28635073656E+04  0.80775408417E+02 0.  0.
        -13    1    5    5    0    0 -0.41945771733E+02  0.64947952718E+02  0.28115635649E+04  0.28126264174E+04  0.00000000000E+00 0.  1.
         14    1    5    5    0    0 -0.77095062841E+01  0.93972220075E+01  0.49407758739E+02  0.50880948224E+02  0.00000000000E+00 0. -1.
         13    1    3    3    0    0 -0.32047176759E+02 -0.23150683513E+02 -0.21575903197E+02  0.45038819746E+02  0.00000000000E+00 0. -1.
        -14    1    3    3    0    0  0.53104711867E+02 -0.18443377438E+02 -0.38178803194E+02  0.67955055788E+02  0.00000000000E+00 0.  1.
          5    1    4    4  501    0 -0.49567820460E+02 -0.84405514267E+01  0.13619705774E+03  0.14524228954E+03  0.41800000000E+01 0. -1.
         -5    1    4    4    0  501  0.78165563369E+02 -0.24310562347E+02  0.21505732140E+03  0.23014774087E+03  0.41800000000E+01 0. -1.
</event>
<event>
11    1  0.8864208E-009  0.1571591E+03  0.7561462E-02  0.1089780E+00
         22   -1    0    0    0    0  0.00000000000E+00  0.00000000000E+00  0.36308469434E+03  0.36308469434E+03  0.00000000000E+00 0.  1.
         22   -1    0    0    0    0 -0.00000000000E+00 -0.00000000000E+00 -0.63541886537E+03  0.63541886537E+03  0.00000000000E+00 0.  1.
         24    2    1    2    0    0  0.28075105625E+02  0.91592090913E+02 -0.57533074662E+03  0.58885170875E+03  0.81015703483E+02 0.  0.
         25    2    1    2    0    0 -0.20341986611E+02 -0.80721364359E+02  0.77182272237E+02  0.16892108454E+03  0.12508994593E+03 0.  0.
        -24    2    1    2    0    0 -0.77331190142E+01 -0.10870726554E+02  0.22581430336E+03  0.24073076642E+03  0.82348214756E+02 0.  0.
        -13    1    3    3    0    0 -0.24891846265E+02  0.48992814252E+02 -0.31701128299E+03  0.32173910767E+03  0.00000000000E+00 0.  1.
         14    1    3    3    0    0  0.52966951890E+02  0.42599276660E+02 -0.25831946363E+03  0.26711260108E+03  0.00000000000E+00 0. -1.
         13    1    5    5    0    0  0.16150225647E+02  0.20834490093E+02  0.26049877195E+02  0.37060786119E+02  0.00000000000E+00 0. -1.
        -14    1    5    5    0    0 -0.23883344661E+02 -0.31705216646E+02  0.19976442617E+03  0.20366998030E+03  0.00000000000E+00 0.  1.
          5    1    4    4  501    0 -0.36996483905E+01 -0.11176424573E+03  0.43666682654E+02  0.12012154510E+03  0.41800000000E+01 0.  1.
         -5    1    4    4    0  501 -0.16642338221E+02  0.31042881372E+02  0.33515589583E+02  0.48799539449E+02  0.41800000000E+01 0.  1.
</event>
<event>
11    1  0.8864208E-009  0.1300289E+03  0.7561462E-02  0.1119233E+00
         22   -1    0    0    0    0  0.00000000000E+00  0.00000000000E+00  0.11388022451E+04  0.11388022451E+04  0.00000000000E+00 0. -1.
         22   -1    0    0    0    0 -0.00000000000E+00 -0.00000000000E+00 -0.10171311767E+04  0.10171311767E+04  0.00000000000E+00 0.  1.
        -24    2    1    2    0    0 -0.12497649950E+02 -0.28352100119E+02 -0.65593118127E+03  0.66156247524E+03  0.80368907275E+02 0.  0.
         25    2    1    2    0    0 -0.18420945545E+02  0.10633416218E+02 -0.34538816101E+03  0.36795578513E+03  0.12508428066E+03 0.  0.
         24    2    1    2    0    0  0.30918595495E+02  0.17718683902E+02  0.11229904107E+04  0.11264151615E+04  0.80210610834E+02 0.  0.
        -11    1    5    5    0    0 -0.13913188182E+02  0.16422756487E+02  0.93387329137E+02  0.95835676965E+02  0.00000000000E+00 0.  1.
         12    1    5    5    0    0  0.44831783677E+02  0.12959274143E+01  0.10296030816E+04  0.10305794845E+04  0.00000000000E+00 0. -1.
         11    1    3    3    0    0 -0.23604648248E+01 -0.52200809193E+02 -0.28669849176E+03  0.29142155283E+03  0.00000000000E+00 0. -1.
        -12    1    3    3    0    0 -0.10137185125E+02  0.23848709074E+02 -0.36923268951E+03  0.37014092242E+03  0.00000000000E+00 0.  1.
          5    1    4    4  501    0 -0.49297106615E+02 -0.39090548304E+02 -0.12656859019E+03  0.14140493665E+03  0.41800000000E+01 0.  1.
         -5    1    4    4    0  501  0.30876161070E+02  0.49723964522E+02 -0.21881957082E+03  0.22655084848E+03  0.41800000000E+01 0.  1.
</event>
<event>
11    1  0.8864208E-009  0.1418592E+03  0.7561462E-02  0.1105500E+00
         22   -1    0    0    0    0  0.00000000000E+00  0.00000000000E+00  0.26096427589E+03  0.26096427589E+03  0.00000000000E+00 0. -1.
         22   -1    0    0    0    0 -0.00000000000E+00 -0.00000000000E+00 -0.68771332347E+03  0.68771332347E+03  0.00000000000E+00 0.  1.
        -24    2    1    2    0    0 -0.34234119428E+02  0.33466018062E+02 -0.61035998322E+03  0.61742875827E+03  0.79918790755E+02 0.  0.
         25    2    1    2    0    0  0.23332120937E+02 -0.92347826826E+02  0.53666746298E+02  0.16613118059E+03  0.12508773128E+03 0.  0.
         24    2    1    2    0    0  0.10901998491E+02  0.58881808764E+02  0.12994418934E+03  0.16511766051E+03  0.82416190726E+02 0.  0.
        -11    1    5    5    0    0  0.31846398235E+02 -0.52262428857E+01  0.27149198182E+02  0.42173281319E+02  0.00000000000E+00 0.  1.
         12    1    5    5    0    0 -0.20944399744E+02  0.64108051650E+02  0.10279499116E+03  0.12294437919E+03  0.00000000000E+00 0. -1.
         13    1    3    3    0    0 -0.40418110534E+01  0.20181647487E+02 -0.31490908757E+02  0.37620638833E+02  0.00000000000E+00 0. -1.
        -14    1    3    3    0    0 -0.30192308375E+02  0.13284370574E+02 -0.57886907447E+03  0.57980811943E+03  0.00000000000E+00 0.  1.
          5    1    4    4  501    0  0.40452407094E+02 -0.49487463393E+02 -0.29812329481E+02  0.70651635946E+02  0.41800000000E+01 0.  1.
         -5    1    4    4    0  501 -0.17120286157E+02 -0.42860363434E+02  0.83479075779E+02  0.95479544640E+02  0.41800000000E+01 0.  1.
</event>
<event>
11    1  0.8864208E-009  0.1340623E+03  0.7561462E-02  0.1114376E+00
         22   -1    0    0    0    0  0.00000000000E+00  0.00000000000E+00  0.55113175882E+03  0.55113175882E+03  0.00000000000E+00 0.  1.
         22   -1    0    0    0    0 -0.00000000000E+00 -0.00000000000E+00 -0.74085316042E+03  0.74085316042E+03  0.00000000000E+00 0. -1.
        -24    2    1    2    0    0 -0.47798900150E+01 -0.36179300289E+02 -0.67094614250E+03  0.67647939385E+03  0.78255064030E+02 0.  0.
         25    2    1    2    0    0 -0.39275480092E+02  0.53952974321E+02  0.18230983793E+02  0.14294543859E+03  0.12509013898E+03 0.  0.
         24    2    1    2    0    0  0.44055370107E+02 -0.17773674032E+02  0.46299375710E+03  0.47256008680E+03  0.81810985811E+02 0.  0.
        -13    1    5    5    0    0  0.19962197182E+02 -0.25466585481E+01  0.42284312495E+03  0.42332172529E+03  0.00000000000E+00 0.  1.
         14    1    5    5    0    0  0.24093172925E+02 -0.15227015484E+02  0.40150632154E+02  0.49238361513E+02  0.00000000000E+00 0. -1.
         13    1    3    3    0    0 -0.11727263382E+02 -0.38099547678E+01 -0.57216862434E+03  0.57230147574E+03  0.00000000000E+00 0. -1.
        -14    1    3    3    0    0  0.69473733671E+01 -0.32369345521E+02 -0.98777518167E+02  0.10417791811E+03  0.00000000000E+00 0.  1.
          5    1    4    4  501    0 -0.50813472916E+02  0.77794777386E+02 -0.21068166934E+02  0.95369683213E+02  0.41800000000E+01 0. -1.
         -5    1    4    4    0  501  0.11537992823E+02 -0.23841803065E+02  0.39299150727E+02  0.47575755376E+02  0.41800000000E+01 0. -1.
</event>
<event>
11    1  0.8864208E-009  0.1510338E+03  0.7561462E-02  0.1095827E+00
         22   -1    0    0    0    0  0.00000000000E+00  0.00000000000E+00  0.29327471110E+03  0.29327471110E+03  0.00000000000E+00 0.  1.
         22   -1    0    0    0    0 -0.00000000000E+00 -0.00000000000E+00 -0.13541165152E+04  0.13541165152E+04  0.00000000000E+00 0.  1.
        -24    2    1    2    0    0 -0.74120858305E+02 -0.39865361080E+02 -0.12258097304E+04  0.12315285217E+04  0.83485662998E+02 0.  0.
         25    2    1    2    0    0  0.70099877193E+02  0.67433096107E+02 -0.63069447369E+02  0.17054067716E+03  0.12508058259E+03 0.  0.
         24    2    1    2    0    0  0.40209811126E+01 -0.27567735026E+02  0.22803737365E+03  0.24532202749E+03  0.86056406431E+02 0.  0.
        -11    1    5    5    0    0 -0.82717252319E+01 -0.57244579289E+02  0.15851345735E+03  0.16873612374E+03  0.00000000000E+00 0.  1.
         12    1    5    5    0    0  0.12292706345E+02  0.29676844262E+02  0.69523916301E+02  0.76585903746E+02  0.00000000000E+00 0. -1.
         13    1    3    3    0    0 -0.14130345423E+00 -0.32159141783E+02 -0.66904276926E+03  0.66981524129E+03  0.00000000000E+00 0. -1.
        -14    1    3    3    0    0 -0.73979554851E+02 -0.77062192973E+01 -0.55676696113E+03  0.56171328039E+03  0.00000000000E+00 0.  1.
          5    1    4    4  501    0  0.74341578157E+02  0.76198916659E+02 -0.91350036153E+02  0.14033975434E+03  0.41800000000E+01 0.  1.
         -5    1    4    4    0  501 -0.42417009647E+01 -0.87658205525E+01  0.28280588784E+02  0.30200922817E+02  0.41800000000E+01 0.  1.
</event>
<event>
11    1  0.8864208E-009  0.1331890E+03  0.7561462E-02  0.1115412E+00
         22   -1    0    0    0    0  0.00000000000E+00  0.00000000000E+00  0.46917047506E+03  0.46917047506E+03  0.00000000000E+00 0. -1.
         22   -1    0    0    0    0 -0.00000000000E+00 -0.00000000000E+00 -0.34414891359E+03  0.34414891359E+03  0.00000000000E+00 0.  1.
        -24    2    1    2    0    0 -0.31175478081E+02  0.33551614038E+02 -0.29179289468E+03  0.30697585584E+03  0.83626918209E+02 0.  0.
         25    2    1    2    0    0  0.29456677384E+02 -0.33808412020E+02  0.68563031674E+02  0.14952966652E+03  0.12509007671E+03 0.  0.
         24    2    1    2    0    0  0.17188006965E+01  0.25679798144E+00  0.34825142447E+03  0.35681386629E+03  0.77679214142E+02 0.  0.
        -13    1    5    5    0    0 -0.53271669330E+01 -0.11780569433E-01 -0.25747983685E+01  0.59167924547E+01  0.00000000000E+00 0.  1.
         14    1    5    5    0    0  0.70459676295E+01  0.26857855087E+00  0.35082622284E+03  0.35089707384E+03  0.00000000000E+00 0. -1.
         13    1    3    3    0    0  0.23985084663E+02  0.30164474738E+02 -0.14780646286E+03  0.15274793054E+03  0.00000000000E+00 0. -1.
        -14    1    3    3    0    0 -0.55160562743E+02  0.33871393002E+01 -0.14398643182E+03  0.15422792530E+03  0.00000000000E+00 0.  1.
          5    1    4    4  501    0 -0.25131852924E+01 -0.52543452543E+02 -0.17613361309E+02  0.55631226861E+02  0.41800000000E+01 0. -1.
         -5    1    4    4    0  501  0.31969862677E+02  0.18735040523E+02  0.86176392984E+02  0.93898439660E+02  0.41800000000E+01 0. -1.
</event>
<event>
11    1  0.8864208E-009  0.1448250E+03  0.7561462E-02  0.1102287E+00
         22   -1    0    0    0    0  0.00000000000E+00  0.00000000000E+00  0.24718560876E+03  0.24718560876E+03  0.00000000000E+00 0.  1.
         22   -1    0    0    0    0 -0.00000000000E+00 -0.00000000000E+00 -0.16744163180E+04  0.16744163180E+04  0.00000000000E+00 0.  1.
        -24    2    1    2    0    0  0.57970319864E+02 -0.41626424555E+02 -0.15050771748E+04  0.15087103060E+04  0.76525604379E+02 0.  0.
         25    2    1    2    0    0 -0.74427995582E+02  0.97224156286E+02 -0.10612822526E+03  0.20469388980E+03  0.12507727704E+03 0.  0.
         24    2    1    2    0    0  0.16457675718E+02 -0.55597731731E+02  0.18397469089E+03  0.20819773089E+03  0.78343126043E+02 0.  0.
        -13    1    5    5    0    0  0.29507787106E+02 -0.66921884650E+02  0.17274645355E+03  0.18759153862E+03  0.00000000000E+00 0.  1.
         14    1    5    5    0    0 -0.13050111388E+02  0.11324152918E+02  0.11228237335E+02  0.20606192278E+02  0.00000000000E+00 0. -1.
         13    1    3    3    0    0  0.11663160393E+02  0.76199821824E+01 -0.45889623067E+02  0.47957803787E+02  0.00000000000E+00 0. -1.
        -14    1    3    3    0    0  0.46307159471E+02 -0.49246406737E+02 -0.14591875518E+04  0.14607525023E+04  0.00000000000E+00 0.  1.
          5    1    4    4  501    0 -0.56214735882E+02  0.12301267480E+02  0.11081813969E+02  0.58751142225E+02  0.41800000000E+01 0. -1.
         -5    1    4    4    0  501 -0.18213259700E+02  0.84922888806E+02 -0.11721003923E+03  0.14594274757E+03  0.41800000000E+01 0. -1.
</event>
<event>
11    1  0.8864208E-009  0.1574495E+03  0.7561462E-02  0.1089501E+00
         22   -1    0    0    0    0  0.00000000000E+00  0.00000000000E+00  0.45647220012E+03  0.45647220012E+03  0.00000000000E+00 0. -1.
         22   -1    0    0    0    0 -0.00000000000E+00 -0.00000000000E+00 -0.32270493206E+04  0.32270493206E+04  0.00000000000E+00 0. -1.
        -24    2    1    2    0    0  0.24224728964E+01  0.94791748820E+02 -0.29920891626E+04  0.29946565180E+04  0.79867140208E+02 0.  0.
         25    2    1    2    0    0 -0.11820177124E+02 -0.11489329366E+03 -0.19805651492E+03  0.26117828420E+03  0.12509007762E+03 0.  0.
         24    2    1    2    0    0  0.93977042279E+01  0.20101544843E+02  0.41956855697E+03  0.42768671855E+03  0.79910989688E+02 0.  0.
        -11    1    5    5    0    0 -0.27179936233E+02  0.70601098724E+01  0.62575795244E+02  0.68588076482E+02  0.00000000000E+00 0.  1.
         12    1    5    5    0    0  0.36577640461E+02  0.13041434971E+02  0.35699276173E+03  0.35909864207E+03  0.00000000000E+00 0. -1.
         13    1    3    3    0    0  0.41846643349E+00  0.10928025509E+03 -0.26698200305E+04  0.26720556402E+04  0.00000000000E+00 0. -1.
        -14    1    3    3    0    0  0.20040064629E+01 -0.14488506269E+02 -0.32226913209E+03  0.32260087779E+03  0.00000000000E+00 0.  1.
          5    1    4    4  501    0 -0.34551337037E+02 -0.13479640347E+03 -0.17005816484E+03  0.21977515125E+03  0.41800000000E+01 0. -1.
         -5    1    4    4    0  501  0.22731159912E+02  0.19903109803E+02 -0.27998350078E+02  0.41403132948E+02  0.41800000000E+01 0. -1.
</event>
<event>
11    1  0.8864208E-009  0.1294430E+03  0.7561462E-02  0.1119955E+00
         22   -1    0    0    0    0  0.00000000000E+00  0.00000000000E+00  0.28874242676E+03  0.28874242676E+03  0.00000000000E+00 0. -1.
         22   -1    0    0    0    0 -0.00000000000E+00 -0.00000000000E+00 -0.57007159416E+03  0.57007159416E+03  0.00000000000E+00 0.  1.
         24    2    1    2    0    0  0.44394208743E+00  0.29003151717E+02 -0.35793812994E+03  0.36792672890E+03  0.80056187020E+02 0.  0.
         25    2    1    2    0    0  0.37572013051E+01 -0.52985707915E+02 -0.17790909634E+03  0.22387674569E+03  0.12509016306E+03 0.  0.
        -24    2    1    2    0    0 -0.42011433926E+01  0.23982556198E+02  0.25451805887E+03  0.26701054634E+03  0.76956981193E+02 0.  0.
        -11    1    3    3    0    0 -0.44264046361E+01  0.29614920069E+02 -0.36093539711E+03  0.36217536835E+03  0.00000000000E+00 0.  1.
         12    1    3    3    0    0  0.48703467235E+01 -0.61176835161E+00  0.29972671716E+01  0.57513605539E+01  0.00000000000E+00 0. -1.
         11    1    5    5    0    0  0.17799588553E+02  0.42930707306E+02  0.19903884940E+03  0.20439259907E+03  0.00000000000E+00 0. -1.
        -12    1    5    5    0    0 -0.22000731945E+02 -0.18948151108E+02  0.55479209475E+02  0.62617947272E+02  0.00000000000E+00 0.  1.
          5    1    4    4  501    0  0.61937654949E+01  0.41054227570E+02 -0.55771393500E+02  0.69654382958E+02  0.41800000000E+01 0. -1.
         -5    1    4    4    0  501 -0.24365641898E+01 -0.94039935485E+02 -0.12213770284E+03  0.15422236273E+03  0.41800000000E+01 0. -1.
</event>
<event>
11    1  0.8864208E-009  0.1553468E+03  0.7561462E-02  0.1091537E+00
         22   -1    0    0    0    0  0.00000000000E+00  0.00000000000E+00  0.27322196519E+03  0.27322196519E+03  0.00000000000E+00 0. -1.
         22   -1    0    0    0    0 -0.00000000000E+00 -0.00000000000E+00 -0.49802261487E+03  0.49802261487E+03  0.00000000000E+00 0.  1.
        -24    2    1    2    0    0 -0.98756703872E+02  0.64254058168E+01 -0.22793363082E+03  0.26276840599E+03  0.85436073916E+02 0.  0.
         25    2    1    2    0    0  0.68587908029E+02  0.87972233924E+02 -0.20485238647E+03  0.26468015977E+03  0.12509065377E+03 0.  0.
         24    2    1    2    0    0  0.30168795843E+02 -0.94397639741E+02  0.20798536762E+03  0.24379601431E+03  0.79734012946E+02 0.  0.
        -11    1    5    5    0    0 -0.83944301289E+01 -0.50854128824E+01 -0.39657867852E+01  0.10585619783E+02  0.00000000000E+00 0.  1.
         12    1    5    5    0    0  0.38563225972E+02 -0.89312226859E+02  0.21195115440E+03  0.23321039453E+03  0.00000000000E+00 0. -1.
         11    1    3    3    0    0 -0.34925812284E+02  0.21280645396E+02 -0.21548878974E+02  0.46228047950E+02  0.00000000000E+00 0. -1.
        -12    1    3    3    0    0 -0.63830891587E+02 -0.14855239580E+02 -0.20638475185E+03  0.21654035804E+03  0.00000000000E+00 0.  1.
          5    1    4    4  501    0  0.84642668396E+01  0.10441761413E+03 -0.13578230334E+03  0.17154879263E+03  0.41800000000E+01 0.  1.
         -5    1    4    4    0  501  0.60123641189E+02 -0.16445380207E+02 -0.69070083136E+02  0.93131367135E+02  0.41800000000E+01 0.  1.
</event>
<event>
11    1  0.8864208E-009  0.1861104E+03  0.7561462E-02  0.1064805E+00
         22   -1    0    0    0    0  0.00000000000E+00  0.00000000000E+00  0.25391560351E+03  0.25391560351E+03  0.00000000000E+00 0. -1.
         22   -1    0    0    0    0 -0.00000000000E+00 -0.00000000000E+00 -0.19322250476E+04  0.19322250476E+04  0.00000000000E+00 0. -1.
         24    2    1    2    0    0  0.16605543993E+02  0.84702999526E+02 -0.17636076083E+04  0.17673310011E+04  0.75476679790E+02 0.  0.
         25    2    1    2    0    0 -0.17136322253E+02 -0.20380138011E+03 -0.19567607036E+02  0.24053762412E+03  0.12508717479E+03 0.  0.
        -24    2    1    2    0    0  0.53077825951E+00  0.11909838058E+03  0.10486577127E+03  0.17827202586E+03  0.81236563430E+02 0.  0.
        -13    1    3    3    0    0  0.19422926759E+02 -0.63853353060E+01 -0.19254158188E+03  0.19362407739E+03  0.00000000000E+00 0.  1.
         14    1    3    3    0    0 -0.28173827656E+01  0.91088334832E+02 -0.15710660264E+04  0.15737069237E+04  0.00000000000E+00 0. -1.
         13    1    5    5    0    0  0.20384126476E+02  0.11974840232E+03  0.76189020490E+02  0.14338744476E+03  0.00000000000E+00 0. -1.
        -14    1    5    5    0    0 -0.19853348217E+02 -0.65002173645E+00  0.28676750781E+02  0.34884581107E+02  0.00000000000E+00 0.  1.
          5    1    4    4  501    0 -0.38784274827E+02 -0.19434617204E+03 -0.47382155865E+02  0.20380676058E+03  0.41800000000E+01 0. -1.
         -5    1    4    4    0  501  0.21647952575E+02 -0.94552080656E+01  0.27814548828E+02  0.36730863545E+02  0.41800000000E+01 0. -1.
</event>
<event>
11    1  0.8864208E-009  0.2188600E+03  0.7561462E-02  0.1041934E+00
         22   -1    0    0    0    0  0.00000000000E+00  0.00000000000E+00  0.81615767420E+03  0.81615767420E+03  0.00000000000E+00 0. -1.
         22   -1    0    0    0    0 -0.00000000000E+00 -0.00000000000E+00 -0.12330691094E+04  0.12330691094E+04  0.00000000000E+00 0.  1.
         24    2    1    2    0    0 -0.59336662114E+02  0.10341255169E+03 -0.10832933667E+04  0.10927778027E+04  0.80148689756E+02 0.  0.
         25    2    1    2    0    0  0.22990698672E+03 -0.12784915460E+03  0.30708432256E+02  0.29290261901E+03  0.12508520111E+03 0.  0.
        -24    2    1    2    0    0 -0.17057032461E+03  0.24436602907E+02  0.63567349922E+03  0.66354636188E+03  0.80756383948E+02 0.  0.
        -11    1    3    3    0    0 -0.46114210361E+02  0.11455646158E+03 -0.10073281502E+04  0.10148693046E+04  0.00000000000E+00 0.  1.
         12    1    3    3    0    0 -0.13222451752E+02 -0.11143909884E+02 -0.75965216488E+02  0.77908498085E+02  0.00000000000E+00 0. -1.
         13    1    5    5    0    0 -0.16636426729E+03  0.13143640419E+02  0.62665278398E+03  0.64849328168E+03  0.00000000000E+00 0. -1.
        -14    1    5    5    0    0 -0.42060573174E+01  0.11292962488E+02  0.90207152405E+01  0.15053080195E+02  0.00000000000E+00 0.  1.
          5    1    4    4  501    0  0.51183784647E+02 -0.41548020323E+02 -0.45557962039E+02  0.80243492625E+02  0.41800000000E+01 0.  1.
         -5    1    4    4    0  501  0.17872320208E+03 -0.86301134277E+02  0.76266394295E+02  0.21265912639E+03  0.41800000000E+01 0.  1.
</event>
<event>
11    1  0.1423593E-008  0.2075862E+03  0.7561462E-02  0.1049285E+00
         22   -1    0    0    0    0  0.00000000000E+00  0.00000000000E+00  0.44995763642E+03  0.44995763642E+03  0.00000000000E+00 0. -1.
         22   -1    0    0    0    0 -0.00000000000E+00 -0.00000000000E+00 -0.13806707045E+04  0.13806707045E+04  0.00000000000E+00 0. -1.
        -24    2    1    2    0    0  0.12282546926E+02  0.13345692708E+03 -0.99444796310E+03  0.10066543764E+04  0.80403170191E+02 0.  0.
         25    2    1    2    0    0 -0.13844531944E+03 -0.23262480923E+03 -0.29714911849E+03  0.42098328256E+03  0.12509163533E+03 0.  0.
         24    2    1    2    0    0  0.12616277252E+03  0.99167882146E+02  0.36088401346E+03  0.40299068205E+03  0.80080613316E+02 0.  0.
        -13    1    5    5    0    0  0.37699994341E+02 -0.83857176275E+01  0.58758989143E+02  0.70315209155E+02  0.00000000000E+00 0.  1.
         14    1    5    5    0    0  0.88462778178E+02  0.10755359977E+03  0.30212502432E+03  0.33267547290E+03  0.00000000000E+00 0. -1.
         13    1    3    3    0    0  0.84864250242E+01  0.73781757238E+02 -0.79431412000E+03  0.79777859606E+03  0.00000000000E+00 0. -1.
        -14    1    3    3    0    0  0.37961219013E+01  0.59675169843E+02 -0.20013384310E+03  0.20887578029E+03  0.00000000000E+00 0.  1.
          5    1    4    4  501    0 -0.47938332204E+02 -0.15728620239E+03 -0.10361120371E+03  0.19439595441E+03  0.41800000000E+01 0.  1.
         -5    1    4    4    0  501 -0.90506987241E+02 -0.75338606833E+02 -0.19353791478E+03  0.22658732814E+03  0.41800000000E+01 0.  1.
</event>
<event>
11    1  0.8864208E-009  0.4149579E+03  0.7561462E-02  0.9606626E-01
         22   -1    0    0    0    0  0.00000000000E+00  0.00000000000E+00  0.30728472717E+03  0.30728472717E+03  0.00000000000E+00 0. -1.
         22   -1    0    0    0    0 -0.00000000000E+00 -0.00000000000E+00 -0.75856451193E+03  0.75856451193E+03  0.00000000000E+00 0.  1.
         24    2    1    2    0    0  0.13456799730E+03  0.35488942755E+03 -0.34695988750E+03  0.52033730418E+03  0.79465054673E+02 0.  0.
         25    2    1    2    0    0 -0.15302970631E+03 -0.40034237599E+03 -0.10393101629E+03  0.45841102910E+03  0.12508759502E+03 0.  0.
        -24    2    1    2    0    0  0.18461709016E+02  0.45452948448E+02 -0.38888097905E+00  0.87100905806E+02  0.71969516751E+02 0.  0.
        -11    1    3    3    0    0  0.13942486266E+03  0.28167728710E+03 -0.28602640433E+03  0.42496175165E+03  0.00000000000E+00 0.  1.
         12    1    3    3    0    0 -0.48568653595E+01  0.73212140445E+02 -0.60933483170E+02  0.95375552532E+02  0.00000000000E+00 0. -1.
         11    1    5    5    0    0  0.30997296100E+02  0.96835797019E+01  0.25424511643E+02  0.41243300955E+02  0.00000000000E+00 0. -1.
        -12    1    5    5    0    0 -0.12535587085E+02  0.35769368747E+02 -0.25813392622E+02  0.45857604852E+02  0.00000000000E+00 0.  1.
          5    1    4    4  501    0  0.20504196184E+02 -0.69658572331E+02 -0.11140825050E+02  0.73582125161E+02  0.41800000000E+01 0. -1.
         -5    1    4    4    0  501 -0.17353390250E+03 -0.33068380366E+03 -0.92790191238E+02  0.38482890394E+03  0.41800000000E+01 0. -1.
</event>
<event>
11    1  0.8864208E-009  0.2668070E+03  0.7561462E-02  0.1015308E+00
         22   -1    0    0    0    0  0.00000000000E+00  0.00000000000E+00  0.22284375778E+03  0.22284375778E+03  0.00000000000E+00 0.  1.
         22   -1    0    0    0    0 -0.00000000000E+00 -0.00000000000E+00 -0.62719505659E+03  0.62719505659E+03  0.00000000000E+00 0.  1.
        -24    2    1    2    0    0  0.49797283246E+02 -0.62864362893E+02 -0.13986438773E+03  0.17996658331E+03  0.79963908183E+02 0.  0.
         25    2    1    2    0    0 -0.65924031662E+02  0.28306641874E+03 -0.29519470456E+03  0.43273391845E+03  0.12508459221E+03 0.  0.
         24    2    1    2    0    0  0.16126748416E+02 -0.22020205585E+03  0.30707793482E+02  0.23733831261E+03  0.81470783937E+02 0.  0.
        -11    1    5    5    0    0  0.15356976814E+02 -0.22289371902E+03  0.17799619136E+02  0.22413003627E+03  0.00000000000E+00 0.  1.
         12    1    5    5    0    0  0.76977160165E+00  0.26916631696E+01  0.12908174346E+02  0.13208276340E+02  0.00000000000E+00 0. -1.
         13    1    3    3    0    0  0.66432025681E+01 -0.18102883102E+02  0.69749962394E+01  0.20506025687E+02  0.00000000000E+00 0. -1.
        -14    1    3    3    0    0  0.43154080678E+02 -0.44761479791E+02 -0.14683938397E+03  0.15946055762E+03  0.00000000000E+00 0.  1.
          5    1    4    4  501    0 -0.76395447560E+01  0.16942510637E+03 -0.23911869867E+03  0.29318672167E+03  0.41800000000E+01 0.  1.
         -5    1    4    4    0  501 -0.58284486906E+02  0.11364131238E+03 -0.56076005888E+02  0.13954719678E+03  0.41800000000E+01 0.  1.
</event>
<event>
11    1  0.8864208E-009  0.1525331E+03  0.7561462E-02  0.1094318E+00
         22   -1    0    0    0    0  0.00000000000E+00  0.00000000000E+00  0.10078176250E+04  0.10078176250E+04  0.00000000000E+00 0.  1.
         22   -1    0    0    0    0 -0.00000000000E+00 -0.00000000000E+00 -0.86151179895E+03  0.86151179895E+03  0.00000000000E+00 0.  1.
         24    2    1    2    0    0 -0.23842567388E+01  0.14680213262E+02 -0.82304678194E+03  0.82733968330E+03  0.82847769805E+02 0.  0.
         25    2    1    2    0    0 -0.64339861538E+02  0.43436505996E+02  0.13379669658E+03  0.19892582566E+03  0.12507429897E+03 0.  0.
        -24    2    1    2    0    0  0.66724118277E+02 -0.58116719258E+02  0.83555591143E+03  0.84306391501E+03  0.69089960473E+02 0.  0.
        -13    1    3    3    0    0 -0.37952513806E+02 -0.69434527980E+00 -0.57830281583E+03  0.57954725624E+03  0.00000000000E+00 0.  1.
         14    1    3    3    0    0  0.35568257067E+02  0.15374558541E+02 -0.24474396611E+03  0.24779242706E+03  0.00000000000E+00 0. -1.
         13    1    5    5    0    0  0.56847629132E+02 -0.37582371389E+02  0.32839352698E+03  0.33538991657E+03  0.00000000000E+00 0. -1.
        -14    1    5    5    0    0  0.98764891451E+01 -0.20534347869E+02  0.50716238446E+03  0.50767399844E+03  0.00000000000E+00 0.  1.
          5    1    4    4  501    0 -0.73857020836E+02  0.13187555410E+02  0.15949998609E+02  0.76815662466E+02  0.41800000000E+01 0. -1.
         -5    1    4    4    0  501  0.95171592975E+01  0.30248950586E+02  0.11784669798E+03  0.12211016320E+03  0.41800000000E+01 0. -1.
</event>
<event>
11    1  0.8864208E-009  0.2129236E+03  0.7561462E-02  0.1045743E+00
         22   -1    0    0    0    0  0.00000000000E+00  0.00000000000E+00  0.64885642955E+03  0.64885642955E+03  0.00000000000E+00 0. -1.
         22   -1    0    0    0    0 -0.00000000000E+00 -0.00000000000E+00 -0.50296296888E+03  0.50296296888E+03  0.00000000000E+00 0. -1.
         24    2    1    2    0    0  0.17123168291E+03 -0.96471794123E+00 -0.42255000676E+03  0.46292789066E+03  0.80202891643E+02 0.  0.
         25    2    1    2    0    0 -0.18407970929E+03 -0.89109124350E+01  0.16576602316E+03  0.27765246126E+03  0.12509105115E+03 0.  0.
        -24    2    1    2    0    0  0.12848026378E+02  0.98756303762E+01  0.40267744427E+03  0.41123904651E+03  0.81889128630E+02 0.  0.
        -13    1    3    3    0    0  0.25902020508E+01 -0.16864611526E+02 -0.66258229825E+02  0.68419860335E+02  0.00000000000E+00 0.  1.
         14    1    3    3    0    0  0.16864148086E+03  0.15899893585E+02 -0.35629177694E+03  0.39450803033E+03  0.00000000000E+00 0. -1.
         11    1    5    5    0    0  0.42636123150E+02  0.24747728618E+02  0.26883429118E+03  0.27331696834E+03  0.00000000000E+00 0. -1.
        -12    1    5    5    0    0 -0.29788096772E+02 -0.14872098242E+02  0.13384315310E+03  0.13792207817E+03  0.00000000000E+00 0.  1.
          5    1    4    4  501    0  0.14125649469E+02  0.13078851348E+02  0.31689366075E+02  0.37313250298E+02  0.41800000000E+01 0. -1.
         -5    1    4    4    0  501 -0.19820535876E+03 -0.21989763783E+02  0.13407665708E+03  0.24033921096E+03  0.41800000000E+01 0. -1.
</event>
<event>
11    1  0.8864208E-009  0.1363868E+03  0.7561462E-02  0.1111662E+00
         22   -1    0    0    0    0  0.00000000000E+00  0.00000000000E+00  0.52544248048E+03  0.52544248048E+03  0.00000000000E+00 0. -1.
         22   -1    0    0    0    0 -0.00000000000E+00 -0.00000000000E+00 -0.18200387950E+03  0.18200387950E+03  0.00000000000E+00 0.  1.
         24    2    1    2    0    0 -0.11423755278E+02  0.50911300616E+02 -0.89466503541E+02  0.13090755024E+03  0.80062904884E+02 0.  0.
         25    2    1    2    0    0 -0.45819977198E+01 -0.63745628965E+02  0.33830280036E+01  0.14051108775E+03  0.12508965179E+03 0.  0.
        -24    2    1    2    0    0  0.16005752997E+02  0.12834328349E+02  0.42952207651E+03  0.43602772200E+03  0.72180717833E+02 0.  0.
        -11    1    3    3    0    0  0.28505996439E+02  0.39705690429E+02 -0.26752120738E+02  0.55720818815E+02  0.00000000000E+00 0.  1.
         12    1    3    3    0    0 -0.39929751716E+02  0.11205610187E+02 -0.62714382803E+02  0.75186731424E+02  0.00000000000E+00 0. -1.
         13    1    5    5    0    0  0.42619601296E+02 -0.26700623303E+01  0.29145574359E+03  0.29456749672E+03  0.00000000000E+00 0. -1.
        -14    1    5    5    0    0 -0.26613848299E+02  0.15504390679E+02  0.13806633292E+03  0.14146022528E+03  0.00000000000E+00 0.  1.
          5    1    4    4  501    0 -0.47663538245E+02  0.12951057791E+02 -0.12267683301E+02  0.51063795682E+02  0.41800000000E+01 0.  1.
         -5    1    4    4    0  501  0.43081540525E+02 -0.76696686755E+02  0.15650711305E+02  0.89447292064E+02  0.41800000000E+01 0.  1.
</event>
<event>
11    1  0.8864208E-009  0.2530019E+03  0.7561462E-02  0.1022312E+00
         22   -1    0    0    0    0  0.00000000000E+00  0.00000000000E+00  0.29560247123E+03  0.29560247123E+03  0.00000000000E+00 0. -1.
         22   -1    0    0    0    0 -0.00000000000E+00 -0.00000000000E+00 -0.77965189501E+03  0.77965189501E+03  0.00000000000E+00 0.  1.
         24    2    1    2    0    0  0.95287479567E+01  0.84894069611E+02 -0.49998146870E+03  0.51355577839E+03  0.80375794711E+02 0.  0.
         25    2    1    2    0    0 -0.13890621422E+03 -0.24086770075E+03 -0.96260563534E+02  0.31972754451E+03  0.12508965191E+03 0.  0.
        -24    2    1    2    0    0  0.12937746626E+03  0.15597363114E+03  0.11219260845E+03  0.24197104334E+03  0.69975010104E+02 0.  0.
        -13    1    3    3    0    0  0.75563245626E+00  0.99346817790E+02 -0.39990001256E+03  0.41205628406E+03  0.00000000000E+00 0.  1.
         14    1    3    3    0    0  0.87731155004E+01 -0.14452748179E+02 -0.10008145614E+03  0.10149949433E+03  0.00000000000E+00 0. -1.
         13    1    5    5    0    0  0.12829494430E+03  0.11221142539E+03  0.85324125639E+02  0.19060745825E+03  0.00000000000E+00 0. -1.
        -14    1    5    5    0    0  0.10825219558E+01  0.43762205744E+02  0.26868482810E+02  0.51363585096E+02  0.00000000000E+00 0.  1.
          5    1    4    4  501    0  0.10471084474E+02 -0.95446810291E+02 -0.24173590934E+02  0.99103845049E+02  0.41800000000E+01 0.  1.
         -5    1    4    4    0  501 -0.14937729869E+03 -0.14542089046E+03 -0.72086972600E+02  0.22062369946E+03  0.41800000000E+01 0.  1.
</event>
<event>
11    1  0.8864208E-009  0.1505414E+03  0.7561462E-02  0.1096327E+00
         22   -1    0    0    0    0  0.00000000000E+00  0.00000000000E+00  0.49175581789E+03  0.49175581789E+03  0.00000000000E+00 0.  1.
         22   -1    0    0    0    0 -0.00000000000E+00 -0.00000000000E+00 -0.18813168746E+04  0.18813168746E+04  0.00000000000E+00 0.  1.
        -24    2    1    2    0    0  0.86177744197E+02  0.28136643184E+01 -0.16049013557E+04  0.16091997550E+04  0.79880970420E+02 0.  0.
         25    2    1    2    0    0 -0.60408758475E+02 -0.31423609358E+02 -0.24900170503E+03  0.28685839433E+03  0.12509687432E+03 0.  0.
         24    2    1    2    0    0 -0.25768985722E+02  0.28609945039E+02  0.46434200403E+03  0.47701454322E+03  0.10220962848E+03 0.  0.
        -13    1    5    5    0    0 -0.20332010007E+02  0.66718022544E+02  0.26745729494E+03  0.27640204373E+03  0.00000000000E+00 0.  1.
         14    1    5    5    0    0 -0.54369757153E+01 -0.38108077505E+02  0.19688470909E+03  0.20061249948E+03  0.00000000000E+00 0. -1.
         13    1    3    3    0    0 -0.20363212464E+01  0.23161031130E+02 -0.52332038519E+03  0.52383662102E+03  0.00000000000E+00 0. -1.
        -14    1    3    3    0    0  0.88214065443E+02 -0.20347366812E+02 -0.10815809705E+04  0.10853631339E+04  0.00000000000E+00 0.  1.
          5    1    4    4  501    0 -0.84019351554E+02 -0.89161620182E+01 -0.86226023897E+02  0.12079382839E+03  0.41800000000E+01 0. -1.
         -5    1    4    4    0  501  0.23610593079E+02 -0.22507447339E+02 -0.16277568114E+03  0.16606456594E+03  0.41800000000E+01 0. -1.
</event>
<event>
11    1  0.8864208E-009  0.1567534E+03  0.7561462E-02  0.1090171E+00
         22   -1    0    0    0    0  0.00000000000E+00  0.00000000000E+00  0.60256637176E+03  0.60256637176E+03  0.00000000000E+00 0. -1.
         22   -1    0    0    0    0 -0.00000000000E+00 -0.00000000000E+00 -0.52042886993E+03  0.52042886993E+03  0.00000000000E+00 0. -1.
         24    2    1    2    0    0  0.82678985324E+02 -0.52264057456E+02 -0.47634337013E+03  0.49305171171E+03  0.81422588029E+02 0.  0.
         25    2    1    2    0    0 -0.39149688137E+02  0.61802352161E+01  0.11535021797E+03  0.17470930538E+03  0.12508707052E+03 0.  0.
        -24    2    1    2    0    0 -0.43529297188E+02  0.46083822240E+02  0.44313065398E+03  0.45523422460E+03  0.82794349799E+02 0.  0.
        -11    1    3    3    0    0  0.37847613675E+02 -0.24460054654E+02 -0.69687799205E+02  0.82988707019E+02  0.00000000000E+00 0.  1.
         12    1    3    3    0    0  0.44831371650E+02 -0.27804002802E+02 -0.40665557092E+03  0.41006300470E+03  0.00000000000E+00 0. -1.
         11    1    5    5    0    0 -0.60060883382E+02  0.28309813013E+02  0.19656532610E+03  0.20747694486E+03  0.00000000000E+00 0. -1.
        -12    1    5    5    0    0  0.16531586195E+02  0.17774009227E+02  0.24656532788E+03  0.24775727973E+03  0.00000000000E+00 0.  1.
          5    1    4    4  501    0 -0.54446207641E+02 -0.26890502084E+02  0.81534953526E+01  0.61412055130E+02  0.41800000000E+01 0. -1.
         -5    1    4    4    0  501  0.15296519505E+02  0.33070737301E+02  0.10719672262E+03  0.11329725025E+03  0.41800000000E+01 0. -1.
</event>
<event>
11    1  0.8864208E-009  0.1979903E+03  0.7561462E-02  0.1055954E+00
         22   -1    0    0    0    0  0.00000000000E+00  0.00000000000E+00  0.16123380184E+03  0.16123380184E+03  0.00000000000E+00 0. -1.
         22   -1    0    0    0    0 -0.00000000000E+00 -0.00000000000E+00 -0.87242549921E+03  0.87242549921E+03  0.00000000000E+00 0.  1.
        -24    2    1    2    0    0  0.14875439832E+03 -0.43072139884E+02 -0.72043196382E+03  0.74131593043E+03  0.80895079976E+02 0.  0.
         25    2    1    2    0    0 -0.11781764614E+03  0.94964653412E+02 -0.48909011128E+01  0.19639358301E+03  0.12508890996E+03 0.  0.
         24    2    1    2    0    0 -0.30936752178E+02 -0.51892513528E+02  0.14131167557E+02  0.95949787609E+02  0.73189864394E+02 0.  0.
        -11    1    5    5    0    0 -0.54178037225E+02 -0.45245014776E+02  0.12822607157E+02  0.71741134184E+02  0.00000000000E+00 0.  1.
         12    1    5    5    0    0  0.23241285047E+02 -0.66474987512E+01  0.13085604006E+01  0.24208653424E+02  0.00000000000E+00 0. -1.
         11    1    3    3    0    0  0.68710166089E+01  0.14480111506E+02 -0.14424057317E+03  0.14512831373E+03  0.00000000000E+00 0. -1.
        -12    1    3    3    0    0  0.14188338171E+03 -0.57552251390E+02 -0.57619139065E+03  0.59618761670E+03  0.00000000000E+00 0.  1.
          5    1    4    4  501    0 -0.82596268369E+02  0.24760066971E+02 -0.55714950957E+02  0.10274644824E+03  0.41800000000E+01 0. -1.
         -5    1    4    4    0  501 -0.35221377774E+02  0.70204586440E+02  0.50824049844E+02  0.93647134778E+02  0.41800000000E+01 0. -1.
</event>
<event>
11    1  0.8864208E-009  0.1732357E+03  0.7561462E-02  0.1075250E+00
         22   -1    0    0    0    0  0.00000000000E+00  0.00000000000E+00  0.19688530707E+04  0.19688530707E+04  0.00000000000E+00 0. -1.
         22   -1    0    0    0    0 -0.00000000000E+00 -0.00000000000E+00 -0.59556766068E+03  0.59556766068E+03  0.00000000000E+00 0. -1.
        -24    2    1    2    0    0  0.45891511642E+00 -0.25929312689E+02 -0.47132022517E+03  0.47889039769E+03  0.80750965865E+02 0.  0.
         25    2    1    2    0    0 -0.90997615959E+02  0.10386884181E+03 -0.44033163010E+02  0.19145107764E+03  0.12508114676E+03 0.  0.
         24    2    1    2    0    0  0.90538700843E+02 -0.77939529122E+02  0.18886387982E+04  0.18940792560E+04  0.79422236222E+02 0.  0.
        -11    1    5    5    0    0  0.86888857965E+02 -0.43319306768E+02  0.98577882465E+03  0.99054839716E+03  0.00000000000E+00 0.  1.
         12    1    5    5    0    0  0.36498428773E+01 -0.34620222354E+02  0.90285997353E+03  0.90353085889E+03  0.00000000000E+00 0. -1.
         13    1    3    3    0    0 -0.14641700861E+01 -0.36212056401E+02 -0.46552070753E+03  0.46692931581E+03  0.00000000000E+00 0. -1.
        -14    1    3    3    0    0  0.19230852025E+01  0.10282743712E+02 -0.57995176386E+01  0.11961081882E+02  0.00000000000E+00 0.  1.
          5    1    4    4  501    0 -0.76434673662E+02  0.12079387046E+03 -0.12508294517E+01  0.14301208149E+03  0.41800000000E+01 0.  1.
         -5    1    4    4    0  501 -0.14562942297E+02 -0.16925028648E+02 -0.42782333558E+02  0.48438996147E+02  0.41800000000E+01 0.  1.
</event>
<event>
11    1  0.8864208E-009  0.1384334E+03  0.7561462E-02  0.1109320E+00
         22   -1    0    0    0    0  0.00000000000E+00  0.00000000000E+00  0.51365061079E+03  0.51365061079E+03  0.00000000000E+00 0.  1.
         22   -1    0    0    0    0 -0.00000000000E+00 -0.00000000000E+00 -0.24700303018E+03  0.24700303018E+03  0.00000000000E+00 0. -1.
        -24    2    1    2    0    0 -0.45310481345E+02 -0.30015101984E+02 -0.12573784954E+03  0.15715802702E+03  0.77036955942E+02 0.  0.
         25    2    1    2    0    0  0.45968451065E+02  0.65585052435E+02 -0.46912036591E+02  0.15578854736E+03  0.12511928195E+03 0.  0.
         24    2    1    2    0    0 -0.65796972020E+00 -0.35569950451E+02  0.43929746675E+03  0.44770706659E+03  0.78700056460E+02 0.  0.
        -11    1    5    5    0    0  0.16992244391E+02 -0.15539591544E+02  0.39714137815E+03  0.39780835777E+03  0.00000000000E+00 0.  1.
         12    1    5    5    0    0 -0.17650214111E+02 -0.20030358908E+02  0.42156088602E+02  0.49898708825E+02  0.00000000000E+00 0. -1.
         13    1    3    3    0    0 -0.42119525530E+02 -0.43342554572E+02 -0.12953261394E+03  0.14293820183E+03  0.00000000000E+00 0. -1.
        -14    1    3    3    0    0 -0.31909558148E+01  0.13327452588E+02  0.37947643979E+01  0.14219825186E+02  0.00000000000E+00 0.  1.
          5    1    4    4  501    0  0.14327172647E+02  0.64763967709E+02  0.29695950590E+02  0.72793964523E+02  0.41800000000E+01 0.  1.
         -5    1    4    4    0  501  0.31641278418E+02  0.82108472541E+00 -0.76607987181E+02  0.82994582835E+02  0.41800000000E+01 0.  1.
</event>
<event>
11    1  0.8864208E-009  0.1337387E+03  0.7561462E-02  0.1114759E+00
         22   -1    0    0    0    0  0.00000000000E+00  0.00000000000E+00  0.19152736510E+03  0.19152736510E+03  0.00000000000E+00 0.  1.
         22   -1    0    0    0    0 -0.00000000000E+00 -0.00000000000E+00 -0.47655406116E+03  0.47655406116E+03  0.00000000000E+00 0. -1.
         24    2    1    2    0    0 -0.25717527181E+02 -0.18616890666E+02 -0.39471693972E+03  0.40402579222E+03  0.80171057426E+02 0.  0.
         25    2    1    2    0    0 -0.27435795076E+02  0.38471816430E+01  0.15975584835E+02  0.12911425936E+03  0.12509096291E+03 0.  0.
        -24    2    1    2    0    0  0.53153322257E+02  0.14769709023E+02  0.93714658834E+02  0.13494137468E+03  0.79895665399E+02 0.  0.
        -13    1    3    3    0    0 -0.49940188574E+02  0.70025936536E+01 -0.20959518844E+03  0.21557644067E+03  0.00000000000E+00 0.  1.
         14    1    3    3    0    0  0.24222661392E+02 -0.25619484320E+02 -0.18512175128E+03  0.18844935155E+03  0.00000000000E+00 0. -1.
         13    1    5    5    0    0 -0.20536304443E+01  0.36428095565E+02  0.46697292530E+02  0.59260954043E+02  0.00000000000E+00 0. -1.
        -14    1    5    5    0    0  0.55206952702E+02 -0.21658386542E+02  0.47017366305E+02  0.75680420641E+02  0.00000000000E+00 0.  1.
          5    1    4    4  501    0 -0.74248867972E+02  0.20101832858E+02  0.18824220454E+02  0.79301965645E+02  0.41800000000E+01 0.  1.
         -5    1    4    4    0  501  0.46813072896E+02 -0.16254651215E+02 -0.28486356195E+01  0.49812293714E+02  0.41800000000E+01 0.  1.
</event>
<event>
11    1  0.8864208E-009  0.1838178E+03  0.7561462E-02  0.1066596E+00
         22   -1    0    0    0    0  0.00000000000E+00  0.00000000000E+00  0.94433177343E+03  0.94433177343E+03  0.00000000000E+00 0.  1.
         22   -1    0    0    0    0 -0.00000000000E+00 -0.00000000000E+00 -0.40595770681E+03  0.40595770681E+03  0.00000000000E+00 0.  1.
        -24    2    1    2    0    0  0.13669374201E+03 -0.11401683594E+02 -0.31613484567E+03  0.35345922657E+03  0.78593935547E+02 0.  0.
         25    2    1    2    0    0 -0.12086524125E+03 -0.47581064235E+01  0.40229658217E+02  0.17859638944E+03  0.12508876369E+03 0.  0.
         24    2    1    2    0    0 -0.15828500763E+02  0.16159790018E+02  0.81427925408E+03  0.81823386424E+03  0.77099109696E+02 0.  0.
        -13    1    5    5    0    0 -0.30780873045E+02 -0.84417768915E+01  0.68692848293E+03  0.68766959101E+03  0.00000000000E+00 0.  1.
         14    1    5    5    0    0  0.14952372282E+02  0.24601566909E+02  0.12735077115E+03  0.13056427323E+03  0.00000000000E+00 0. -1.
         13    1    3    3    0    0  0.60766871140E+02 -0.35426643117E+02 -0.93458985234E+02  0.11697111435E+03  0.00000000000E+00 0. -1.
        -14    1    3    3    0    0  0.75926870872E+02  0.24024959523E+02 -0.22267586043E+03  0.23648811222E+03  0.00000000000E+00 0.  1.
          5    1    4    4  501    0 -0.13160963031E+03 -0.33490659000E+02  0.11489202724E+02  0.13635319288E+03  0.41800000000E+01 0. -1.
         -5    1    4    4    0  501  0.10744389058E+02  0.28732552576E+02  0.28740455492E+02  0.42243196561E+02  0.41800000000E+01 0. -1.
</event>
<event>
11    1  0.8864208E-009  0.1625832E+03  0.7561462E-02  0.1084673E+00
         22   -1    0    0    0    0  0.00000000000E+00  0.00000000000E+00  0.36052030320E+03  0.36052030320E+03  0.00000000000E+00 0. -1.
         22   -1    0    0    0    0 -0.00000000000E+00 -0.00000000000E+00 -0.55467170874E+03  0.55467170874E+03  0.00000000000E+00 0.  1.
        -24    2    1    2    0    0  0.63212519903E+02  0.80813230858E+02 -0.44153182437E+03  0.46072062119E+03  0.82380446119E+02 0.  0.
         25    2    1    2    0    0 -0.10378658597E+03 -0.62616391047E+02 -0.16426620767E+02  0.17495614935E+03  0.12508937792E+03 0.  0.
         24    2    1    2    0    0  0.40574066066E+02 -0.18196839810E+02  0.26380703961E+03  0.27951524140E+03  0.80976763429E+02 0.  0.
        -13    1    5    5    0    0  0.62829239911E+01  0.31405083950E+02  0.86993055089E+02  0.92701381142E+02  0.00000000000E+00 0.  1.
         14    1    5    5    0    0  0.34291142075E+02 -0.49601923761E+02  0.17681398452E+03  0.18681386026E+03  0.00000000000E+00 0. -1.
         11    1    3    3    0    0  0.68847096401E+02  0.22756623211E+02 -0.22018055705E+03  0.23181299421E+03  0.00000000000E+00 0. -1.
        -12    1    3    3    0    0 -0.56345764984E+01  0.58056607646E+02 -0.22135126732E+03  0.22890762698E+03  0.00000000000E+00 0.  1.
          5    1    4    4  501    0 -0.16977107123E+02 -0.36532515359E+02  0.48643234775E+02  0.63296789288E+02  0.41800000000E+01 0.  1.
         -5    1    4    4    0  501 -0.86809478845E+02 -0.26083875689E+02 -0.65069855542E+02  0.11165936006E+03  0.41800000000E+01 0.  1.
</event>
<event>
11    1  0.8864208E-009  0.1968603E+03  0.7561462E-02  0.1056766E+00
         22   -1    0    0    0    0  0.00000000000E+00  0.00000000000E+00  0.45723561911E+03  0.45723561911E+03  0.00000000000E+00 0. -1.
         22   -1    0    0    0    0 -0.00000000000E+00 -0.00000000000E+00 -0.24679566856E+03  0.24679566856E+03  0.00000000000E+00 0. -1.
        -24    2    1    2    0    0  0.12448664115E+03  0.10980262446E+03 -0.11149559214E+03  0.21539041332E+03  0.80051376754E+02 0.  0.
         25    2    1    2    0    0 -0.82659900253E+02 -0.94134870480E+02  0.25241389164E+02  0.17882546040E+03  0.12508950640E+03 0.  0.
         24    2    1    2    0    0 -0.41826740896E+02 -0.15667753978E+02  0.29669415352E+03  0.30981541396E+03  0.77221857141E+02 0.  0.
        -11    1    5    5    0    0  0.10027871663E+02 -0.32996283376E+02  0.11978507640E+03  0.12465062156E+03  0.00000000000E+00 0.  1.
         12    1    5    5    0    0 -0.51854612558E+02  0.17328529397E+02  0.17690907712E+03  0.18516479239E+03  0.00000000000E+00 0. -1.
         13    1    3    3    0    0  0.33143824488E+02 -0.79526078382E+01 -0.30680618002E+02  0.45859103721E+02  0.00000000000E+00 0. -1.
        -14    1    3    3    0    0  0.91342816660E+02  0.11775523230E+03 -0.80814974134E+02  0.16953130959E+03  0.00000000000E+00 0.  1.
          5    1    4    4  501    0 -0.70741683777E+02  0.10501713393E+02  0.10170430502E+02  0.72357320738E+02  0.41800000000E+01 0.  1.
         -5    1    4    4    0  501 -0.11918216476E+02 -0.10463658387E+03  0.15070958662E+02  0.10646813966E+03  0.41800000000E+01 0.  1.
</event>
<event>
11    1  0.8864208E-009  0.1730775E+03  0.7561462E-02  0.1075384E+00
         22   -1    0    0    0    0  0.00000000000E+00  0.00000000000E+00  0.17469252897E+04  0.17469252897E+04  0.00000000000E+00 0. -1.
         22   -1    0    0    0    0 -0.00000000000E+00 -0.00000000000E+00 -0.41126655710E+03  0.41126655710E+03  0.00000000000E+00 0.  1.
        -24    2    1    2    0    0  0.15864851474E+01  0.12101459460E+03 -0.36936279517E+03  0.39726671588E+03  0.82127462191E+02 0.  0.
         25    2    1    2    0    0  0.26627998778E+02 -0.95606121079E+02  0.21294410190E+03  0.26616263203E+03  0.12509106862E+03 0.  0.
         24    2    1    2    0    0 -0.28214483926E+02 -0.25408473526E+02  0.14920774259E+04  0.14947624989E+04  0.81106323207E+02 0.  0.
        -11    1    5    5    0    0 -0.52480111768E+02 -0.13128614687E+02  0.12485141901E+04  0.12496856427E+04  0.00000000000E+00 0.  1.
         12    1    5    5    0    0  0.24265627842E+02 -0.12279858839E+02  0.24356323582E+03  0.24507685625E+03  0.00000000000E+00 0. -1.
         11    1    3    3    0    0  0.16257451485E+01 -0.52273912448E+01 -0.96062892848E+02  0.96218751025E+02  0.00000000000E+00 0. -1.
        -12    1    3    3    0    0 -0.39260001113E-01  0.12624198585E+03 -0.27329990232E+03  0.30104796485E+03  0.00000000000E+00 0.  1.
          5    1    4    4  501    0 -0.41372149997E+02 -0.15600471429E+01  0.39109802081E+02  0.57106370584E+02  0.41800000000E+01 0. -1.
         -5    1    4    4    0  501  0.68000148776E+02 -0.94046073936E+02  0.17383429982E+03  0.20905626144E+03  0.41800000000E+01 0. -1.
</event>
<event>
11    1  0.8864208E-009  0.2481940E+03  0.7561462E-02  0.1024866E+00
         22   -1    0    0    0    0  0.00000000000E+00  0.00000000000E+00  0.98388412865E+03  0.98388412865E+03  0.00000000000E+00 0. -1.
         22   -1    0    0    0    0 -0.00000000000E+00 -0.00000000000E+00 -0.99154426799E+02  0.99154426799E+02  0.00000000000E+00 0. -1.
         24    2    1    2    0    0  0.20500517060E+03  0.78298560391E+02  0.15864754789E+03  0.28190831349E+03  0.78393036857E+02 0.  0.
         25    2    1    2    0    0 -0.16910240726E+03 -0.11592794247E+03  0.56324341145E+03  0.61231200446E+03  0.12509171946E+03 0.  0.
        -24    2    1    2    0    0 -0.35902763337E+02  0.37629382081E+02  0.16283874251E+03  0.18881823750E+03  0.80192842206E+02 0.  0.
        -13    1    3    3    0    0  0.43178766736E+02 -0.10772268275E+02  0.12102637524E+02  0.46118559124E+02  0.00000000000E+00 0.  1.
         14    1    3    3    0    0  0.16182640386E+03  0.89070828666E+02  0.14654491037E+03  0.23578975436E+03  0.00000000000E+00 0. -1.
         13    1    5    5    0    0 -0.13854781209E+02 -0.23769175605E+02  0.71196275129E+02  0.76327179062E+02  0.00000000000E+00 0. -1.
        -14    1    5    5    0    0 -0.22047982128E+02  0.61398557686E+02  0.91642467379E+02  0.11249105844E+03  0.00000000000E+00 0.  1.
          5    1    4    4  501    0 -0.12217133968E+03 -0.48927432364E+02  0.19652258844E+03  0.23655513108E+03  0.41800000000E+01 0. -1.
         -5    1    4    4    0  501 -0.46931067586E+02 -0.67000510108E+02  0.36672082301E+03  0.37575687338E+03  0.41800000000E+01 0. -1.
</event>
<event>
11    1  0.8864208E-009  0.1422797E+03  0.7561462E-02  0.1105039E+00
         22   -1    0    0    0    0  0.00000000000E+00  0.00000000000E+00  0.34534184178E+04  0.34534184178E+04  0.00000000000E+00 0. -1.
         22   -1    0    0    0    0 -0.00000000000E+00 -0.00000000000E+00 -0.17374411763E+03  0.17374411763E+03  0.00000000000E+00 0. -1.
         24    2    1    2    0    0  0.24568343350E+02 -0.11032564942E+02 -0.15647075233E+03  0.17782470518E+03  0.80082510274E+02 0.  0.
         25    2    1    2    0    0  0.25512273949E+02  0.59038132975E+02  0.89674488993E+03  0.90770853965E+03  0.12508804126E+03 0.  0.
        -24    2    1    2    0    0 -0.50080617299E+02 -0.48005568033E+02  0.25394001625E+04  0.25416292906E+04  0.80707264000E+02 0.  0.
        -13    1    3    3    0    0  0.49060202859E+02  0.61785584216E+01 -0.65589759906E+02  0.82140700589E+02  0.00000000000E+00 0.  1.
         14    1    3    3    0    0 -0.24491859509E+02 -0.17211123364E+02 -0.90880992425E+02  0.95684004587E+02  0.00000000000E+00 0. -1.
         13    1    5    5    0    0 -0.53404442247E+02 -0.23385068474E+02  0.23345898454E+04  0.23353176747E+04  0.00000000000E+00 0. -1.
        -14    1    5    5    0    0  0.33238249477E+01 -0.24620499559E+02  0.20481031719E+03  0.20631161586E+03  0.00000000000E+00 0.  1.
          5    1    4    4  501    0  0.35555438479E+02  0.81802905150E+02  0.38008902401E+03  0.39043698988E+03  0.41800000000E+01 0.  1.
         -5    1    4    4    0  501 -0.10043164530E+02 -0.22764772175E+02  0.51665586592E+03  0.51727154976E+03  0.41800000000E+01 0.  1.
</event>
<event>
11    1  0.8864208E-009  0.2915097E+03  0.7561462E-02  0.1003850E+00
         22   -1    0    0    0    0  0.00000000000E+00  0.00000000000E+00  0.12821233882E+04  0.12821233882E+04  0.00000000000E+00 0.  1.
         22   -1    0    0    0    0 -0.00000000000E+00 -0.00000000000E+00 -0.18512620967E+03  0.18512620967E+03  0.00000000000E+00 0. -1.
         24    2    1    2    0    0 -0.12605226864E+01 -0.24587853828E+03  0.24862907501E+02  0.26309741159E+03  0.90245439280E+02 0.  0.
         25    2    1    2    0    0  0.76061513852E+02  0.32684131949E+03  0.48765122931E+03  0.60503101281E+03  0.12509277757E+03 0.  0.
        -24    2    1    2    0    0 -0.74800991165E+02 -0.80962781210E+02  0.58448304171E+03  0.59912117346E+03  0.71941602856E+02 0.  0.
        -11    1    3    3    0    0  0.25400290687E+02 -0.15135565505E+02  0.83290120135E+00  0.29579618567E+02  0.00000000000E+00 0.  1.
         12    1    3    3    0    0 -0.26660813373E+02 -0.23074297278E+03  0.24030006300E+02  0.23351779302E+03  0.00000000000E+00 0. -1.
         13    1    5    5    0    0 -0.24864394037E+02 -0.14451058715E+02  0.33304371791E+03  0.33428309743E+03  0.00000000000E+00 0. -1.
        -14    1    5    5    0    0 -0.49936597128E+02 -0.66511722495E+02  0.25143932380E+03  0.26483807603E+03  0.00000000000E+00 0.  1.
          5    1    4    4  501    0  0.14269834914E+02  0.22539638459E+03  0.23576812894E+03  0.32651376908E+03  0.41800000000E+01 0.  1.
         -5    1    4    4    0  501  0.61791678938E+02  0.10144493490E+03  0.25188310038E+03  0.27851724374E+03  0.41800000000E+01 0.  1.
</event>
<event>
11    1  0.8864208E-009  0.1503155E+03  0.7561462E-02  0.1096557E+00
         22   -1    0    0    0    0  0.00000000000E+00  0.00000000000E+00  0.10015692292E+03  0.10015692292E+03  0.00000000000E+00 0. -1.
         22   -1    0    0    0    0 -0.00000000000E+00 -0.00000000000E+00 -0.15447132572E+04  0.15447132572E+04  0.00000000000E+00 0.  1.
         24    2    1    2    0    0  0.68123071121E+02 -0.56570390242E+02 -0.13786438303E+04  0.13838248767E+04  0.80445737466E+02 0.  0.
         25    2    1    2    0    0 -0.15230223214E+02 -0.43457774284E+01 -0.70370482588E+02  0.14439862958E+03  0.12509242153E+03 0.  0.
        -24    2    1    2    0    0 -0.52892847907E+02  0.60916167671E+02  0.44579786017E+01  0.11664667385E+03  0.84131683114E+02 0.  0.
        -13    1    3    3    0    0  0.77361478938E+02 -0.30390559157E+02 -0.12152722241E+04  0.12181112278E+04  0.00000000000E+00 0.  1.
         14    1    3    3    0    0 -0.92384078164E+01 -0.26179831086E+02 -0.16337160619E+03  0.16571364894E+03  0.00000000000E+00 0. -1.
         11    1    5    5    0    0  0.13824106940E+01  0.49174560745E+02  0.27690469414E+02  0.56451843019E+02  0.00000000000E+00 0. -1.
        -12    1    5    5    0    0 -0.54275258601E+02  0.11741606926E+02 -0.23232490812E+02  0.60194830831E+02  0.00000000000E+00 0.  1.
          5    1    4    4  501    0 -0.29159069046E+02 -0.49601522778E+02 -0.77202114050E+02  0.96375314180E+02  0.41800000000E+01 0.  1.
         -5    1    4    4    0  501  0.13928845831E+02  0.45255745350E+02  0.68316314614E+01  0.48023315398E+02  0.41800000000E+01 0.  1.
</event>
<event>
11    1  0.8864208E-009  0.1269186E+03  0.7561462E-02  0.1123114E+00
         22   -1    0    0    0    0  0.00000000000E+00  0.00000000000E+00  0.92426787554E+03  0.92426787554E+03  0.00000000000E+00 0. -1.
         22   -1    0    0    0    0 -0.00000000000E+00 -0.00000000000E+00 -0.12194576776E+04  0.12194576776E+04  0.00000000000E+00 0. -1.
        -24    2    1    2    0    0  0.19846031883E+02  0.89821695775E+01 -0.11899244969E+04  0.11928499136E+04  0.80598161530E+02 0.  0.
         25    2    1    2    0    0  0.77630506232E+01  0.50660780713E+01  0.12627196443E+03  0.17798053314E+03  0.12508609464E+03 0.  0.
         24    2    1    2    0    0 -0.27609082507E+02 -0.14048247649E+02  0.76846273041E+03  0.77289510642E+03  0.76630691037E+02 0.  0.
        -13    1    5    5    0    0 -0.43830191291E+02  0.71802966968E+01  0.26276944289E+03  0.26649657117E+03  0.00000000000E+00 0.  1.
         14    1    5    5    0    0  0.16221108784E+02 -0.21228544346E+02  0.50569328751E+03  0.50639853525E+03  0.00000000000E+00 0. -1.
         13    1    3    3    0    0 -0.18181609074E+02 -0.73960826791E+01 -0.87440826075E+03  0.87462853796E+03  0.00000000000E+00 0. -1.
        -14    1    3    3    0    0  0.38027640958E+02  0.16378252257E+02 -0.31551623617E+03  0.31822137563E+03  0.00000000000E+00 0.  1.
          5    1    4    4  501    0 -0.56887001925E+02 -0.45952075669E+01  0.77393052219E+02  0.96251773242E+02  0.41800000000E+01 0.  1.
         -5    1    4    4    0  501  0.64650052548E+02  0.96612856382E+01  0.48878912215E+02  0.81728759895E+02  0.41800000000E+01 0.  1.
</event>
<event>
11    1  0.8864208E-009  0.1858674E+03  0.7561462E-02  0.1064993E+00
         22   -1    0    0    0    0  0.00000000000E+00  0.00000000000E+00  0.26625293344E+03  0.26625293344E+03  0.00000000000E+00 0. -1.
         22   -1    0    0    0    0 -0.00000000000E+00 -0.00000000000E+00 -0.16211790583E+04  0.16211790583E+04  0.00000000000E+00 0. -1.
        -24    2    1    2    0    0  0.78456043785E+02  0.30192751939E+02 -0.14939410038E+04  0.14986376874E+04  0.83595705764E+02 0.  0.
         25    2    1    2    0    0 -0.16794644324E+03 -0.86901981745E+02  0.88839059164E+02  0.24351028108E+03  0.12508763460E+03 0.  0.
         24    2    1    2    0    0  0.89490399455E+02  0.56709229806E+02  0.50175819803E+02  0.14528402329E+03  0.85821711652E+02 0.  0.
        -11    1    5    5    0    0  0.18712652327E+02 -0.21381001459E+02 -0.32929834211E+00  0.28415119529E+02  0.00000000000E+00 0.  1.
         12    1    5    5    0    0  0.70777747128E+02  0.78090231265E+02  0.50505118145E+02  0.11686890376E+03  0.00000000000E+00 0. -1.
         13    1    3    3    0    0  0.80212023556E+02 -0.36305344076E+01 -0.12145654504E+04  0.12172166540E+04  0.00000000000E+00 0. -1.
        -14    1    3    3    0    0 -0.17559797714E+01  0.33823286346E+02 -0.27937555344E+03  0.28142103337E+03  0.00000000000E+00 0.  1.
          5    1    4    4  501    0 -0.10364448384E+03 -0.50269622027E+02 -0.14670982776E+02  0.11619777995E+03  0.41800000000E+01 0.  1.
         -5    1    4    4    0  501 -0.64301959400E+02 -0.36632359718E+02  0.10351004194E+03  0.12731250113E+03  0.41800000000E+01 0.  1.
</event>
<event>
11    1  0.8864208E-009  0.1296341E+03  0.7561462E-02  0.1119719E+00
         22   -1    0    0    0    0  0.00000000000E+00  0.00000000000E+00  0.20821507271E+03  0.20821507271E+03  0.00000000000E+00 0. -1.
         22   -1    0    0    0    0 -0.00000000000E+00 -0.00000000000E+00 -0.91995722052E+03  0.91995722052E+03  0.00000000000E+00 0.  1.
        -24    2    1    2    0    0  0.22467940797E+01 -0.89460655358E+01 -0.82572067651E+03  0.82977352722E+03  0.81390359950E+02 0.  0.
         25    2    1    2    0    0  0.24693893874E+01  0.41515177955E+02 -0.26053374706E+02  0.13437222747E+03  0.12509000478E+03 0.  0.
         24    2    1    2    0    0 -0.47161834671E+01 -0.32569112420E+02  0.14003190341E+03  0.16402653855E+03  0.78821202134E+02 0.  0.
        -13    1    5    5    0    0  0.26033733192E+02  0.12644388107E+02  0.65305867594E+02  0.71431730741E+02  0.00000000000E+00 0.  1.
         14    1    5    5    0    0 -0.30749916659E+02 -0.45213500527E+02  0.74726035814E+02  0.92594807808E+02  0.00000000000E+00 0. -1.
         13    1    3    3    0    0  0.20349233151E+01 -0.34935419464E+02 -0.17135199917E+03  0.17488891350E+03  0.00000000000E+00 0. -1.
        -14    1    3    3    0    0  0.21187076459E+00  0.25989353929E+02 -0.65436867733E+03  0.65488461372E+03  0.00000000000E+00 0.  1.
          5    1    4    4  501    0  0.41220859936E+02  0.42064836845E+02 -0.58899853785E+02  0.83398291161E+02  0.41800000000E+01 0.  1.
         -5    1    4    4    0  501 -0.38751470549E+02 -0.54965888928E+00  0.32846479079E+02  0.50973936305E+02  0.41800000000E+01 0.  1.
</event>
<event>
11    1  0.8864208E-009  0.1364544E+03  0.7561462E-02  0.1111584E+00
         22   -1    0    0    0    0  0.00000000000E+00  0.00000000000E+00  0.41351871874E+02  0.41351871874E+02  0.00000000000E+00 0.  1.
         22   -1    0    0    0    0 -0.00000000000E+00 -0.00000000000E+00 -0.19857478490E+04  0.19857478490E+04  0.00000000000E+00 0. -1.
         24    2    1    2    0    0 -0.45192569728E+02  0.33232742354E+02 -0.13199418124E+04  0.13235243363E+04  0.79520419321E+02 0.  0.
         25    2    1    2    0    0  0.35081412487E+02 -0.33257736623E+02 -0.60334298672E+03  0.61806727446E+03  0.12509042163E+03 0.  0.
        -24    2    1    2    0    0  0.10111157241E+02  0.24994269637E-01 -0.21111178006E+02  0.85508110134E+02  0.82241832034E+02 0.  0.
        -13    1    3    3    0    0 -0.18756958655E+01 -0.24004432567E+02 -0.24185973144E+03  0.24305526267E+03  0.00000000000E+00 0.  1.
         14    1    3    3    0    0 -0.43316873863E+02  0.57237174921E+02 -0.10780820809E+04  0.10804690736E+04  0.00000000000E+00 0. -1.
         11    1    5    5    0    0  0.29880379052E+02 -0.12072088469E+02 -0.42927855417E+02  0.53678423440E+02  0.00000000000E+00 0. -1.
        -12    1    5    5    0    0 -0.19769221810E+02  0.12097082739E+02  0.21816677411E+02  0.31829686694E+02  0.00000000000E+00 0.  1.
          5    1    4    4  501    0  0.76376776398E+02 -0.33290720237E+02 -0.28277661778E+03  0.29482498535E+03  0.41800000000E+01 0.  1.
         -5    1    4    4    0  501 -0.41295363911E+02  0.32983613914E-01 -0.32056636894E+03  0.32324228910E+03  0.41800000000E+01 0.  1.
</event>
<event>
11    1  0.8864208E-009  0.1391745E+03  0.7561462E-02  0.1108484E+00
         22   -1    0    0    0    0  0.00000000000E+00  0.00000000000E+00  0.89554109190E+02  0.89554109190E+02  0.00000000000E+00 0.  1.
         22   -1    0    0    0    0 -0.00000000000E+00 -0.00000000000E+00 -0.34448403934E+04  0.34448403934E+04  0.00000000000E+00 0. -1.
        -24    2    1    2    0    0  0.96263565326E+01 -0.29385340755E+02 -0.30649767854E+04  0.30662125872E+04  0.81368111089E+02 0.  0.
         25    2    1    2    0    0 -0.44474151630E+02  0.76069617252E+02 -0.32681439983E+03  0.36086118160E+03  0.12509437885E+03 0.  0.
         24    2    1    2    0    0  0.34847795098E+02 -0.46684276498E+02  0.36504901040E+02  0.10732073383E+03  0.82409596611E+02 0.  0.
        -13    1    5    5    0    0  0.40956671560E+02 -0.67259152326E+02  0.33774143410E+02  0.85685093686E+02  0.00000000000E+00 0.  1.
         14    1    5    5    0    0 -0.61088764627E+01  0.20574875828E+02  0.27307576305E+01  0.21635640139E+02  0.00000000000E+00 0. -1.
         11    1    3    3    0    0  0.10063509466E+02 -0.49617470764E+02 -0.28023454798E+04  0.28028027680E+04  0.00000000000E+00 0. -1.
        -12    1    3    3    0    0 -0.43715293376E+00  0.20232130010E+02 -0.26263130557E+03  0.26340981920E+03  0.00000000000E+00 0.  1.
          5    1    4    4  501    0 -0.82302729756E+02  0.46055105680E+02 -0.14760559099E+03  0.17521328425E+03  0.41800000000E+01 0.  1.
         -5    1    4    4    0  501  0.37828578126E+02  0.30014511572E+02 -0.17920880884E+03  0.18564789736E+03  0.41800000000E+01 0.  1.
</event>
<event>
11    1  0.8864208E-009  0.1867256E+03  0.7561462E-02  0.1064329E+00
         22   -1    0    0    0    0  0.00000000000E+00  0.00000000000E+00  0.17584844676E+03  0.17584844676E+03  0.00000000000E+00 0.  1.
         22   -1    0    0    0    0 -0.00000000000E+00 -0.00000000000E+00 -0.94185681030E+03  0.94185681030E+03  0.00000000000E+00 0. -1.
        -24    2    1    2    0    0 -0.95041970977E+02 -0.56283591250E+02 -0.36961042545E+03  0.39424638672E+03  0.81348189583E+02 0.  0.
         25    2    1    2    0    0  0.14373729934E+03  0.14515074629E+03 -0.50199151255E+03  0.55621118466E+03  0.12508498271E+03 0.  0.
         24    2    1    2    0    0 -0.48695328359E+02 -0.88867155043E+02  0.10559357446E+03  0.16724768567E+03  0.80951708727E+02 0.  0.
        -13    1    5    5    0    0 -0.68641382115E+02 -0.64343082766E+02  0.95511332001E+02  0.13406746876E+03  0.00000000000E+00 0.  1.
         14    1    5    5    0    0  0.19946053755E+02 -0.24524072276E+02  0.10082242459E+02  0.33180216914E+02  0.00000000000E+00 0. -1.
         11    1    3    3    0    0 -0.73990757878E+02 -0.62190381574E+02 -0.35506563735E+03  0.36798625333E+03  0.00000000000E+00 0. -1.
        -12    1    3    3    0    0 -0.21051213100E+02  0.59067903245E+01 -0.14544788103E+02  0.26260133394E+02  0.00000000000E+00 0.  1.
          5    1    4    4  501    0  0.10250458472E+03  0.78990849065E+02 -0.16206463422E+03  0.20743471790E+03  0.41800000000E+01 0. -1.
         -5    1    4    4    0  501  0.41232714615E+02  0.66159897227E+02 -0.33992687833E+03  0.34877646676E+03  0.41800000000E+01 0. -1.
</event>
<event>
11    1  0.8864208E-009  0.1666542E+03  0.7561462E-02  0.1080981E+00
         22   -1    0    0    0    0  0.00000000000E+00  0.00000000000E+00  0.24334336446E+02  0.24334336446E+02  0.00000000000E+00 0.  1.
         22   -1    0    0    0    0 -0.00000000000E+00 -0.00000000000E+00 -0.22491390907E+04  0.22491390907E+04  0.00000000000E+00 0.  1.
        -24    2    1    2    0    0 -0.29497310407E+02  0.52913934655E+02 -0.60591190377E+03  0.61405536268E+03  0.79150347503E+02 0.  0.
         25    2    1    2    0    0 -0.53093054162E+02 -0.12131039201E+03 -0.13020656834E+04  0.13147462530E+04  0.12509029614E+03 0.  0.
         24    2    1    2    0    0  0.82590364569E+02  0.68396457358E+02 -0.31682716713E+03  0.34467181155E+03  0.83186297797E+02 0.  0.
        -11    1    5    5    0    0  0.79662894822E+02  0.69371496523E+02 -0.18673172425E+03  0.21453978228E+03  0.00000000000E+00 0.  1.
         12    1    5    5    0    0  0.29274697469E+01 -0.97503916471E+00 -0.13009544288E+03  0.13013202926E+03  0.00000000000E+00 0. -1.
         13    1    3    3    0    0 -0.46219194273E+02  0.62132711128E+02 -0.41271087792E+03  0.41991303441E+03  0.00000000000E+00 0. -1.
        -14    1    3    3    0    0  0.16721883866E+02 -0.92187764724E+01 -0.19320102585E+03  0.19414232828E+03  0.00000000000E+00 0.  1.
          5    1    4    4  501    0 -0.76356896094E+02 -0.12125950872E+03 -0.12412108183E+04  0.12494622891E+04  0.41800000000E+01 0.  1.
         -5    1    4    4    0  501  0.23263841932E+02 -0.50883293725E-01 -0.60854865068E+02  0.65283963827E+02  0.41800000000E+01 0.  1.
</event>
<event>
11    1  0.8864208E-009  0.1788397E+03  0.7561462E-02  0.1070585E+00
         22   -1    0    0    0    0  0.00000000000E+00  0.00000000000E+00  0.18099098986E+04  0.18099098986E+04  0.00000000000E+00 0.  1.
         22   -1    0    0    0    0 -0.00000000000E+00 -0.00000000000E+00 -0.49566546992E+03  0.49566546992E+03  0.00000000000E+00 0.  1.
        -24    2    1    2    0    0  0.11011771620E+03 -0.62283660278E+02 -0.42295541650E+03  0.44877472447E+03  0.80636860195E+02 0.  0.
         25    2    1    2    0    0 -0.12088025639E+03  0.77332310847E+02  0.95328158772E+02  0.21290403114E+03  0.12509334889E+03 0.  0.
         24    2    1    2    0    0  0.10762540183E+02 -0.15048650569E+02  0.16418716864E+04  0.16438966129E+04  0.79442716115E+02 0.  0.
        -13    1    5    5    0    0  0.75697270245E+00  0.38874429393E+01  0.15293338619E+04  0.15293389900E+04  0.00000000000E+00 0.  1.
         14    1    5    5    0    0  0.10005567481E+02 -0.18936093509E+02  0.11253782447E+03  0.11455762286E+03  0.00000000000E+00 0. -1.
         13    1    3    3    0    0 -0.79051840626E+01  0.91042395463E+01 -0.31477429208E+02  0.33707679575E+02  0.00000000000E+00 0. -1.
        -14    1    3    3    0    0  0.11802290026E+03 -0.71387899824E+02 -0.39147798729E+03  0.41506704490E+03  0.00000000000E+00 0.  1.
          5    1    4    4  501    0  0.25448679189E+02  0.12792102331E+02  0.25062402261E+02  0.38168960709E+02  0.41800000000E+01 0.  1.
         -5    1    4    4    0  501 -0.14632893557E+03  0.64540208516E+02  0.70265756511E+02  0.17473507043E+03  0.41800000000E+01 0.  1.
</event>
<event>
11    1  0.8864208E-009  0.1307734E+03  0.7561462E-02  0.1118322E+00
         22   -1    0    0    0    0  0.00000000000E+00  0.00000000000E+00  0.21364150923E+03  0.21364150923E+03  0.00000000000E+00 0.  1.
         22   -1    0    0    0    0 -0.00000000000E+00 -0.00000000000E+00 -0.46345578367E+03  0.46345578367E+03  0.00000000000E+00 0. -1.
        -24    2    1    2    0    0 -0.64218117501E+01  0.23806035372E+02 -0.39554642455E+03  0.40432270969E+03  0.80074419183E+02 0.  0.
         25    2    1    2    0    0 -0.27832938462E+02 -0.37351988635E+02  0.49207585924E+02  0.14225911065E+03  0.12508566877E+03 0.  0.
         24    2    1    2    0    0  0.34254750213E+02  0.13545953263E+02  0.96524564195E+02  0.13051547256E+03  0.79752218299E+02 0.  0.
        -11    1    5    5    0    0 -0.12248484738E+02 -0.26496619278E+01  0.76232326229E+02  0.77255508858E+02  0.00000000000E+00 0.  1.
         12    1    5    5    0    0  0.46503234950E+02  0.16195615191E+02  0.20292237966E+02  0.53259963706E+02  0.00000000000E+00 0. -1.
         13    1    3    3    0    0  0.44277931273E+01  0.42449852324E+02 -0.11041971515E+03  0.11838120124E+03  0.00000000000E+00 0. -1.
        -14    1    3    3    0    0 -0.10849604877E+02 -0.18643816952E+02 -0.28512670940E+03  0.28594150844E+03  0.00000000000E+00 0.  1.
          5    1    4    4  501    0  0.21734840696E+02  0.11433825408E+01 -0.32381242535E+02  0.39239366608E+02  0.41800000000E+01 0.  1.
         -5    1    4    4    0  501 -0.49567779158E+02 -0.38495371175E+02  0.81588828459E+02  0.10301974404E+03  0.41800000000E+01 0.  1.
</event>
<event>
11    1  0.8864208E-009  0.1284141E+03  0.7561462E-02  0.1121233E+00
         22   -1    0    0    0    0  0.00000000000E+00  0.00000000000E+00  0.54323749851E+02  0.54323749851E+02  0.00000000000E+00 0.  1.
         22   -1    0    0    0    0 -0.00000000000E+00 -0.00000000000E+00 -0.20913093961E+04  0.20913093961E+04  0.00000000000E+00 0.  1.
         24    2    1    2    0    0 -0.18239224757E+01 -0.29142176806E+02 -0.15508981071E+04  0.15533626975E+04  0.82450822741E+02 0.  0.
         25    2    1    2    0    0  0.13447196998E+02  0.26855198033E+02 -0.49379229209E+03  0.51027431974E+03  0.12508806852E+03 0.  0.
        -24    2    1    2    0    0 -0.11623274522E+02  0.22869787731E+01  0.77047529490E+01  0.81996128722E+02  0.80769246157E+02 0.  0.
        -13    1    3    3    0    0  0.15494353180E+02  0.40493661515E+00 -0.13048905646E+04  0.13049826146E+04  0.00000000000E+00 0.  1.
         14    1    3    3    0    0 -0.17318275656E+02 -0.29547113421E+02 -0.24600754257E+03  0.24838008290E+03  0.00000000000E+00 0. -1.
         11    1    5    5    0    0  0.22054833588E+02  0.27902154837E+02  0.15797408045E+02  0.38916629223E+02  0.00000000000E+00 0. -1.
        -12    1    5    5    0    0 -0.33678108109E+02 -0.25615176064E+02 -0.80926550956E+01  0.43079499499E+02  0.00000000000E+00 0.  1.
          5    1    4    4  501    0  0.52620948693E+02 -0.29023853176E+02 -0.23705741333E+03  0.24459157366E+03  0.41800000000E+01 0. -1.
         -5    1    4    4    0  501 -0.39173751696E+02  0.55879051209E+02 -0.25673487877E+03  0.26568274607E+03  0.41800000000E+01 0. -1.
</event>
<event>
11    1  0.8864208E-009  0.1899976E+03  0.7561462E-02  0.1061831E+00
         22   -1    0    0    0    0  0.00000000000E+00  0.00000000000E+00  0.60500134182E+03  0.60500134182E+03  0.00000000000E+00 0. -1.
         22   -1    0    0    0    0 -0.00000000000E+00 -0.00000000000E+00 -0.83961759063E+03  0.83961759063E+03  0.00000000000E+00 0.  1.
        -24    2    1    2    0    0  0.11701459150E+02  0.46551168950E+02 -0.77426394671E+03  0.78051499510E+03  0.86110759618E+02 0.  0.
         25    2    1    2    0    0 -0.96787858169E+02 -0.14333911376E+03  0.23009442625E+03  0.31385487881E+03  0.12508976353E+03 0.  0.
         24    2    1    2    0    0  0.85086399019E+02  0.96787944806E+02  0.30955327164E+03  0.35024905855E+03  0.10121054031E+03 0.  0.
        -13    1    5    5    0    0  0.40731696598E+02  0.26831051786E+02  0.23099468906E+03  0.23608795569E+03  0.00000000000E+00 0.  1.
         14    1    5    5    0    0  0.44354702421E+02  0.69956893020E+02  0.78558582585E+02  0.11416110286E+03  0.00000000000E+00 0. -1.
         11    1    3    3    0    0  0.29817989601E+02 -0.15734816816E+02 -0.26762003495E+03  0.26973538898E+03  0.00000000000E+00 0. -1.
        -12    1    3    3    0    0 -0.18116530451E+02  0.62285985766E+02 -0.50664391176E+03  0.51077960611E+03  0.00000000000E+00 0.  1.
          5    1    4    4  501    0 -0.17157503019E+01 -0.90254375011E+02  0.49779293351E+02  0.10317095742E+03  0.41800000000E+01 0.  1.
         -5    1    4    4    0  501 -0.95072107867E+02 -0.53084738745E+02  0.18031513290E+03  0.21068392139E+03  0.41800000000E+01 0.  1.
</event>
<event>
11    1  0.8864208E-009  0.1846123E+03  0.7561462E-02  0.1065972E+00
         22   -1    0    0    0    0  0.00000000000E+00  0.00000000000E+00  0.32230806012E+03  0.32230806012E+03  0.00000000000E+00 0.  1.
         22   -1    0    0    0    0 -0.00000000000E+00 -0.00000000000E+00 -0.14253572549E+04  0.14253572549E+04  0.00000000000E+00 0. -1.
         24    2    1    2    0    0 -0.13440534124E+03 -0.48466173863E+02 -0.12564966919E+04  0.12671237613E+04  0.80030769562E+02 0.  0.
         25    2    1    2    0    0  0.86582262673E+02  0.10988267858E+02 -0.11644673457E+03  0.19189672458E+03  0.12508909095E+03 0.  0.
        -24    2    1    2    0    0  0.47823078564E+02  0.37477906005E+02  0.26989423169E+03  0.28864482908E+03  0.82348653762E+02 0.  0.
        -11    1    3    3    0    0 -0.50220521528E+02 -0.31820044293E+02 -0.24985729669E+03  0.25683318460E+03  0.00000000000E+00 0.  1.
         12    1    3    3    0    0 -0.84184819708E+02 -0.16646129569E+02 -0.10066393952E+04  0.10102905767E+04  0.00000000000E+00 0. -1.
         11    1    5    5    0    0  0.70950658596E+02  0.21932386236E+02  0.18781517199E+03  0.20196426504E+03  0.00000000000E+00 0. -1.
        -12    1    5    5    0    0 -0.23127580032E+02  0.15545519769E+02  0.82079059692E+02  0.86680564044E+02  0.00000000000E+00 0.  1.
          5    1    4    4  501    0  0.12501463796E+02  0.58729330782E+02 -0.69543820705E+02  0.91974106624E+02  0.41800000000E+01 0. -1.
         -5    1    4    4    0  501  0.74080798876E+02 -0.47741062924E+02 -0.46902913863E+02  0.99922617961E+02  0.41800000000E+01 0. -1.
</event>
<event>
11    1  0.8864208E-009  0.1827859E+03  0.7561462E-02  0.1067411E+00
         22   -1    0    0    0    0  0.00000000000E+00  0.00000000000E+00  0.12276118565E+04  0.12276118565E+04  0.00000000000E+00 0.  1.
         22   -1    0    0    0    0 -0.00000000000E+00 -0.00000000000E+00 -0.14917455120E+04  0.14917455120E+04  0.00000000000E+00 0.  1.
        -24    2    1    2    0    0  0.55117389220E+02  0.12261223841E+03 -0.14556960407E+04  0.14640931093E+04  0.80286874406E+02 0.  0.
         25    2    1    2    0    0 -0.39530575253E+02 -0.71586669096E+02  0.15905918483E+03  0.21825356696E+03  0.12508987825E+03 0.  0.
         24    2    1    2    0    0 -0.15586813967E+02 -0.51025569309E+02  0.10325032003E+04  0.10370106922E+04  0.80509375739E+02 0.  0.
        -13    1    5    5    0    0  0.28373051531E+02 -0.25239762815E+02  0.65264540402E+03  0.65374926315E+03  0.00000000000E+00 0.  1.
         14    1    5    5    0    0 -0.43959865499E+02 -0.25785806494E+02  0.37985779632E+03  0.38326142907E+03  0.00000000000E+00 0. -1.
         11    1    3    3    0    0  0.57134293974E+02  0.48563777841E+02 -0.50773527242E+03  0.51324251083E+03  0.00000000000E+00 0. -1.
        -12    1    3    3    0    0 -0.20169047531E+01  0.74048460564E+02 -0.94796076830E+03  0.95085059849E+03  0.00000000000E+00 0.  1.
          5    1    4    4  501    0 -0.14603140498E+02 -0.96534521654E+02  0.64096629358E+02  0.11686751421E+03  0.41800000000E+01 0.  1.
         -5    1    4    4    0  501 -0.24927434755E+02  0.24947852558E+02  0.94962555469E+02  0.10138605275E+03  0.41800000000E+01 0.  1.
</event>
<event>
11    1  0.8864208E-009  0.2886412E+03  0.7561462E-02  0.1005116E+00
         22   -1    0    0    0    0  0.00000000000E+00  0.00000000000E+00  0.67899314054E+03  0.67899314054E+03  0.00000000000E+00 0. -1.
         22   -1    0    0    0    0 -0.00000000000E+00 -0.00000000000E+00 -0.13306562818E+04  0.13306562818E+04  0.00000000000E+00 0. -1.
         24    2    1    2    0    0 -0.95313928072E+02  0.24060994911E+03 -0.12405133012E+04  0.12710652619E+04  0.98771235723E+02 0.  0.
         25    2    1    2    0    0  0.11225500423E+03 -0.26979943575E+03  0.30161140950E+03  0.43819092186E+03  0.12509564405E+03 0.  0.
        -24    2    1    2    0    0 -0.16941076154E+02  0.29189486640E+02  0.28723875049E+03  0.30039323855E+03  0.81184800272E+02 0.  0.
        -13    1    3    3    0    0 -0.38844656111E+02  0.37635736525E+02 -0.13100517099E+03  0.14173112149E+03  0.00000000000E+00 0.  1.
         14    1    3    3    0    0 -0.56469271961E+02  0.20297421258E+03 -0.11095081302E+04  0.11293341404E+04  0.00000000000E+00 0. -1.
         11    1    5    5    0    0 -0.36285032070E+02  0.94414113997E+01  0.25578485875E+03  0.25851815752E+03  0.00000000000E+00 0. -1.
        -12    1    5    5    0    0  0.19343955916E+02  0.19748075240E+02  0.31453891740E+02  0.41875081036E+02  0.00000000000E+00 0.  1.
          5    1    4    4  501    0  0.11439567055E+03 -0.27388514045E+03  0.30903123638E+03  0.42850579583E+03  0.41800000000E+01 0. -1.
         -5    1    4    4    0  501 -0.21406663227E+01  0.40857047046E+01 -0.74198268851E+01  0.96851260314E+01  0.41800000000E+01 0. -1.
</event>
<event>
11    1  0.8864208E-009  0.1418533E+03  0.7561462E-02  0.1105506E+00
         22   -1    0    0    0    0  0.00000000000E+00  0.00000000000E+00  0.11148684861E+04  0.11148684861E+04  0.00000000000E+00 0.  1.
         22   -1    0    0    0    0 -0.00000000000E+00 -0.00000000000E+00 -0.80528954316E+02  0.80528954316E+02  0.00000000000E+00 0.  1.
         24    2    1    2    0    0 -0.20809689820E+02  0.72695465435E+02 -0.15555491619E+02  0.11128843370E+03  0.80159018642E+02 0.  0.
         25    2    1    2    0    0  0.22552028146E+02 -0.55991863775E+01  0.28841787257E+03  0.31523082285E+03  0.12508260309E+03 0.  0.
        -24    2    1    2    0    0 -0.17423383263E+01 -0.67096279058E+02  0.76147715079E+03  0.76887818383E+03  0.82590943723E+02 0.  0.
        -11    1    3    3    0    0 -0.94861853693E+01  0.83606383580E+02  0.62836605321E+01  0.84377126509E+02  0.00000000000E+00 0.  1.
         12    1    3    3    0    0 -0.11323504451E+02 -0.10910918145E+02 -0.21839152151E+02  0.26911307186E+02  0.00000000000E+00 0. -1.
         11    1    5    5    0    0  0.37379160819E+02 -0.32360006600E+02  0.48345134711E+03  0.48597281479E+03  0.00000000000E+00 0. -1.
        -12    1    5    5    0    0 -0.39121499145E+02 -0.34736272457E+02  0.27802580368E+03  0.28290536904E+03  0.00000000000E+00 0.  1.
          5    1    4    4  501    0  0.23410303568E+02 -0.15690942934E+02  0.29878882274E+03  0.30014410039E+03  0.41800000000E+01 0.  1.
         -5    1    4    4    0  501 -0.85827542205E+00  0.10091756556E+02 -0.10370950173E+02  0.15086722460E+02  0.41800000000E+01 0.  1.
</event>
<event>
11    1  0.8864208E-009  0.1541220E+03  0.7561462E-02  0.1092740E+00
         22   -1    0    0    0    0  0.00000000000E+00  0.00000000000E+00  0.80533708644E+03  0.80533708644E+03  0.00000000000E+00 0.  1.
         22   -1    0    0    0    0 -0.00000000000E+00 -0.00000000000E+00 -0.26580866933E+03  0.26580866933E+03  0.00000000000E+00 0. -1.
         24    2    1    2    0    0 -0.18587879994E+02  0.31331971379E+01 -0.22361177866E+03  0.23773610077E+03  0.78491399837E+02 0.  0.
         25    2    1    2    0    0 -0.24529313096E+02 -0.83393148386E+02  0.17379819152E+03  0.23109669319E+03  0.12507504080E+03 0.  0.
        -24    2    1    2    0    0  0.43117193090E+02  0.80259951248E+02  0.58934200426E+03  0.60231296181E+03  0.84594053400E+02 0.  0.
        -11    1    3    3    0    0  0.24789802898E+02 -0.13099829784E+02 -0.43410562773E+02  0.51678011072E+02  0.00000000000E+00 0.  1.
         12    1    3    3    0    0 -0.43377682892E+02  0.16233026921E+02 -0.18020121589E+03  0.18605808970E+03  0.00000000000E+00 0. -1.
         11    1    5    5    0    0  0.34472772695E+02  0.41652116396E+01  0.79516925702E+02  0.86767865702E+02  0.00000000000E+00 0. -1.
        -12    1    5    5    0    0  0.86444203956E+01  0.76094739608E+02  0.50982507855E+03  0.51554509611E+03  0.00000000000E+00 0.  1.
          5    1    4    4  501    0  0.99371189928E+01 -0.10865649387E+03  0.11949171037E+03  0.16186636847E+03  0.41800000000E+01 0. -1.
         -5    1    4    4    0  501 -0.34466432089E+02  0.25263345487E+02  0.54306481144E+02  0.69230324717E+02  0.41800000000E+01 0. -1.
</event>
<event>
11    1  0.8864208E-009  0.1720584E+03  0.7561462E-02  0.1076254E+00
         22   -1    0    0    0    0  0.00000000000E+00  0.00000000000E+00  0.26424355403E+03  0.26424355403E+03  0.00000000000E+00 0.  1.
         22   -1    0    0    0    0 -0.00000000000E+00 -0.00000000000E+00 -0.29277288533E+03  0.29277288533E+03  0.00000000000E+00 0.  1.
         24    2    1    2    0    0 -0.23932633039E+02 -0.40058408549E+02 -0.17711879165E+03  0.20062309588E+03  0.81860327534E+02 0.  0.
         25    2    1    2    0    0 -0.81495272895E+02  0.93298927127E+02  0.51067689559E+02  0.18331568605E+03  0.12510220832E+03 0.  0.
        -24    2    1    2    0    0  0.10542790593E+03 -0.53240518578E+02  0.97521770792E+02  0.17307765743E+03  0.80596423951E+02 0.  0.
        -11    1    3    3    0    0 -0.75878446843E+00  0.24917850159E+02 -0.40084448351E+02  0.47204216019E+02  0.00000000000E+00 0.  1.
         12    1    3    3    0    0 -0.23173848570E+02 -0.64976258708E+02 -0.13703434330E+03  0.15341887986E+03  0.00000000000E+00 0. -1.
         13    1    5    5    0    0  0.87745252241E+02 -0.18631726910E+01  0.50731921524E+02  0.10137272101E+03  0.00000000000E+00 0. -1.
        -14    1    5    5    0    0  0.17682653692E+02 -0.51377345887E+02  0.46789849268E+02  0.71704936416E+02  0.00000000000E+00 0.  1.
          5    1    4    4  501    0 -0.81675778024E+02  0.34151606706E+02 -0.19903333452E+02  0.90834354948E+02  0.41800000000E+01 0.  1.
         -5    1    4    4    0  501  0.18050512899E+00  0.59147320421E+02  0.70971023011E+02  0.92481331101E+02  0.41800000000E+01 0.  1.
</event>
<event>
11    1  0.8864208E-009  0.1285200E+03  0.7561462E-02  0.1121101E+00
         22   -1    0    0    0    0  0.00000000000E+00  0.00000000000E+00  0.97461791029E+02  0.97461791029E+02  0.00000000000E+00 0. -1.
         22   -1    0    0    0    0 -0.00000000000E+00 -0.00000000000E+00 -0.11237210513E+04  0.11237210513E+04  0.00000000000E+00 0.  1.
         24    2    1    2    0    0  0.20122494791E+02 -0.84853390878E+01 -0.81248368497E+03  0.81620884592E+03  0.74767814283E+02 0.  0.
         25    2    1    2    0    0 -0.46628758845E+02  0.17221947887E+02 -0.27107533846E+03  0.30265529923E+03  0.12509018503E+03 0.  0.
        -24    2    1    2    0    0  0.26506264054E+02 -0.87366087989E+01  0.57299763190E+02  0.10231869714E+03  0.80043379211E+02 0.  0.
        -11    1    3    3    0    0 -0.18275857515E+02  0.14952055425E+02 -0.49396257486E+03  0.49452663860E+03  0.00000000000E+00 0.  1.
         12    1    3    3    0    0  0.38398352306E+02 -0.23437394513E+02 -0.31852111011E+03  0.32168220732E+03  0.00000000000E+00 0. -1.
         13    1    5    5    0    0  0.53614073365E+02 -0.10893238207E+02  0.25158103209E+02  0.60216788842E+02  0.00000000000E+00 0. -1.
        -14    1    5    5    0    0 -0.27107809311E+02  0.21566294079E+01  0.32141659981E+02  0.42101908299E+02  0.00000000000E+00 0.  1.
          5    1    4    4  501    0 -0.30830822898E+02  0.45915725231E+02 -0.37954028969E+02  0.67206950377E+02  0.41800000000E+01 0.  1.
         -5    1    4    4    0  501 -0.15797935946E+02 -0.28693777344E+02 -0.23312130949E+03  0.23544834885E+03  0.41800000000E+01 0.  1.
</event>
<event>
11    1  0.8864208E-009  0.2019563E+03  0.7561462E-02  0.1053149E+00
         22   -1    0    0    0    0  0.00000000000E+00  0.00000000000E+00  0.58463816048E+03  0.58463816048E+03  0.00000000000E+00 0.  1.
         22   -1    0    0    0    0 -0.00000000000E+00 -0.00000000000E+00 -0.24798614704E+04  0.24798614704E+04  0.00000000000E+00 0.  1.
        -24    2    1    2    0    0  0.29499964334E+02  0.81399933363E+02 -0.21301599531E+04  0.21333760675E+04  0.78840488666E+02 0.  0.
         25    2    1    2    0    0 -0.18509273661E+03 -0.54629641252E+02 -0.29399386322E+03  0.37326045102E+03  0.12508898368E+03 0.  0.
         24    2    1    2    0    0  0.15559277228E+03 -0.26770292111E+02  0.52893050644E+03  0.55786311230E+03  0.80734206517E+02 0.  0.
        -11    1    5    5    0    0  0.49147965939E+02 -0.39936329763E+02  0.27523724093E+03  0.28242870212E+03  0.00000000000E+00 0.  1.
         12    1    5    5    0    0  0.10644480634E+03  0.13166037652E+02  0.25369326551E+03  0.27543441018E+03  0.00000000000E+00 0. -1.
         13    1    3    3    0    0 -0.70936366422E+01  0.57179371904E+02 -0.64512531850E+03  0.64769319652E+03  0.00000000000E+00 0. -1.
        -14    1    3    3    0    0  0.36593600976E+02  0.24220561459E+02 -0.14850346346E+04  0.14856828710E+04  0.00000000000E+00 0.  1.
          5    1    4    4  501    0 -0.40540059029E+02  0.33864830104E+02 -0.11553330971E+03  0.12710523654E+03  0.41800000000E+01 0. -1.
         -5    1    4    4    0  501 -0.14455267758E+03 -0.88494471356E+02 -0.17846055351E+03  0.24615521448E+03  0.41800000000E+01 0. -1.
</event>
<event>
11    1  0.8864208E-009  0.1358944E+03  0.7561462E-02  0.1112232E+00
         22   -1    0    0    0    0  0.00000000000E+00  0.00000000000E+00  0.18465192270E+03  0.18465192270E+03  0.00000000000E+00 0. -1.
         22   -1    0    0    0    0 -0.00000000000E+00 -0.00000000000E+00 -0.19199398876E+04  0.19199398876E+04  0.00000000000E+00 0. -1.
        -24    2    1    2    0    0  0.14869156459E+02 -0.32054905180E+02 -0.18190027073E+04  0.18211914543E+04  0.81968624810E+02 0.  0.
         25    2    1    2    0    0 -0.23481605094E+01 -0.26175670638E+02 -0.30733089850E+02  0.13146002989E+03  0.12508611856E+03 0.  0.
         24    2    1    2    0    0 -0.12520995949E+02  0.58230575817E+02  0.11444783217E+03  0.15194032615E+03  0.80249492973E+02 0.  0.
        -11    1    5    5    0    0 -0.32277035416E+02  0.20933074446E+02  0.10692844907E+02  0.39929156681E+02  0.00000000000E+00 0.  1.
         12    1    5    5    0    0  0.19756039467E+02  0.37297501371E+02  0.10375498726E+03  0.11201116947E+03  0.00000000000E+00 0. -1.
         13    1    3    3    0    0 -0.19827602119E+01 -0.10015674587E+02 -0.16416584661E+04  0.16416902157E+04  0.00000000000E+00 0. -1.
        -14    1    3    3    0    0  0.16851916671E+02 -0.22039230593E+02 -0.17734424118E+03  0.17950123860E+03  0.00000000000E+00 0.  1.
          5    1    4    4  501    0  0.40461542788E+02  0.15585979620E+02  0.24470988549E+02  0.49963595608E+02  0.41800000000E+01 0. -1.
         -5    1    4    4    0  501 -0.42809703297E+02 -0.41761650257E+02 -0.55204078399E+02  0.81496434281E+02  0.41800000000E+01 0. -1.
</event>
<event>
11    1  0.8864208E-009  0.1798246E+03  0.7561462E-02  0.1069785E+00
         22   -1    0    0    0    0  0.00000000000E+00  0.00000000000E+00  0.52858203486E+03  0.52858203486E+03  0.00000000000E+00 0.  1.
         22   -1    0    0    0    0 -0.00000000000E+00 -0.00000000000E+00 -0.38242837071E+03  0.38242837071E+03  0.00000000000E+00 0.  1.
        -24    2    1    2    0    0  0.10326048045E+03 -0.62770040683E+02 -0.26849524009E+03  0.30549071844E+03  0.81437585165E+02 0.  0.
         25    2    1    2    0    0 -0.17996595764E+03  0.99470765750E+02  0.84300356448E+02  0.25503469155E+03  0.12511580494E+03 0.  0.
         24    2    1    2    0    0  0.76705477197E+02 -0.36700725067E+02  0.33034854778E+03  0.35048499558E+03  0.80491587470E+02 0.  0.
        -13    1    5    5    0    0  0.12450446879E+02 -0.49950051304E+02  0.14406216204E+03  0.15298342324E+03  0.00000000000E+00 0.  1.
         14    1    5    5    0    0  0.64255030318E+02  0.13249326236E+02  0.18628638574E+03  0.19750157234E+03  0.00000000000E+00 0. -1.
         11    1    3    3    0    0  0.42702870961E+02  0.13536582680E+02 -0.11800767715E+03  0.12622434839E+03  0.00000000000E+00 0. -1.
        -12    1    3    3    0    0  0.60557609485E+02 -0.76306623363E+02 -0.15048756294E+03  0.17926637006E+03  0.00000000000E+00 0.  1.
          5    1    4    4  501    0 -0.73047627864E+02  0.79610277009E+02 -0.13187832296E+02  0.10892723931E+03  0.41800000000E+01 0. -1.
         -5    1    4    4    0  501 -0.10691832978E+03  0.19860488741E+02  0.97488188744E+02  0.14610745224E+03  0.41800000000E+01 0. -1.
</event>
<event>
11    1  0.8864208E-009  0.1399417E+03  0.7561462E-02  0.1107624E+00
         22   -1    0    0    0    0  0.00000000000E+00  0.00000000000E+00  0.15421269622E+04  0.15421269622E+04  0.00000000000E+00 0. -1.
         22   -1    0    0    0    0 -0.00000000000E+00 -0.00000000000E+00 -0.11429019718E+04  0.11429019718E+04  0.00000000000E+00 0. -1.
         24    2    1    2    0    0 -0.28359832294E+02 -0.55382164542E+02 -0.99533488536E+03  0.10004819884E+04  0.80007568069E+02 0.  0.
         25    2    1    2    0    0  0.68392633627E+02  0.43151911151E+02 -0.10491106411E+03  0.18219261017E+03  0.12509266988E+03 0.  0.
        -24    2    1    2    0    0 -0.40032801334E+02  0.12230253391E+02  0.14994709400E+04  0.15023543354E+04  0.83085768923E+02 0.  0.
        -11    1    3    3    0    0 -0.28290219561E+02  0.75987920968E+01 -0.15188620821E+03  0.15468515898E+03  0.00000000000E+00 0.  1.
         12    1    3    3    0    0 -0.69612732701E-01 -0.62980956639E+02 -0.84344867716E+03  0.84579682947E+03  0.00000000000E+00 0. -1.
         11    1    5    5    0    0 -0.22481261339E+02  0.47632317235E+02  0.95505644727E+03  0.95650774290E+03  0.00000000000E+00 0. -1.
        -12    1    5    5    0    0 -0.17551539995E+02 -0.35402063844E+02  0.54441449270E+03  0.54584659249E+03  0.00000000000E+00 0.  1.
          5    1    4    4  501    0  0.83423964643E+02  0.75783764244E+02 -0.79849236633E+02  0.13818867461E+03  0.41800000000E+01 0. -1.
         -5    1    4    4    0  501 -0.15031331016E+02 -0.32631853092E+02 -0.25061827477E+02  0.44003935560E+02  0.41800000000E+01 0. -1.
</event>
<event>
11    1  0.8864208E-009  0.1582130E+03  0.7561462E-02  0.1088770E+00
         22   -1    0    0    0    0  0.00000000000E+00  0.00000000000E+00  0.36183327571E+03  0.36183327571E+03  0.00000000000E+00 0. -1.
         22   -1    0    0    0    0 -0.00000000000E+00 -0.00000000000E+00 -0.14666861561E+04  0.14666861561E+04  0.00000000000E+00 0.  1.
         24    2    1    2    0    0  0.99816606730E+01 -0.10747236832E+03 -0.12882920232E+04  0.12953038415E+04  0.80409958934E+02 0.  0.
         25    2    1    2    0    0 -0.48079196890E+01  0.19348936012E+02 -0.13966909929E+03  0.18855445740E+03  0.12509128144E+03 0.  0.
        -24    2    1    2    0    0 -0.51737409840E+01  0.88123432313E+02  0.32310824205E+03  0.34466113288E+03  0.81239482532E+02 0.  0.
        -11    1    3    3    0    0 -0.13624475360E+02 -0.10333078992E+03 -0.85152861625E+03  0.85788336198E+03  0.00000000000E+00 0.  1.
         12    1    3    3    0    0  0.23606136033E+02 -0.41415784063E+01 -0.43676340691E+03  0.43742047957E+03  0.00000000000E+00 0. -1.
         11    1    5    5    0    0  0.91682965196E+01  0.97484786842E+02  0.30201223197E+03  0.31748815661E+03  0.00000000000E+00 0. -1.
        -12    1    5    5    0    0 -0.14342037504E+02 -0.93613545297E+01  0.21096010076E+02  0.27172976273E+02  0.00000000000E+00 0.  1.
          5    1    4    4  501    0 -0.38654573548E+01 -0.37918278319E+02 -0.87983455926E+00  0.38353410540E+02  0.41800000000E+01 0. -1.
         -5    1    4    4    0  501 -0.94246233416E+00  0.57267214331E+02 -0.13878926473E+03  0.15020104686E+03  0.41800000000E+01 0. -1.
</event>
<event>
11    1  0.8864208E-009  0.1660421E+03  0.7561462E-02  0.1081528E+00
         22   -1    0    0    0    0  0.00000000000E+00  0.00000000000E+00  0.18175242374E+04  0.18175242374E+04  0.00000000000E+00 0. -1.
         22   -1    0    0    0    0 -0.00000000000E+00 -0.00000000000E+00 -0.24721817847E+04  0.24721817847E+04  0.00000000000E+00 0.  1.
         24    2    1    2    0    0  0.89300957701E+01  0.34541924865E+02 -0.21109529477E+04  0.21127528080E+04  0.79556202203E+02 0.  0.
         25    2    1    2    0    0 -0.10890037155E+03  0.94652712063E+01 -0.33848125990E+03  0.37704985293E+03  0.12509254976E+03 0.  0.
        -24    2    1    2    0    0  0.99970275779E+02 -0.44007196071E+02  0.17947766602E+04  0.17999033612E+04  0.80611165582E+02 0.  0.
        -11    1    3    3    0    0  0.12956990728E+02 -0.10997726321E+02 -0.14983317680E+04  0.14984281500E+04  0.00000000000E+00 0.  1.
         12    1    3    3    0    0 -0.40268949576E+01  0.45539651185E+02 -0.61262117966E+03  0.61432465805E+03  0.00000000000E+00 0. -1.
         13    1    5    5    0    0  0.94403985672E+02 -0.71402668915E+01  0.14576329519E+04  0.14607042542E+04  0.00000000000E+00 0. -1.
        -14    1    5    5    0    0  0.55662901076E+01 -0.36866929180E+02  0.33714370837E+03  0.33919910693E+03  0.00000000000E+00 0.  1.
          5    1    4    4  501    0 -0.24895590102E+02  0.56556208334E+02 -0.79951204714E+02  0.10113388474E+03  0.41800000000E+01 0. -1.
         -5    1    4    4    0  501 -0.84004781448E+02 -0.47090937128E+02 -0.25853005518E+03  0.27591596818E+03  0.41800000000E+01 0. -1.
</event>
<event>
11    1  0.8864208E-009  0.4869351E+03  0.7561462E-02  0.9423199E-01
         22   -1    0    0    0    0  0.00000000000E+00  0.00000000000E+00  0.32142712424E+04  0.32142712424E+04  0.00000000000E+00 0. -1.
         22   -1    0    0    0    0 -0.00000000000E+00 -0.00000000000E+00 -0.65274427240E+03  0.65274427240E+03  0.00000000000E+00 0.  1.
         24    2    1    2    0    0  0.13076110355E+03  0.45316109673E+03 -0.52637756104E+03  0.71135996216E+03  0.80661100946E+02 0.  0.
         25    2    1    2    0    0 -0.21103022687E+03 -0.40687051609E+03  0.17873169441E+04  0.18493853209E+04  0.12508730161E+03 0.  0.
        -24    2    1    2    0    0  0.80269123322E+02 -0.46290580636E+02  0.13005875869E+04  0.13062702317E+04  0.78917025659E+02 0.  0.
        -13    1    3    3    0    0  0.12518245056E+03  0.44119141854E+03 -0.52640157230E+03  0.69815408689E+03  0.00000000000E+00 0.  1.
         14    1    3    3    0    0  0.55786529950E+01  0.11969678189E+02  0.24011255060E-01  0.13205875273E+02  0.00000000000E+00 0. -1.
         11    1    5    5    0    0  0.75869032426E+02 -0.41493808152E+01  0.67845529568E+03  0.68269679630E+03  0.00000000000E+00 0. -1.
        -12    1    5    5    0    0  0.44000908959E+01 -0.42141199821E+02  0.62213229126E+03  0.62357343541E+03  0.00000000000E+00 0.  1.
          5    1    4    4  501    0 -0.21719269244E+03 -0.41072204967E+03  0.17722365459E+04  0.18321313039E+04  0.41800000000E+01 0. -1.
         -5    1    4    4    0  501  0.61624655645E+01  0.38515335801E+01  0.15080398135E+02  0.17254016942E+02  0.41800000000E+01 0. -1.
</event>
<event>
11    1  0.8864208E-009  0.1381330E+03  0.7561462E-02  0.1109661E+00
         22   -1    0    0    0    0  0.00000000000E+00  0.00000000000E+00  0.10783715442E+04  0.10783715442E+04  0.00000000000E+00 0. -1.
         22   -1    0    0    0    0 -0.00000000000E+00 -0.00000000000E+00 -0.18676136748E+04  0.18676136748E+04  0.00000000000E+00 0.  1.
         24    2    1    2    0    0  0.58251859744E+02 -0.55562259929E+01 -0.18272882092E+04  0.18296804228E+04  0.72966427482E+02 0.  0.
         25    2    1    2    0    0 -0.63141530048E+02  0.10991712414E+02  0.94474123866E+02  0.16936329680E+03  0.12510353977E+03 0.  0.
        -24    2    1    2    0    0  0.48896703040E+01 -0.54354864211E+01  0.94357195466E+03  0.94694149932E+03  0.79477771275E+02 0.  0.
        -13    1    3    3    0    0  0.74194584851E+02 -0.92137662317E+01 -0.16306597051E+04  0.16323727527E+04  0.00000000000E+00 0.  1.
         14    1    3    3    0    0 -0.15942725107E+02  0.36575402387E+01 -0.19662850408E+03  0.19730767015E+03  0.00000000000E+00 0. -1.
         13    1    5    5    0    0  0.26511908818E+02  0.68562490803E+01  0.83921180207E+03  0.83965846520E+03  0.00000000000E+00 0. -1.
        -14    1    5    5    0    0 -0.21622238514E+02 -0.12291735501E+02  0.10436015259E+03  0.10728303411E+03  0.00000000000E+00 0.  1.
          5    1    4    4  501    0 -0.27444259155E+02 -0.50835632059E+02  0.10162652689E+02  0.58806468667E+02  0.41800000000E+01 0. -1.
         -5    1    4    4    0  501 -0.35697270892E+02  0.61827344473E+02  0.84311471177E+02  0.11055682813E+03  0.41800000000E+01 0. -1.
</event>
<event>
11    1  0.8864208E-009  0.1711864E+03  0.7561462E-02  0.1077004E+00
         22   -1    0    0    0    0  0.00000000000E+00  0.00000000000E+00  0.10695736886E+04  0.10695736886E+04  0.00000000000E+00 0.  1.
         22   -1    0    0    0    0 -0.00000000000E+00 -0.00000000000E+00 -0.23270738893E+03  0.23270738893E+03  0.00000000000E+00 0.  1.
        -24    2    1    2    0    0 -0.32185856317E+02 -0.79332839749E+02 -0.15296218987E+03  0.19263004332E+03  0.79870352750E+02 0.  0.
         25    2    1    2    0    0 -0.52022560674E+02  0.15474535897E+03  0.14743599198E+03  0.25305704533E+03  0.12509206018E+03 0.  0.
         24    2    1    2    0    0  0.84208416991E+02 -0.75412519222E+02  0.84239249761E+03  0.85659398892E+03  0.10653654903E+03 0.  0.
        -11    1    5    5    0    0  0.85862588806E+02 -0.41962870409E+02  0.77953441026E+03  0.78537071719E+03  0.00000000000E+00 0.  1.
         12    1    5    5    0    0 -0.16541718146E+01 -0.33449648813E+02  0.62858087353E+02  0.71223271729E+02  0.00000000000E+00 0. -1.
         13    1    3    3    0    0 -0.19989372535E+02 -0.97976091803E+01  0.19934256970E+01  0.22350434135E+02  0.00000000000E+00 0. -1.
        -14    1    3    3    0    0 -0.12196483782E+02 -0.69535230569E+02 -0.15495561557E+03  0.17027960918E+03  0.00000000000E+00 0.  1.
          5    1    4    4  501    0 -0.40207580912E+02  0.56160804360E+02 -0.68508347776E+01  0.69534824702E+02  0.41800000000E+01 0. -1.
         -5    1    4    4    0  501 -0.11814979762E+02  0.98584554612E+02  0.15428682676E+03  0.18352222063E+03  0.41800000000E+01 0. -1.
</event>
<event>
11    1  0.8864208E-009  0.1738459E+03  0.7561462E-02  0.1074732E+00
         22   -1    0    0    0    0  0.00000000000E+00  0.00000000000E+00  0.32659481793E+02  0.32659481793E+02  0.00000000000E+00 0. -1.
         22   -1    0    0    0    0 -0.00000000000E+00 -0.00000000000E+00 -0.23423952597E+04  0.23423952597E+04  0.00000000000E+00 0. -1.
         24    2    1    2    0    0  0.22152704451E+02  0.11826778312E+03 -0.17093298284E+04  0.17154459065E+04  0.80425027049E+02 0.  0.
         25    2    1    2    0    0 -0.29700136014E+02 -0.11922845426E+03 -0.50057958870E+03  0.53040040039E+03  0.12508851955E+03 0.  0.
        -24    2    1    2    0    0  0.75474315630E+01  0.96067113971E+00 -0.99826360822E+02  0.12920843464E+03  0.81680050528E+02 0.  0.
        -11    1    3    3    0    0  0.16832491321E+02  0.20337808573E+02 -0.87081300799E+03  0.87121309339E+03  0.00000000000E+00 0.  1.
         12    1    3    3    0    0  0.53202131301E+01  0.97929974543E+02 -0.83851682039E+03  0.84423281307E+03  0.00000000000E+00 0. -1.
         13    1    5    5    0    0  0.41680392008E+02  0.14059762980E+02 -0.66539762678E+02  0.79765105342E+02  0.00000000000E+00 0. -1.
        -14    1    5    5    0    0 -0.34132960445E+02 -0.13099091840E+02 -0.33286598144E+02  0.49443329296E+02  0.00000000000E+00 0.  1.
          5    1    4    4  501    0 -0.22533437296E+02 -0.13674511692E+03 -0.31952317210E+03  0.34830950706E+03  0.41800000000E+01 0.  1.
         -5    1    4    4    0  501 -0.71666987180E+01  0.17516662664E+02 -0.18105641660E+03  0.18209089333E+03  0.41800000000E+01 0.  1.
</event>
<event>
11    1  0.8864208E-009  0.2179416E+03  0.7561462E-02  0.1042515E+00
         22   -1    0    0    0    0  0.00000000000E+00  0.00000000000E+00  0.37556632622E+03  0.37556632622E+03  0.00000000000E+00 0.  1.
         22   -1    0    0    0    0 -0.00000000000E+00 -0.00000000000E+00 -0.10641168947E+04  0.10641168947E+04  0.00000000000E+00 0.  1.
         24    2    1    2    0    0 -0.38200551393E+02  0.17066305855E+03 -0.83965792191E+03  0.86132623092E+03  0.79197781314E+02 0.  0.
         25    2    1    2    0    0  0.12075283555E+02 -0.20315986041E+03 -0.13759064007E+03  0.27567846216E+03  0.12509072271E+03 0.  0.
        -24    2    1    2    0    0  0.26125267837E+02  0.32496801862E+02  0.28869799355E+03  0.30267852780E+03  0.80803390779E+02 0.  0.
        -11    1    3    3    0    0 -0.62202896195E+02  0.10603050889E+03 -0.52395855997E+03  0.53818606604E+03  0.00000000000E+00 0.  1.
         12    1    3    3    0    0  0.24002344803E+02  0.64632549667E+02 -0.31569936194E+03  0.32314016488E+03  0.00000000000E+00 0. -1.
         11    1    5    5    0    0  0.12948906520E+02  0.12831747710E+02  0.62964023682E+01  0.19286591511E+02  0.00000000000E+00 0. -1.
        -12    1    5    5    0    0  0.13176361318E+02  0.19665054153E+02  0.28240159118E+03  0.28339193629E+03  0.00000000000E+00 0.  1.
          5    1    4    4  501    0  0.77838653539E+01 -0.17277207117E+03 -0.46023839010E+02  0.17901520409E+03  0.41800000000E+01 0. -1.
         -5    1    4    4    0  501  0.42914182013E+01 -0.30387789242E+02 -0.91566801060E+02  0.96663258075E+02  0.41800000000E+01 0. -1.
</event>
<event>
11    1  0.8864208E-009  0.1352026E+03  0.7561462E-02  0.1113037E+00
         22   -1    0    0    0    0  0.00000000000E+00  0.00000000000E+00  0.29924790718E+03  0.29924790718E+03  0.00000000000E+00 0.  1.
         22   -1    0    0    0    0 -0.00000000000E+00 -0.00000000000E+00 -0.24541466971E+03  0.24541466971E+03  0.00000000000E+00 0.  1.
         24    2    1    2    0    0  0.38946067544E+02  0.22091035077E+02 -0.11690335786E+03  0.14779447636E+03  0.78562091095E+02 0.  0.
         25    2    1    2    0    0 -0.51662413250E+02 -0.54159626047E+02 -0.54116008312E+02  0.15549468312E+03  0.12509110314E+03 0.  0.
        -24    2    1    2    0    0  0.12716345707E+02  0.32068590970E+02  0.22485260364E+03  0.24137341742E+03  0.80699029100E+02 0.  0.
        -13    1    3    3    0    0  0.28023530713E+00 -0.23998800678E+02 -0.61468012061E+02  0.65987403893E+02  0.00000000000E+00 0.  1.
         14    1    3    3    0    0  0.38665832236E+02  0.46089835755E+02 -0.55435345795E+02  0.81807072468E+02  0.00000000000E+00 0. -1.
         11    1    5    5    0    0  0.84537378945E+01 -0.25617718686E+01 -0.41275573580E+01  0.97501327806E+01  0.00000000000E+00 0. -1.
        -12    1    5    5    0    0  0.42626078124E+01  0.34630362839E+02  0.22898016100E+03  0.23162328464E+03  0.00000000000E+00 0.  1.
          5    1    4    4  501    0 -0.40954458217E+01 -0.81526436061E+02 -0.58149623497E+02  0.10031043598E+03  0.41800000000E+01 0.  1.
         -5    1    4    4    0  501 -0.47566967429E+02  0.27366810014E+02  0.40336151848E+01  0.55184247138E+02  0.41800000000E+01 0.  1.
</event>
<event>
11    1  0.8864208E-009  0.1418449E+03  0.7561462E-02  0.1105516E+00
         22   -1    0    0    0    0  0.00000000000E+00  0.00000000000E+00  0.36657894417E+03  0.36657894417E+03  0.00000000000E+00 0.  1.
         22   -1    0    0    0    0 -0.00000000000E+00 -0.00000000000E+00 -0.11829311333E+04  0.11829311333E+04  0.00000000000E+00 0.  1.
         24    2    1    2    0    0 -0.46443742392E+02  0.16751195126E+02 -0.83555768074E+03  0.84074389958E+03  0.79095152094E+02 0.  0.
         25    2    1    2    0    0 -0.13506084014E+02  0.15261389298E+02 -0.32522190349E+03  0.34904427545E+03  0.12508914983E+03 0.  0.
        -24    2    1    2    0    0  0.59949826406E+02 -0.32012584424E+02  0.34442739506E+03  0.35972190247E+03  0.78427223590E+02 0.  0.
        -11    1    3    3    0    0 -0.57782888663E+02  0.17321058474E+02 -0.81524414246E+03  0.81747286995E+03  0.00000000000E+00 0.  1.
         12    1    3    3    0    0  0.11339146271E+02 -0.56986334810E+00 -0.20313538281E+02  0.23271029627E+02  0.00000000000E+00 0. -1.
         13    1    5    5    0    0  0.45339843400E+02 -0.37170294452E+02  0.10884668707E+03  0.12363225095E+03  0.00000000000E+00 0. -1.
        -14    1    5    5    0    0  0.14609983005E+02  0.51577100283E+01  0.23558070799E+03  0.23608965152E+03  0.00000000000E+00 0.  1.
          5    1    4    4  501    0  0.17113292507E+01  0.69612873692E+02 -0.16596493435E+03  0.18002975495E+03  0.41800000000E+01 0.  1.
         -5    1    4    4    0  501 -0.15217413265E+02 -0.54351484394E+02 -0.15925696914E+03  0.16901452051E+03  0.41800000000E+01 0.  1.
</event>
<event>
11    1  0.8864208E-009  0.1277327E+03  0.7561462E-02  0.1122087E+00
         22   -1    0    0    0    0  0.00000000000E+00  0.00000000000E+00  0.95569402186E+03  0.95569402186E+03  0.00000000000E+00 0.  1.
         22   -1    0    0    0    0 -0.00000000000E+00 -0.00000000000E+00 -0.28174973971E+03  0.28174973971E+03  0.00000000000E+00 0. -1.
        -24    2    1    2    0    0  0.15801976568E+02  0.11648417859E+02 -0.16471348807E+03  0.18417153326E+03  0.80020200022E+02 0.  0.
         25    2    1    2    0    0  0.56271955536E+01  0.34670363249E+01 -0.68075465742E+02  0.14256524147E+03  0.12508754282E+03 0.  0.
         24    2    1    2    0    0 -0.21429172122E+02 -0.15115454184E+02  0.90673323596E+03  0.91070698684E+03  0.80835439659E+02 0.  0.
        -13    1    5    5    0    0 -0.95360415716E+01 -0.33388708093E+01  0.87291636101E+03  0.87297483210E+03  0.00000000000E+00 0.  1.
         14    1    5    5    0    0 -0.11893130550E+02 -0.11776583374E+02  0.33816874949E+02  0.37732154743E+02  0.00000000000E+00 0. -1.
         13    1    3    3    0    0  0.10636647312E+02  0.15251103230E+02 -0.17286979678E+03  0.17386690615E+03  0.00000000000E+00 0. -1.
        -14    1    3    3    0    0  0.51653292558E+01 -0.36026853710E+01  0.81563087105E+01  0.10304627115E+02  0.00000000000E+00 0.  1.
          5    1    4    4  501    0  0.41777766874E+01 -0.50119456031E+02 -0.72808259493E+02  0.88588536174E+02  0.41800000000E+01 0. -1.
         -5    1    4    4    0  501  0.14494188663E+01  0.53586492356E+02  0.47327937514E+01  0.53976705298E+02  0.41800000000E+01 0. -1.
</event>
<event>
11    1  0.8864208E-009  0.1456974E+03  0.7561462E-02  0.1101358E+00
         22   -1    0    0    0    0  0.00000000000E+00  0.00000000000E+00  0.21012926921E+03  0.21012926921E+03  0.00000000000E+00 0.  1.
         22   -1    0    0    0    0 -0.00000000000E+00 -0.00000000000E+00 -0.18963082652E+04  0.18963082652E+04  0.00000000000E+00 0. -1.
        -24    2    1    2    0    0  0.33771085665E+02  0.74494137019E+02 -0.14346308041E+04  0.14390809213E+04  0.78092837518E+02 0.  0.
         25    2    1    2    0    0  0.12209095072E+02 -0.50402757445E+02 -0.43768013123E+03  0.45814943917E+03  0.12509001309E+03 0.  0.
         24    2    1    2    0    0 -0.45980180737E+02 -0.24091379574E+02  0.18613193933E+03  0.20920717397E+03  0.80174629472E+02 0.  0.
        -13    1    5    5    0    0 -0.30725133376E+02 -0.34313678711E+01  0.18022155541E+03  0.18285408702E+03  0.00000000000E+00 0.  1.
         14    1    5    5    0    0 -0.15255047362E+02 -0.20660011703E+02  0.59103839201E+01  0.26353086947E+02  0.00000000000E+00 0. -1.
         11    1    3    3    0    0  0.12363860968E+02  0.44296908530E+02 -0.12462300761E+04  0.12470783792E+04  0.00000000000E+00 0. -1.
        -12    1    3    3    0    0  0.21407224697E+02  0.30197228489E+02 -0.18840072795E+03  0.19200254209E+03  0.00000000000E+00 0.  1.
          5    1    4    4  501    0  0.35153806545E+02  0.33252004939E+02 -0.15668218303E+03  0.16403738850E+03  0.41800000000E+01 0.  1.
         -5    1    4    4    0  501 -0.22944711472E+02 -0.83654762384E+02 -0.28099794821E+03  0.29411205067E+03  0.41800000000E+01 0.  1.
</event>
<event>
11    1  0.8864208E-009  0.2123648E+03  0.7561462E-02  0.1046109E+00
         22   -1    0    0    0    0  0.00000000000E+00  0.00000000000E+00  0.18225963434E+04  0.18225963434E+04  0.00000000000E+00 0.  1.
         22   -1    0    0    0    0 -0.00000000000E+00 -0.00000000000E+00 -0.14256972813E+03  0.14256972813E+03  0.00000000000E+00 0. -1.
        -24    2    1    2    0    0 -0.16649637052E+03 -0.56267646448E+02 -0.43073406140E+02  0.19790337897E+03  0.80145740121E+02 0.  0.
         25    2    1    2    0    0  0.14474685615E+03  0.31200797195E+02  0.43556432236E+03  0.47674945813E+03  0.12509446352E+03 0.  0.
         24    2    1    2    0    0  0.21749514366E+02  0.25066849253E+02  0.12875356991E+04  0.12905132344E+04  0.81085409343E+02 0.  0.
        -11    1    5    5    0    0 -0.37280645711E+00  0.15314263523E+02  0.11874528272E+04  0.11875516336E+04  0.00000000000E+00 0.  1.
         12    1    5    5    0    0  0.22122320823E+02  0.97525857301E+01  0.10008287184E+03  0.10296160081E+03  0.00000000000E+00 0. -1.
         11    1    3    3    0    0 -0.17529597490E+03 -0.50599467729E+02 -0.42930009792E+02  0.18743524400E+03  0.00000000000E+00 0. -1.
        -12    1    3    3    0    0  0.87996043853E+01 -0.56681787191E+01 -0.14339634875E+00  0.10468134974E+02  0.00000000000E+00 0.  1.
          5    1    4    4  501    0  0.13691828988E+03  0.68555783171E+02  0.31595764497E+03  0.35113134199E+03  0.41800000000E+01 0.  1.
         -5    1    4    4    0  501  0.78285662671E+01 -0.37354985976E+02  0.11960667739E+03  0.12561811614E+03  0.41800000000E+01 0.  1.
</event>
<event>
11    1  0.8864208E-009  0.1443639E+03  0.7561462E-02  0.1102781E+00
         22   -1    0    0    0    0  0.00000000000E+00  0.00000000000E+00  0.98861073123E+03  0.98861073123E+03  0.00000000000E+00 0. -1.
         22   -1    0    0    0    0 -0.00000000000E+00 -0.00000000000E+00 -0.75728243044E+03  0.75728243044E+03  0.00000000000E+00 0.  1.
         24    2    1    2    0    0 -0.13652343147E+02 -0.41457058570E+01 -0.73265438053E+03  0.73718522574E+03  0.80349501511E+02 0.  0.
         25    2    1    2    0    0  0.37614820678E+02 -0.63684673100E+02  0.26932164694E+03  0.30601875753E+03  0.12507085244E+03 0.  0.
        -24    2    1    2    0    0 -0.23962477532E+02  0.67830378957E+02  0.69466103438E+03  0.70268917839E+03  0.77736530046E+02 0.  0.
        -11    1    3    3    0    0 -0.43650732871E+02  0.14259728899E+02 -0.45420710761E+03  0.45652253280E+03  0.00000000000E+00 0.  1.
         12    1    3    3    0    0  0.29998389724E+02 -0.18405434756E+02 -0.27844727292E+03  0.28066269295E+03  0.00000000000E+00 0. -1.
         13    1    5    5    0    0 -0.12782839317E+02  0.64918254424E+02  0.68326669966E+03  0.68646279113E+03  0.00000000000E+00 0. -1.
        -14    1    5    5    0    0 -0.11179638215E+02  0.29121245328E+01  0.11394334718E+02  0.16226387262E+02  0.00000000000E+00 0.  1.
          5    1    4    4  501    0  0.17150034264E+02  0.34243263562E+02  0.38742581188E+02  0.54636844453E+02  0.41800000000E+01 0. -1.
         -5    1    4    4    0  501  0.20464786415E+02 -0.97927936662E+02  0.23057906575E+03  0.25138191308E+03  0.41800000000E+01 0. -1.
</event>
<event>
11    1  0.8864208E-009  0.1680573E+03  0.7561462E-02  0.1079735E+00
         22   -1    0    0    0    0  0.00000000000E+00  0.00000000000E+00  0.10710009279E+04  0.10710009279E+04  0.00000000000E+00 0. -1.
         22   -1    0    0    0    0 -0.00000000000E+00 -0.00000000000E+00 -0.35336745129E+03  0.35336745129E+03  0.00000000000E+00 0. -1.
         24    2    1    2    0    0 -0.92372895899E+01  0.10747341041E+03 -0.28727442932E+03  0.31698910284E+03  0.79496113820E+02 0.  0.
         25    2    1    2    0    0  0.23012053245E+02 -0.20199180558E+03  0.26414969187E+03  0.35602397833E+03  0.12509104412E+03 0.  0.
        -24    2    1    2    0    0 -0.13774763655E+02  0.94518395168E+02  0.74075821405E+03  0.75135529799E+03  0.81783745325E+02 0.  0.
        -11    1    3    3    0    0  0.12286190395E+02  0.64246111365E+02 -0.76026877059E+02  0.10029256869E+03  0.00000000000E+00 0.  1.
         12    1    3    3    0    0 -0.21523479985E+02  0.43227299046E+02 -0.21124755227E+03  0.21669653415E+03  0.00000000000E+00 0. -1.
         11    1    5    5    0    0 -0.23007243876E+02  0.10613131870E+03  0.68926723508E+03  0.69776966933E+03  0.00000000000E+00 0. -1.
        -12    1    5    5    0    0  0.92324802215E+01 -0.11612923532E+02  0.51490978968E+02  0.53585628662E+02  0.00000000000E+00 0.  1.
          5    1    4    4  501    0  0.20150419019E+02 -0.19046857954E+03  0.27780170174E+03  0.33745455556E+03  0.41800000000E+01 0.  1.
         -5    1    4    4    0  501  0.28616342252E+01 -0.11523226035E+02 -0.13652009869E+02  0.18569422774E+02  0.41800000000E+01 0.  1.
</event>
<event>
11    1  0.8864208E-009  0.1588830E+03  0.7561462E-02  0.1088133E+00
         22   -1    0    0    0    0  0.00000000000E+00  0.00000000000E+00  0.55652962450E+03  0.55652962450E+03  0.00000000000E+00 0.  1.
         22   -1    0    0    0    0 -0.00000000000E+00 -0.00000000000E+00 -0.69333373884E+03  0.69333373884E+03  0.00000000000E+00 0.  1.
         24    2    1    2    0    0 -0.55309072730E+02  0.90756252193E+02 -0.53902480706E+03  0.55549270290E+03  0.82028102011E+02 0.  0.
         25    2    1    2    0    0  0.55049625294E+02 -0.38321320530E+02 -0.10630601753E+03  0.17733389176E+03  0.12508938784E+03 0.  0.
        -24    2    1    2    0    0  0.25944743674E+00 -0.52434931663E+02  0.50852671025E+03  0.51703676868E+03  0.77318275668E+02 0.  0.
        -13    1    3    3    0    0 -0.65372953977E+02  0.29693824463E+02 -0.26387818235E+03  0.27347219501E+03  0.00000000000E+00 0.  1.
         14    1    3    3    0    0  0.10063881247E+02  0.61062427730E+02 -0.27514662471E+03  0.28202050790E+03  0.00000000000E+00 0. -1.
         13    1    5    5    0    0 -0.25332102077E+02 -0.21582527218E+01  0.29799040396E+03  0.29907299159E+03  0.00000000000E+00 0. -1.
        -14    1    5    5    0    0  0.25591549513E+02 -0.50276678941E+02  0.21053630630E+03  0.21796377709E+03  0.00000000000E+00 0.  1.
          5    1    4    4  501    0 -0.33935494828E+02 -0.36078578800E+02 -0.20960092067E+02  0.53945152859E+02  0.41800000000E+01 0. -1.
         -5    1    4    4    0  501  0.88985120122E+02 -0.22427417296E+01 -0.85345925464E+02  0.12338873890E+03  0.41800000000E+01 0. -1.
</event>
<event>
11    1  0.8864208E-009  0.1645828E+03  0.7561462E-02  0.1082844E+00
         22   -1    0    0    0    0  0.00000000000E+00  0.00000000000E+00  0.35928058141E+03  0.35928058141E+03  0.00000000000E+00 0.  1.
         22   -1    0    0    0    0 -0.00000000000E+00 -0.00000000000E+00 -0.14169851325E+04  0.14169851325E+04  0.00000000000E+00 0. -1.
        -24    2    1    2    0    0  0.25180398731E+02  0.28749689542E+01 -0.12713784348E+04  0.12741488689E+04  0.80061837620E+02 0.  0.
         25    2    1    2    0    0 -0.12580788154E+03  0.25640309551E+02 -0.67677662945E+02  0.19160233611E+03  0.12508453385E+03 0.  0.
         24    2    1    2    0    0  0.10062748281E+03 -0.28515278505E+02  0.28135154662E+03  0.31051450889E+03  0.79508213666E+02 0.  0.
        -11    1    5    5    0    0  0.91489101812E+02 -0.13311426854E+02  0.27731781916E+03  0.29232280557E+03  0.00000000000E+00 0.  1.
         12    1    5    5    0    0  0.91383810020E+01 -0.15203851651E+02  0.40337274613E+01  0.18191703317E+02  0.00000000000E+00 0. -1.
         13    1    3    3    0    0  0.35293159081E+02 -0.82288154701E+01 -0.12219927028E+04  0.12225299530E+04  0.00000000000E+00 0. -1.
        -14    1    3    3    0    0 -0.10112760350E+02  0.11103784424E+02 -0.49385732028E+02  0.51618915897E+02  0.00000000000E+00 0.  1.
          5    1    4    4  501    0 -0.10651606212E+03 -0.33799774731E+02 -0.64035025107E+02  0.12886447572E+03  0.41800000000E+01 0.  1.
         -5    1    4    4    0  501 -0.19291819427E+02  0.59440084282E+02 -0.36426378377E+01  0.62737860393E+02  0.41800000000E+01 0.  1.
</event>
<event>
11    1  0.8864208E-009  0.1614354E+03  0.7561462E-02  0.1085735E+00
         22   -1    0    0    0    0  0.00000000000E+00  0.00000000000E+00  0.15431355057E+04  0.15431355057E+04  0.00000000000E+00 0.  1.
         22   -1    0    0    0    0 -0.00000000000E+00 -0.00000000000E+00 -0.17619914825E+03  0.17619914825E+03  0.00000000000E+00 0. -1.
         24    2    1    2    0    0  0.16566011325E+02  0.13926130332E+02 -0.12171649301E+03  0.14794387166E+03  0.81265704042E+02 0.  0.
         25    2    1    2    0    0  0.86412025684E+02 -0.48249944610E+01  0.11296540514E+03  0.18947043202E+03  0.12509013989E+03 0.  0.
        -24    2    1    2    0    0 -0.10297803701E+03 -0.91011358711E+01  0.13756874453E+04  0.13819203503E+04  0.80626301797E+02 0.  0.
        -13    1    3    3    0    0 -0.21641486506E+02 -0.20882457417E+02 -0.62393175092E+02  0.69262827433E+02  0.00000000000E+00 0.  1.
         14    1    3    3    0    0  0.38207497831E+02  0.34808587749E+02 -0.59323317914E+02  0.78681044222E+02  0.00000000000E+00 0. -1.
         11    1    5    5    0    0 -0.40873366468E+02 -0.32860764333E+02  0.33199061101E+03  0.33610746453E+03  0.00000000000E+00 0. -1.
        -12    1    5    5    0    0 -0.62104670541E+02  0.23759628462E+02  0.10436968343E+04  0.10458128858E+04  0.00000000000E+00 0.  1.
          5    1    4    4  501    0 -0.16953527564E+02  0.25102115740E+02 -0.35804496097E+01  0.30786853215E+02  0.41800000000E+01 0. -1.
         -5    1    4    4    0  501  0.10336555325E+03 -0.29927110201E+02  0.11654585475E+03  0.15868357881E+03  0.41800000000E+01 0. -1.
</event>
<event>
11    1  0.8864208E-009  0.1768006E+03  0.7561462E-02  0.1072261E+00
         22   -1    0    0    0    0  0.00000000000E+00  0.00000000000E+00  0.79571325806E+03  0.79571325806E+03  0.00000000000E+00 0.  1.
         22   -1    0    0    0    0 -0.00000000000E+00 -0.00000000000E+00 -0.11785337471E+03  0.11785337471E+03  0.00000000000E+00 0. -1.
         24    2    1    2    0    0 -0.67519909688E+01 -0.11780653876E+03 -0.14513108326E+01  0.14719473952E+03  0.87978492163E+02 0.  0.
         25    2    1    2    0    0  0.37741117646E+02  0.14539042109E+03  0.20358647915E+03  0.28223521765E+03  0.12508595878E+03 0.  0.
        -24    2    1    2    0    0 -0.30989126677E+02 -0.27583882327E+02  0.47572471503E+03  0.48413667560E+03  0.79706459178E+02 0.  0.
        -13    1    3    3    0    0 -0.99545379190E+01 -0.26355739883E+02  0.38200930354E+02  0.47466081889E+02  0.00000000000E+00 0.  1.
         14    1    3    3    0    0  0.32025469502E+01 -0.91450798878E+02 -0.39652241187E+02  0.99728657634E+02  0.00000000000E+00 0. -1.
         13    1    5    5    0    0 -0.25326981268E+02  0.23936128487E+02  0.13183251817E+03  0.13636057742E+03  0.00000000000E+00 0. -1.
        -14    1    5    5    0    0 -0.56621454087E+01 -0.51520010814E+02  0.34389219686E+03  0.34777609818E+03  0.00000000000E+00 0.  1.
          5    1    4    4  501    0 -0.21086274276E+02  0.96156004666E+02  0.49964506910E+02  0.11047412614E+03  0.41800000000E+01 0. -1.
         -5    1    4    4    0  501  0.58827391922E+02  0.49234416422E+02  0.15362197224E+03  0.17176109151E+03  0.41800000000E+01 0. -1.
</event>
<event>
11    1  0.8864208E-009  0.1834962E+03  0.7561462E-02  0.1066849E+00
         22   -1    0    0    0    0  0.00000000000E+00  0.00000000000E+00  0.96384966317E+03  0.96384966317E+03  0.00000000000E+00 0.  1.
         22   -1    0    0    0    0 -0.00000000000E+00 -0.00000000000E+00 -0.17091487704E+04  0.17091487704E+04  0.00000000000E+00 0.  1.
        -24    2    1    2    0    0  0.90019679182E+02 -0.98105863252E+02 -0.16149293975E+04  0.16224627291E+04  0.81609100510E+02 0.  0.
         25    2    1    2    0    0 -0.10837198585E+03  0.13413709200E+03  0.41018210045E+02  0.21694846326E+03  0.12508755089E+03 0.  0.
         24    2    1    2    0    0  0.18352306669E+02 -0.36031228749E+02  0.82861208024E+03  0.83358724122E+03  0.81453376834E+02 0.  0.
        -13    1    5    5    0    0  0.28068919525E+02 -0.35616798445E+02  0.81775430535E+03  0.81901069864E+03  0.00000000000E+00 0.  1.
         14    1    5    5    0    0 -0.97166128563E+01 -0.41443030366E+00  0.10857774891E+02  0.14576542575E+02  0.00000000000E+00 0. -1.
         11    1    3    3    0    0  0.30582491237E+02 -0.14820191786E+02 -0.14305829612E+03  0.14703946049E+03  0.00000000000E+00 0. -1.
        -12    1    3    3    0    0  0.59437187945E+02 -0.83285671466E+02 -0.14718711014E+04  0.14754232686E+04  0.00000000000E+00 0.  1.
          5    1    4    4  501    0 -0.97859892773E+02  0.48508490043E+02  0.65177801132E+02  0.12726056098E+03  0.41800000000E+01 0. -1.
         -5    1    4    4    0  501 -0.10512093078E+02  0.85628601958E+02 -0.24159591087E+02  0.89687902281E+02  0.41800000000E+01 0. -1.
</event>
<event>
11    1  0.8864208E-009  0.1786844E+03  0.7561462E-02  0.1070712E+00
         22   -1    0    0    0    0  0.00000000000E+00  0.00000000000E+00  0.71812561700E+03  0.71812561700E+03  0.00000000000E+00 0. -1.
         22   -1    0    0    0    0 -0.00000000000E+00 -0.00000000000E+00 -0.11781608296E+04  0.11781608296E+04  0.00000000000E+00 0.  1.
         24    2    1    2    0    0  0.72252126589E+02  0.10054756734E+01 -0.10770946596E+04  0.10824633502E+04  0.79828679238E+02 0.  0.
         25    2    1    2    0    0  0.41581371100E+02 -0.71130771971E+02 -0.25016607218E+02  0.15186111099E+03  0.12508944500E+03 0.  0.
        -24    2    1    2    0    0 -0.11383349769E+03  0.70125296297E+02  0.64207605414E+03  0.66196198549E+03  0.89757387165E+02 0.  0.
        -13    1    3    3    0    0  0.30190788883E+02  0.39446744803E+02 -0.57648540190E+03  0.57862159311E+03  0.00000000000E+00 0.  1.
         14    1    3    3    0    0  0.42061337706E+02 -0.38441269130E+02 -0.50060925766E+03  0.50384175706E+03  0.00000000000E+00 0. -1.
         11    1    5    5    0    0 -0.10251570866E+03  0.59341564740E+02  0.63278612051E+03  0.64377726438E+03  0.00000000000E+00 0. -1.
        -12    1    5    5    0    0 -0.11317789029E+02  0.10783731557E+02  0.92899336371E+01  0.18184721108E+02  0.00000000000E+00 0.  1.
          5    1    4    4  501    0 -0.22961242732E+02  0.21911275159E+02  0.95250566478E+01  0.33399427406E+02  0.41800000000E+01 0. -1.
         -5    1    4    4    0  501  0.64542613832E+02 -0.93042047129E+02 -0.34541663866E+02  0.11846168358E+03  0.41800000000E+01 0. -1.
</event>
<event>
11    1  0.8864208E-009  0.1418475E+03  0.7561462E-02  0.1105513E+00
         22   -1    0    0    0    0  0.00000000000E+00  0.00000000000E+00  0.80337928002E+03  0.80337928002E+03  0.00000000000E+00 0. -1.
         22   -1    0    0    0    0 -0.00000000000E+00 -0.00000000000E+00 -0.10589638718E+04  0.10589638718E+04  0.00000000000E+00 0. -1.
        -24    2    1    2    0    0  0.77277327085E+01 -0.46609210695E+02 -0.10195052862E+04  0.10230416947E+04  0.70648029662E+02 0.  0.
         25    2    1    2    0    0 -0.61407200724E+02  0.26982975945E+01  0.11161736250E+03  0.17856331761E+03  0.12509315599E+03 0.  0.
         24    2    1    2    0    0  0.53679468016E+02  0.43910913101E+02  0.65230333194E+03  0.66073813950E+03  0.79155533913E+02 0.  0.
        -11    1    5    5    0    0  0.38582689664E+02  0.39875207602E+01  0.10782686575E+03  0.11459126162E+03  0.00000000000E+00 0.  1.
         12    1    5    5    0    0  0.15096778352E+02  0.39923392341E+02  0.54447646619E+03  0.54614687787E+03  0.00000000000E+00 0. -1.
         11    1    3    3    0    0 -0.20542157309E+02 -0.26166413733E+02 -0.80751596884E+03  0.80820090409E+03  0.00000000000E+00 0. -1.
        -12    1    3    3    0    0  0.28269890017E+02 -0.20442796963E+02 -0.21198931736E+03  0.21484079059E+03  0.00000000000E+00 0.  1.
          5    1    4    4  501    0 -0.83493128797E+02 -0.38794393031E+02  0.75505518766E+02  0.11914135827E+03  0.41800000000E+01 0. -1.
         -5    1    4    4    0  501  0.22085928073E+02  0.41492690625E+02  0.36111843734E+02  0.59421959342E+02  0.41800000000E+01 0. -1.
</event>
<event>
11    1  0.8864208E-009  0.1754451E+03  0.7561462E-02  0.1073388E+00
         22   -1    0    0    0    0  0.00000000000E+00  0.00000000000E+00  0.65157380622E+03  0.65157380622E+03  0.00000000000E+00 0. -1.
         22   -1    0    0    0    0 -0.00000000000E+00 -0.00000000000E+00 -0.25016291748E+03  0.25016291748E+03  0.00000000000E+00 0. -1.
         24    2    1    2    0    0 -0.30062175972E+02  0.56714174477E+02 -0.19643927975E+03  0.21913200014E+03  0.72871193531E+02 0.  0.
         25    2    1    2    0    0  0.13948165742E+03 -0.17521084375E+02  0.33598046785E+03  0.38508579786E+03  0.12508427471E+03 0.  0.
        -24    2    1    2    0    0 -0.10941948145E+03 -0.39193090102E+02  0.26186970064E+03  0.29751892570E+03  0.80206295293E+02 0.  0.
        -13    1    3    3    0    0 -0.24265033994E+02  0.16080111713E+02 -0.14313330606E+02  0.32438145762E+02  0.00000000000E+00 0.  1.
         14    1    3    3    0    0 -0.57971419788E+01  0.40634062764E+02 -0.18212594914E+03  0.18669385438E+03  0.00000000000E+00 0. -1.
         13    1    5    5    0    0 -0.79903003926E+02 -0.55988460482E+02  0.23421135405E+03  0.25372062610E+03  0.00000000000E+00 0. -1.
        -14    1    5    5    0    0 -0.29516477526E+02  0.16795370380E+02  0.27658346589E+02  0.43798299599E+02  0.00000000000E+00 0.  1.
          5    1    4    4  501    0  0.28744285804E+02  0.47708509736E+02  0.13950772421E+03  0.15027379473E+03  0.41800000000E+01 0. -1.
         -5    1    4    4    0  501  0.11073737162E+03 -0.65229594111E+02  0.19647274364E+03  0.23481200313E+03  0.41800000000E+01 0. -1.
</event>
<event>
11    1  0.8864208E-009  0.1399298E+03  0.7561462E-02  0.1107637E+00
         22   -1    0    0    0    0  0.00000000000E+00  0.00000000000E+00  0.70133411874E+03  0.70133411874E+03  0.00000000000E+00 0.  1.
         22   -1    0    0    0    0 -0.00000000000E+00 -0.00000000000E+00 -0.47042170462E+03  0.47042170462E+03  0.00000000000E+00 0.  1.
         24    2    1    2    0    0  0.47525604919E+02 -0.15251976898E+02 -0.39302167131E+03  0.40361963502E+03  0.77145769353E+02 0.  0.
         25    2    1    2    0    0  0.12799809298E+02  0.39453997909E+02 -0.36759550247E+01  0.13183833401E+03  0.12508949036E+03 0.  0.
        -24    2    1    2    0    0 -0.60325414218E+02 -0.24202021011E+02  0.62761004046E+03  0.63629785434E+03  0.82193084450E+02 0.  0.
        -11    1    3    3    0    0  0.26030664586E+02  0.81153208506E+01 -0.34484746818E+03  0.34592373472E+03  0.00000000000E+00 0.  1.
         12    1    3    3    0    0  0.21494940334E+02 -0.23367297749E+02 -0.48174203133E+02  0.57695900301E+02  0.00000000000E+00 0. -1.
         13    1    5    5    0    0 -0.69874401110E+02 -0.33204613130E+02  0.35315819929E+03  0.36153242176E+03  0.00000000000E+00 0. -1.
        -14    1    5    5    0    0  0.95489868921E+01  0.90025921190E+01  0.27445184117E+03  0.27476543258E+03  0.00000000000E+00 0.  1.
          5    1    4    4  501    0 -0.30922658886E+02  0.32641728272E+02 -0.50181896795E+02  0.67508432237E+02  0.41800000000E+01 0. -1.
         -5    1    4    4    0  501  0.43722468184E+02  0.68122696372E+01  0.46505941770E+02  0.64329901769E+02  0.41800000000E+01 0. -1.
</event>
<event>
11    1  0.8864208E-009  0.1392217E+03  0.7561462E-02  0.1108431E+00
         22   -1    0    0    0    0  0.00000000000E+00  0.00000000000E+00  0.16253195132E+03  0.16253195132E+03  0.00000000000E+00 0. -1.
         22   -1    0    0    0    0 -0.00000000000E+00 -0.00000000000E+00 -0.14428162557E+04  0.14428162557E+04  0.00000000000E+00 0. -1.
        -24    2    1    2    0    0 -0.55259691950E+02  0.19241394892E+02 -0.11949141694E+04  0.11989628312E+04  0.79171545068E+02 0.  0.
         25    2    1    2    0    0  0.83783749986E+02 -0.52485716752E+02 -0.20238293031E+03  0.25764447711E+03  0.12508940355E+03 0.  0.
         24    2    1    2    0    0 -0.28524058036E+02  0.33244321861E+02  0.11701279530E+03  0.14874089874E+03  0.80703493550E+02 0.  0.
        -13    1    5    5    0    0  0.21349004991E+02  0.23761315694E+02  0.16085279110E+02  0.35764736007E+02  0.00000000000E+00 0.  1.
         14    1    5    5    0    0 -0.49873063026E+02  0.94830061665E+01  0.10092751619E+03  0.11297616273E+03  0.00000000000E+00 0. -1.
         11    1    3    3    0    0 -0.70867439457E+02  0.21097165894E+02 -0.71960095734E+03  0.72338981344E+03  0.00000000000E+00 0. -1.
        -12    1    3    3    0    0  0.15607747507E+02 -0.18557710024E+01 -0.47531321203E+03  0.47557301774E+03  0.00000000000E+00 0.  1.
          5    1    4    4  501    0 -0.42860907284E+01 -0.38550119578E+02 -0.29229473171E+01  0.39121583739E+02  0.41800000000E+01 0.  1.
         -5    1    4    4    0  501  0.88069840714E+02 -0.13935597175E+02 -0.19945998299E+03  0.21852289337E+03  0.41800000000E+01 0.  1.
</event>
<event>
11    1  0.8864208E-009  0.1623793E+03  0.7561462E-02  0.1084861E+00
         22   -1    0    0    0    0  0.00000000000E+00  0.00000000000E+00  0.98311929188E+03  0.98311929188E+03  0.00000000000E+00 0.  1.
         22   -1    0    0    0    0 -0.00000000000E+00 -0.00000000000E+00 -0.59249299465E+03  0.59249299465E+03  0.00000000000E+00 0.  1.
        -24    2    1    2    0    0 -0.10317343233E+03 -0.10897836466E+01 -0.55203861556E+03  0.56736600038E+03  0.80694488961E+02 0.  0.
         25    2    1    2    0    0  0.11529766224E+03 -0.31785610365E+02  0.21883346695E+03  0.27899710536E+03  0.12508965825E+03 0.  0.
         24    2    1    2    0    0 -0.12124229915E+02  0.32875394011E+02  0.72383144584E+03  0.72924918079E+03  0.81514521456E+02 0.  0.
        -13    1    5    5    0    0 -0.10781425417E+02 -0.18760240752E+02  0.45417831399E+03  0.45469344251E+03  0.00000000000E+00 0.  1.
         14    1    5    5    0    0 -0.13428044985E+01  0.51635634763E+02  0.26965313185E+03  0.27455573828E+03  0.00000000000E+00 0. -1.
         13    1    3    3    0    0 -0.32450796324E+02  0.36956313858E+02 -0.16962085587E+03  0.17660707251E+03  0.00000000000E+00 0. -1.
        -14    1    3    3    0    0 -0.70722636005E+02 -0.38046097505E+02 -0.38241775969E+03  0.39075892786E+03  0.00000000000E+00 0.  1.
          5    1    4    4  501    0  0.32889026253E+02 -0.42799240512E+02  0.11182385746E+02  0.55280929688E+02  0.41800000000E+01 0.  1.
         -5    1    4    4    0  501  0.82408635992E+02  0.11013630147E+02  0.20765108120E+03  0.22371617567E+03  0.41800000000E+01 0.  1.
</event>
<event>
11    1  0.8864208E-009  0.1642417E+03  0.7561462E-02  0.1083154E+00
         22   -1    0    0    0    0  0.00000000000E+00  0.00000000000E+00  0.20515753705E+04  0.20515753705E+04  0.00000000000E+00 0.  1.
         22   -1    0    0    0    0 -0.00000000000E+00 -0.00000000000E+00 -0.12421689039E+04  0.12421689039E+04  0.00000000000E+00 0.  1.
         24    2    1    2    0    0  0.94579053255E+02 -0.48731990660E+02 -0.12251901181E+04  0.12323181594E+04  0.78722400516E+02 0.  0.
         25    2    1    2    0    0 -0.65458108984E+02  0.12586185144E+03  0.82893131543E+03  0.85023515588E+03  0.12508686945E+03 0.  0.
        -24    2    1    2    0    0 -0.29120944271E+02 -0.77129860780E+02  0.12056652692E+04  0.12111909592E+04  0.80979956344E+02 0.  0.
        -13    1    3    3    0    0  0.99486084672E+02 -0.18011140936E+02 -0.91225448835E+03  0.91783992818E+03  0.00000000000E+00 0.  1.
         14    1    3    3    0    0 -0.49070314169E+01 -0.30720849723E+02 -0.31293562972E+03  0.31447823122E+03  0.00000000000E+00 0. -1.
         13    1    5    5    0    0  0.99097833694E+01 -0.31620537165E+02  0.14110306236E+03  0.14494183794E+03  0.00000000000E+00 0. -1.
        -14    1    5    5    0    0 -0.39030727640E+02 -0.45509323614E+02  0.10645622069E+04  0.10662491212E+04  0.00000000000E+00 0.  1.
          5    1    4    4  501    0  0.23353433178E+01  0.10421936926E+03  0.63711419172E+03  0.64559979589E+03  0.41800000000E+01 0.  1.
         -5    1    4    4    0  501 -0.67793452302E+02  0.21642482179E+02  0.19181712371E+03  0.20463535999E+03  0.41800000000E+01 0.  1.
</event>
<event>
11    1  0.8864208E-009  0.1268276E+03  0.7561462E-02  0.1123229E+00
         22   -1    0    0    0    0  0.00000000000E+00  0.00000000000E+00  0.36124753334E+03  0.36124753334E+03  0.00000000000E+00 0. -1.
         22   -1    0    0    0    0 -0.00000000000E+00 -0.00000000000E+00 -0.12326188258E+03  0.12326188258E+03  0.00000000000E+00 0.  1.
        -24    2    1    2    0    0  0.14351008275E+02 -0.90409332657E+01 -0.62505268263E+02  0.10397042082E+03  0.81334186732E+02 0.  0.
         25    2    1    2    0    0  0.80239948576E+01 -0.41321984159E+00  0.91112492011E+02  0.15496452822E+03  0.12509182053E+03 0.  0.
         24    2    1    2    0    0 -0.22375003133E+02  0.94541531073E+01  0.20937842702E+03  0.22557446689E+03  0.80339857078E+02 0.  0.
        -13    1    5    5    0    0  0.25378253293E+02  0.15611844548E+02  0.42607801379E+02  0.51992404914E+02  0.00000000000E+00 0.  1.
         14    1    5    5    0    0 -0.47753256426E+02 -0.61576914412E+01  0.16677062564E+03  0.17358206197E+03  0.00000000000E+00 0. -1.
         13    1    3    3    0    0 -0.10217489967E+02  0.21862839638E+02  0.60324180990E+01  0.24875106560E+02  0.00000000000E+00 0. -1.
        -14    1    3    3    0    0  0.24568498242E+02 -0.30903772903E+02 -0.68537686362E+02  0.79095314257E+02  0.00000000000E+00 0.  1.
          5    1    4    4  501    0 -0.21579369361E+02 -0.42299570841E+02  0.91865751824E+02  0.10349739916E+03  0.41800000000E+01 0. -1.
         -5    1    4    4    0  501  0.29603364219E+02  0.41886351000E+02 -0.75325981291E+00  0.51467129058E+02  0.41800000000E+01 0. -1.
</event>
<event>
11    1  0.8864208E-009  0.3223501E+03  0.7561462E-02  0.9911521E-01
         22   -1    0    0    0    0  0.00000000000E+00  0.00000000000E+00  0.48457855293E+03  0.48457855293E+03  0.00000000000E+00 0.  1.
         22   -1    0    0    0    0 -0.00000000000E+00 -0.00000000000E+00 -0.74436137136E+03  0.74436137136E+03  0.00000000000E+00 0. -1.
         24    2    1    2    0    0  0.27870458762E+03  0.50694620843E+02 -0.50219532751E+03  0.58216298317E+03  0.80420148274E+02 0.  0.
         25    2    1    2    0    0 -0.40590800795E+03 -0.10098852254E+03  0.21207961952E+03  0.48537122048E+03  0.12508982395E+03 0.  0.
        -24    2    1    2    0    0  0.12720342032E+03  0.50293901701E+02  0.30332889565E+02  0.16140572065E+03  0.80134485568E+02 0.  0.
        -13    1    3    3    0    0  0.64674783309E+01  0.11877563925E+01  0.21341568941E+01  0.69132963815E+01  0.00000000000E+00 0.  1.
         14    1    3    3    0    0  0.27223710929E+03  0.49506864450E+02 -0.50432948441E+03  0.57524968679E+03  0.00000000000E+00 0. -1.
         13    1    5    5    0    0  0.87663768781E+01 -0.34028423864E+01  0.29921116874E+02  0.31364022938E+02  0.00000000000E+00 0. -1.
        -14    1    5    5    0    0  0.11843704345E+03  0.53696744087E+02  0.41177269079E+00  0.13004169771E+03  0.00000000000E+00 0.  1.
          5    1    4    4  501    0 -0.16728966360E+03  0.20321669915E+02  0.73245222892E+02  0.18379645506E+03  0.41800000000E+01 0.  1.
         -5    1    4    4    0  501 -0.23861834435E+03 -0.12131019246E+03  0.13883439663E+03  0.30157476543E+03  0.41800000000E+01 0.  1.
</event>
<event>
11    1  0.8864208E-009  0.1219846E+04  0.7561462E-02  0.8494096E-01
         22   -1    0    0    0    0  0.00000000000E+00  0.00000000000E+00  0.63505001453E+03  0.63505001453E+03  0.00000000000E+00 0.  1.
         22   -1    0    0    0    0 -0.00000000000E+00 -0.00000000000E+00 -0.58579004589E+03  0.58579004589E+03  0.00000000000E+00 0.  1.
         24    2    1    2    0    0 -0.30824468625E+03  0.32771738687E+03  0.86777140693E+01  0.45744574643E+03  0.82266858145E+02 0.  0.
         25    2    1    2    0    0  0.28784150869E+03 -0.48789132053E+03  0.54377096402E+02  0.58266103947E+03  0.12508534501E+03 0.  0.
        -24    2    1    2    0    0  0.20403177559E+02  0.16017393365E+03 -0.13794841836E+02  0.18073327451E+03  0.80013999870E+02 0.  0.
        -11    1    3    3    0    0 -0.25361333269E+03  0.21910295402E+03 -0.42756261533E+01  0.33517772592E+03  0.00000000000E+00 0.  1.
         12    1    3    3    0    0 -0.54631353561E+02  0.10861443286E+03  0.12953340223E+02  0.12226802051E+03  0.00000000000E+00 0. -1.
         13    1    5    5    0    0 -0.28768810480E+02  0.70506907472E+02  0.66671283291E+01  0.76441605542E+02  0.00000000000E+00 0. -1.
        -14    1    5    5    0    0  0.49171988039E+02  0.89667026182E+02 -0.20461970165E+02  0.10429166896E+03  0.00000000000E+00 0.  1.
          5    1    4    4  501    0  0.98864354574E+02 -0.10370339409E+03  0.57597547521E+02  0.15447816814E+03  0.41800000000E+01 0.  1.
         -5    1    4    4    0  501  0.18897715412E+03 -0.38418792644E+03 -0.32204511184E+01  0.42818287134E+03  0.41800000000E+01 0.  1.
</event>
<event>
11    1  0.8864208E-009  0.2518834E+03  0.7561462E-02  0.1022901E+00
         22   -1    0    0    0    0  0.00000000000E+00  0.00000000000E+00  0.28102123158E+04  0.28102123158E+04  0.00000000000E+00 0.  1.
         22   -1    0    0    0    0 -0.00000000000E+00 -0.00000000000E+00 -0.71293680262E+02  0.71293680262E+02  0.00000000000E+00 0. -1.
        -24    2    1    2    0    0  0.12897903727E+03  0.15873149971E+03  0.21602198692E+03  0.30806110807E+03  0.80030409354E+02 0.  0.
         25    2    1    2    0    0 -0.19467972548E+03 -0.18884035943E+03  0.92822628072E+03  0.97509618016E+03  0.12509058910E+03 0.  0.
         24    2    1    2    0    0  0.65700688211E+02  0.30108859720E+02  0.15946703679E+04  0.15983487078E+04  0.80758192780E+02 0.  0.
        -11    1    5    5    0    0  0.63843994452E+02 -0.93010531233E+01  0.11936116185E+04  0.11953540316E+04  0.00000000000E+00 0.  1.
         12    1    5    5    0    0  0.18566937591E+01  0.39409912844E+02  0.40105874946E+03  0.40299467622E+03  0.00000000000E+00 0. -1.
         11    1    3    3    0    0  0.41111937621E+02  0.37709336857E+01  0.45961591305E+02  0.61780896976E+02  0.00000000000E+00 0. -1.
        -12    1    3    3    0    0  0.87867099646E+02  0.15496056602E+03  0.17006039561E+03  0.24628021110E+03  0.00000000000E+00 0.  1.
          5    1    4    4  501    0 -0.12530398572E+03 -0.17409786608E+03  0.80250552468E+03  0.83068871748E+03  0.41800000000E+01 0. -1.
         -5    1    4    4    0  501 -0.69375739763E+02 -0.14742493348E+02  0.12572075605E+03  0.14440746268E+03  0.41800000000E+01 0. -1.
</event>
<event>
11    1  0.8864208E-009  0.1708890E+03  0.7561462E-02  0.1077261E+00
         22   -1    0    0    0    0  0.00000000000E+00  0.00000000000E+00  0.33232279877E+03  0.33232279877E+03  0.00000000000E+00 0.  1.
         22   -1    0    0    0    0 -0.00000000000E+00 -0.00000000000E+00 -0.79543081156E+03  0.79543081156E+03  0.00000000000E+00 0.  1.
         24    2    1    2    0    0  0.45069056551E+02  0.65513688216E+01 -0.61128803939E+03  0.61784154466E+03  0.77336711291E+02 0.  0.
         25    2    1    2    0    0 -0.97306787460E+02  0.95755379990E+02 -0.11000259989E+03  0.21537507728E+03  0.12509255872E+03 0.  0.
        -24    2    1    2    0    0  0.52237730909E+02 -0.10230674881E+03  0.25818262649E+03  0.29453698839E+03  0.83056110688E+02 0.  0.
        -13    1    3    3    0    0 -0.13454916103E+01  0.11179484559E+02 -0.44480641278E+03  0.44494891400E+03  0.00000000000E+00 0.  1.
         14    1    3    3    0    0  0.46414548162E+02 -0.46281157376E+01 -0.16648162662E+03  0.17289263066E+03  0.00000000000E+00 0. -1.
         13    1    5    5    0    0 -0.11592428779E+02 -0.17988069354E+02  0.78698983611E+01  0.22801104014E+02  0.00000000000E+00 0. -1.
        -14    1    5    5    0    0  0.63830159688E+02 -0.84318679458E+02  0.25031272813E+03  0.27173588437E+03  0.00000000000E+00 0.  1.
          5    1    4    4  501    0 -0.22590804450E+02 -0.28972884217E+02 -0.83144741062E+01  0.37899542810E+02  0.41800000000E+01 0. -1.
         -5    1    4    4    0  501 -0.74715983010E+02  0.12472826421E+03 -0.10168812579E+03  0.17747553447E+03  0.41800000000E+01 0. -1.
</event>
<event>
11    1  0.8864208E-009  0.1403421E+03  0.7561462E-02  0.1107177E+00
         22   -1    0    0    0    0  0.00000000000E+00  0.00000000000E+00  0.31871297748E+03  0.31871297748E+03  0.00000000000E+00 0.  1.
         22   -1    0    0    0    0 -0.00000000000E+00 -0.00000000000E+00 -0.51449729337E+03  0.51449729337E+03  0.00000000000E+00 0. -1.
         24    2    1    2    0    0 -0.17718464632E+02 -0.62226585832E+02 -0.43554592080E+03  0.44798924479E+03  0.82510740809E+02 0.  0.
         25    2    1    2    0    0 -0.14618744488E+02  0.56389788652E+02  0.11006418769E+02  0.13842692997E+03  0.12508939896E+03 0.  0.
        -24    2    1    2    0    0  0.32337209120E+02  0.58367971806E+01  0.22875518614E+03  0.24679409609E+03  0.86594615212E+02 0.  0.
        -13    1    3    3    0    0 -0.46524503370E+02 -0.16107316907E+02 -0.17287657781E+03  0.17975062233E+03  0.00000000000E+00 0.  1.
         14    1    3    3    0    0  0.28806038738E+02 -0.46119268925E+02 -0.26266934299E+03  0.26823862246E+03  0.00000000000E+00 0. -1.
         13    1    5    5    0    0  0.45350112253E+00  0.43293149457E+02  0.11376095120E+03  0.12172122441E+03  0.00000000000E+00 0. -1.
        -14    1    5    5    0    0  0.31883707998E+02 -0.37456352277E+02  0.11499423494E+03  0.12507287168E+03  0.00000000000E+00 0.  1.
          5    1    4    4  501    0 -0.26472857793E+02 -0.37922235309E+00 -0.48384465154E+02  0.55312610475E+02  0.41800000000E+01 0.  1.
         -5    1    4    4    0  501  0.11854113305E+02  0.56769011005E+02  0.59390883923E+02  0.83114319499E+02  0.41800000000E+01 0.  1.
</event>
<event>
11    1  0.1074269E-008  0.1875813E+03  0.7561462E-02  0.1063670E+00
         22   -1    0    0    0    0  0.00000000000E+00  0.00000000000E+00  0.10837148433E+04  0.10837148433E+04  0.00000000000E+00 0.  1.
         22   -1    0    0    0    0 -0.00000000000E+00 -0.00000000000E+00 -0.14290657348E+04  0.14290657348E+04  0.00000000000E+00 0.  1.
        -24    2    1    2    0    0 -0.75286054371E+02 -0.29487253844E+02 -0.12337862672E+04  0.12391787090E+04  0.82448962948E+02 0.  0.
         25    2    1    2    0    0 -0.38465741316E+02  0.11311549080E+03 -0.14609093998E+03  0.22641699797E+03  0.12508943485E+03 0.  0.
         24    2    1    2    0    0  0.11375179569E+03 -0.83628236960E+02  0.10345263158E+04  0.10471848711E+04  0.80114313972E+02 0.  0.
        -13    1    5    5    0    0  0.98165181512E+02 -0.96301059566E+02  0.96715720062E+03  0.97688451091E+03  0.00000000000E+00 0.  1.
         14    1    5    5    0    0  0.15586614175E+02  0.12672822606E+02  0.67369115133E+02  0.70300360227E+02  0.00000000000E+00 0. -1.
         13    1    3    3    0    0  0.14494007487E+02  0.72149442618E+01 -0.28165380165E+03  0.28211876162E+03  0.00000000000E+00 0. -1.
        -14    1    3    3    0    0 -0.89780061859E+02 -0.36702198106E+02 -0.95213246555E+03  0.95705994735E+03  0.00000000000E+00 0.  1.
          5    1    4    4  501    0 -0.32530471094E+02 -0.11775483188E+02 -0.74577841798E+02  0.82317801484E+02  0.41800000000E+01 0. -1.
         -5    1    4    4    0  501 -0.59352702219E+01  0.12489097399E+03 -0.71513098185E+02  0.14409919649E+03  0.41800000000E+01 0. -1.
</event>
<event>
11    1  0.8864208E-009  0.1500550E+03  0.7561462E-02  0.1096823E+00
         22   -1    0    0    0    0  0.00000000000E+00  0.00000000000E+00  0.26019902052E+04  0.26019902052E+04  0.00000000000E+00 0.  1.
         22   -1    0    0    0    0 -0.00000000000E+00 -0.00000000000E+00 -0.63259536443E+03  0.63259536443E+03  0.00000000000E+00 0. -1.
         24    2    1    2    0    0  0.10837669948E+01  0.11662802047E+02 -0.61597490497E+03  0.62116280224E+03  0.79252431118E+02 0.  0.
         25    2    1    2    0    0 -0.80467642018E+02  0.13039314914E+02  0.43454578680E+03  0.45948104475E+03  0.12509086503E+03 0.  0.
        -24    2    1    2    0    0  0.79383875023E+02 -0.24702116961E+02  0.21508239590E+04  0.21539417227E+04  0.80679910518E+02 0.  0.
        -13    1    3    3    0    0  0.36106198774E+02 -0.10128686138E+02 -0.35084431962E+03  0.35284271919E+03  0.00000000000E+00 0.  1.
         14    1    3    3    0    0 -0.35022431779E+02  0.21791488185E+02 -0.26513058534E+03  0.26832008305E+03  0.00000000000E+00 0. -1.
         13    1    5    5    0    0  0.21225148179E+02  0.23187360464E+01  0.14579498010E+04  0.14581061366E+04  0.00000000000E+00 0. -1.
        -14    1    5    5    0    0  0.58158726843E+02 -0.27020853007E+02  0.69287415800E+03  0.69583558607E+03  0.00000000000E+00 0.  1.
          5    1    4    4  501    0  0.23128052496E+02  0.29071515445E+02  0.61565301461E+02  0.72026512941E+02  0.41800000000E+01 0.  1.
         -5    1    4    4    0  501 -0.10359569451E+03 -0.16032200531E+02  0.37298048534E+03  0.38745453181E+03  0.41800000000E+01 0.  1.
</event>
<event>
11    1  0.8864208E-009  0.1342095E+03  0.7561462E-02  0.1114202E+00
         22   -1    0    0    0    0  0.00000000000E+00  0.00000000000E+00  0.21316712672E+03  0.21316712672E+03  0.00000000000E+00 0.  1.
         22   -1    0    0    0    0 -0.00000000000E+00 -0.00000000000E+00 -0.86370948742E+03  0.86370948742E+03  0.00000000000E+00 0. -1.
        -24    2    1    2    0    0 -0.23270377352E+02 -0.46960239140E+02 -0.47003534310E+03  0.48040835668E+03  0.84333806295E+02 0.  0.
         25    2    1    2    0    0 -0.81202502875E+01  0.46082304700E+02 -0.37126195876E+03  0.39455331057E+03  0.12508939039E+03 0.  0.
         24    2    1    2    0    0  0.31390627639E+02  0.87793443931E+00  0.19075494116E+03  0.20191494689E+03  0.58275689010E+02 0.  0.
        -11    1    5    5    0    0  0.33865201297E+02 -0.10536967145E+02  0.18592185908E+03  0.18927444946E+03  0.00000000000E+00 0.  1.
         12    1    5    5    0    0 -0.24745736571E+01  0.11414901584E+02  0.48330820824E+01  0.12640497434E+02  0.00000000000E+00 0. -1.
         11    1    3    3    0    0  0.25143318679E+02 -0.41588540239E+02 -0.28252573675E+03  0.28667505137E+03  0.00000000000E+00 0. -1.
        -12    1    3    3    0    0 -0.48413696030E+02 -0.53716989010E+01 -0.18750960635E+03  0.19373330531E+03  0.00000000000E+00 0.  1.
          5    1    4    4  501    0 -0.36517501871E+02  0.63030918743E+02 -0.11542130632E+03  0.13655026551E+03  0.41800000000E+01 0. -1.
         -5    1    4    4    0  501  0.28397251583E+02 -0.16948614043E+02 -0.25584065244E+03  0.25800304506E+03  0.41800000000E+01 0. -1.
</event>
<event>
11    1  0.8864208E-009  0.2105088E+03  0.7561462E-02  0.1047331E+00
         22   -1    0    0    0    0  0.00000000000E+00  0.00000000000E+00  0.18298680821E+04  0.18298680821E+04  0.00000000000E+00 0. -1.
         22   -1    0    0    0    0 -0.00000000000E+00 -0.00000000000E+00 -0.44207305605E+03  0.44207305605E+03  0.00000000000E+00 0.  1.
        -24    2    1    2    0    0 -0.12471259490E+02 -0.51649948974E+02 -0.39782051977E+03  0.40956393975E+03  0.81597826243E+02 0.  0.
         25    2    1    2    0    0  0.12531776274E+03  0.16800407021E+03  0.42778982534E+03  0.49252643887E+03  0.12509296165E+03 0.  0.
         24    2    1    2    0    0 -0.11284650325E+03 -0.11635412123E+03  0.13578257204E+04  0.13698507595E+04  0.80794810280E+02 0.  0.
        -11    1    5    5    0    0 -0.43194196212E+02 -0.14176291153E+02  0.18414742173E+03  0.18967598358E+03  0.00000000000E+00 0.  1.
         12    1    5    5    0    0 -0.69652307040E+02 -0.10217783008E+03  0.11736782987E+04  0.11801747759E+04  0.00000000000E+00 0. -1.
         13    1    3    3    0    0 -0.11980488580E+02  0.20501629360E+02 -0.13232074817E+03  0.13443447962E+03  0.00000000000E+00 0. -1.
        -14    1    3    3    0    0 -0.49077090993E+00 -0.72151578334E+02 -0.26549977160E+03  0.27512946013E+03  0.00000000000E+00 0.  1.
          5    1    4    4  501    0  0.14486064637E+03  0.16198348663E+03  0.35009369931E+03  0.41207563323E+03  0.41800000000E+01 0.  1.
         -5    1    4    4    0  501 -0.19542883628E+02  0.60205835782E+01  0.77696126036E+02  0.80450805640E+02  0.41800000000E+01 0.  1.
</event>
<event>
11    1  0.8864208E-009  0.1443225E+03  0.7561462E-02  0.1102825E+00
         22   -1    0    0    0    0  0.00000000000E+00  0.00000000000E+00  0.68096365353E+03  0.68096365353E+03  0.00000000000E+00 0.  1.
         22   -1    0    0    0    0 -0.00000000000E+00 -0.00000000000E+00 -0.82459987088E+03  0.82459987088E+03  0.00000000000E+00 0. -1.
        -24    2    1    2    0    0  0.68306875554E+02  0.11537015013E+02 -0.57718610473E+03  0.58671866910E+03  0.79347748655E+02 0.  0.
         25    2    1    2    0    0 -0.76407452653E+02 -0.55891878013E+02 -0.21369342813E+03  0.26509230049E+03  0.12508815174E+03 0.  0.
         24    2    1    2    0    0  0.81005770988E+01  0.44354863000E+02  0.64724331551E+03  0.65375255482E+03  0.80221694296E+02 0.  0.
        -13    1    5    5    0    0 -0.30565564736E+02  0.43251276705E+02  0.34427811308E+03  0.34832792858E+03  0.00000000000E+00 0.  1.
         14    1    5    5    0    0  0.38666141835E+02  0.11035862950E+01  0.30296520243E+03  0.30542462624E+03  0.00000000000E+00 0. -1.
         11    1    3    3    0    0  0.66562867142E+02  0.39214772398E+02 -0.44476018816E+03  0.45142002462E+03  0.00000000000E+00 0. -1.
        -12    1    3    3    0    0  0.17440084128E+01 -0.27677757386E+02 -0.13242591657E+03  0.13529864449E+03  0.00000000000E+00 0.  1.
          5    1    4    4  501    0 -0.12839227155E+01 -0.69205245273E+02 -0.15134242626E+03  0.16647227042E+03  0.41800000000E+01 0.  1.
         -5    1    4    4    0  501 -0.75123529938E+02  0.13313367260E+02 -0.62351001866E+02  0.98620030074E+02  0.41800000000E+01 0.  1.
</event>
<event>
11    1  0.8864208E-009  0.1640924E+03  0.7561462E-02  0.1083290E+00
         22   -1    0    0    0    0  0.00000000000E+00  0.00000000000E+00  0.82293481044E+03  0.82293481044E+03  0.00000000000E+00 0.  1.
         22   -1    0    0    0    0 -0.00000000000E+00 -0.00000000000E+00 -0.18292370260E+03  0.18292370260E+03  0.00000000000E+00 0.  1.
         24    2    1    2    0    0 -0.95744914828E+02  0.20935828573E+02 -0.79427927580E+02  0.15101013454E+03  0.83005225261E+02 0.  0.
         25    2    1    2    0    0  0.14027483408E+03  0.14148351102E+01  0.73273967214E+02  0.20173070528E+03  0.12508865795E+03 0.  0.
        -24    2    1    2    0    0 -0.44529919253E+02 -0.22350663684E+02  0.64616506820E+03  0.65311767322E+03  0.80937839301E+02 0.  0.
        -13    1    3    3    0    0 -0.11096352636E+03  0.21553023642E+02 -0.67435215796E+02  0.13162425817E+03  0.00000000000E+00 0.  1.
         14    1    3    3    0    0  0.15218611529E+02 -0.61719506903E+00 -0.11992711784E+02  0.19385876368E+02  0.00000000000E+00 0. -1.
         13    1    5    5    0    0  0.17942540776E+01  0.10449531990E+02  0.41325521881E+03  0.41339120448E+03  0.00000000000E+00 0. -1.
        -14    1    5    5    0    0 -0.46324173330E+02 -0.32800195674E+02  0.23290984940E+03  0.23972646874E+03  0.00000000000E+00 0.  1.
          5    1    4    4  501    0  0.10194230347E+02 -0.79485239877E+01 -0.31553608568E+02  0.34354096984E+02  0.41800000000E+01 0.  1.
         -5    1    4    4    0  501  0.13008060373E+03  0.93633590979E+01  0.10482757578E+03  0.16737660830E+03  0.41800000000E+01 0.  1.
</event>
<event>
11    1  0.8864208E-009  0.3085741E+03  0.7561462E-02  0.9966264E-01
         22   -1    0    0    0    0  0.00000000000E+00  0.00000000000E+00  0.57979911479E+03  0.57979911479E+03  0.00000000000E+00 0.  1.
         22   -1    0    0    0    0 -0.00000000000E+00 -0.00000000000E+00 -0.37627621615E+03  0.37627621615E+03  0.00000000000E+00 0.  1.
        -24    2    1    2    0    0  0.16109818606E+03  0.24232222719E+03 -0.14730338333E+02  0.30218644144E+03  0.80168417612E+02 0.  0.
         25    2    1    2    0    0 -0.16908862172E+03  0.76557429657E+02 -0.49697419763E+02  0.22928244720E+03  0.12509438450E+03 0.  0.
         24    2    1    2    0    0  0.79904356520E+01 -0.31887965684E+03  0.26795065674E+03  0.42460644229E+03  0.82127911095E+02 0.  0.
        -13    1    5    5    0    0  0.65942580948E+01 -0.29618113865E+03  0.27119043733E+03  0.40163541232E+03  0.00000000000E+00 0.  1.
         14    1    5    5    0    0  0.13961775572E+01 -0.22698518190E+02 -0.32397805862E+01  0.22971029973E+02  0.00000000000E+00 0. -1.
         11    1    3    3    0    0  0.66263616964E+02  0.91575510961E+02  0.33095808057E+02  0.11778061662E+03  0.00000000000E+00 0. -1.
        -12    1    3    3    0    0  0.94834569100E+02  0.15074671623E+03 -0.47826146390E+02  0.18440582482E+03  0.00000000000E+00 0.  1.
          5    1    4    4  501    0 -0.82742203201E+02  0.97070098833E+02 -0.57737955914E+02  0.14007148258E+03  0.41800000000E+01 0.  1.
         -5    1    4    4    0  501 -0.86346418515E+02 -0.20512669176E+02  0.80405361513E+01  0.89210964622E+02  0.41800000000E+01 0.  1.
</event>
<event>
11    1  0.8864208E-009  0.1719192E+03  0.7561462E-02  0.1076373E+00
         22   -1    0    0    0    0  0.00000000000E+00  0.00000000000E+00  0.83301180340E+02  0.83301180340E+02  0.00000000000E+00 0.  1.
         22   -1    0    0    0    0 -0.00000000000E+00 -0.00000000000E+00 -0.14670464916E+04  0.14670464916E+04  0.00000000000E+00 0. -1.
         24    2    1    2    0    0 -0.11445440574E+03  0.29092156905E+02 -0.12062153105E+04  0.12147815115E+04  0.82417115346E+02 0.  0.
         25    2    1    2    0    0  0.10327284228E+03 -0.64093564821E+02 -0.17305278373E+03  0.24570456814E+03  0.12510077475E+03 0.  0.
        -24    2    1    2    0    0  0.11181563467E+02  0.35001407916E+02 -0.44772170275E+01  0.89861592261E+02  0.81883663656E+02 0.  0.
        -13    1    3    3    0    0  0.24201751403E+01  0.25090188996E+02 -0.29888397353E+03  0.29994500240E+03  0.00000000000E+00 0.  1.
         14    1    3    3    0    0 -0.11687458088E+03  0.40019679093E+01 -0.90733133696E+03  0.91483650913E+03  0.00000000000E+00 0. -1.
         13    1    5    5    0    0 -0.31099491730E+02  0.35313168368E+02 -0.66539350685E+01  0.47523395269E+02  0.00000000000E+00 0. -1.
        -14    1    5    5    0    0  0.42281055196E+02 -0.31176045142E+00  0.21767180410E+01  0.42338196992E+02  0.00000000000E+00 0.  1.
          5    1    4    4  501    0  0.20216586029E+02  0.30718357725E+02 -0.77966736813E+01  0.37823119549E+02  0.41800000000E+01 0. -1.
         -5    1    4    4    0  501  0.83056256249E+02 -0.94811922546E+02 -0.16525611005E+03  0.20788144859E+03  0.41800000000E+01 0. -1.
</event>
<event>
11    1  0.8864208E-009  0.1357956E+03  0.7561462E-02  0.1112346E+00
         22   -1    0    0    0    0  0.00000000000E+00  0.00000000000E+00  0.10177168150E+04  0.10177168150E+04  0.00000000000E+00 0.  1.
         22   -1    0    0    0    0 -0.00000000000E+00 -0.00000000000E+00 -0.15017912952E+04  0.15017912952E+04  0.00000000000E+00 0.  1.
         24    2    1    2    0    0 -0.60167363477E+01  0.50432936693E+01 -0.14527839961E+04  0.14550036531E+04  0.79954081392E+02 0.  0.
         25    2    1    2    0    0  0.39803931288E+02 -0.45123618613E+02  0.60879957066E+02  0.15157829899E+03  0.12509643340E+03 0.  0.
        -24    2    1    2    0    0 -0.33787194940E+02  0.40080324944E+02  0.90782955883E+03  0.91292615823E+03  0.80818658104E+02 0.  0.
        -13    1    3    3    0    0 -0.31288038040E+02  0.25914208047E+02 -0.10855545546E+04  0.10863144934E+04  0.00000000000E+00 0.  1.
         14    1    3    3    0    0  0.25271301692E+02 -0.20870914378E+02 -0.36722944150E+03  0.36868915967E+03  0.00000000000E+00 0. -1.
         13    1    5    5    0    0 -0.16256044405E+02 -0.86913441956E+01  0.46234534363E+02  0.49773794425E+02  0.00000000000E+00 0. -1.
        -14    1    5    5    0    0 -0.17531150535E+02  0.48771669140E+02  0.86159502447E+03  0.86315236380E+03  0.00000000000E+00 0.  1.
          5    1    4    4  501    0  0.59092447040E+02 -0.28514333388E+02  0.90781399336E+02  0.11208799834E+03  0.41800000000E+01 0.  1.
         -5    1    4    4    0  501 -0.19288515752E+02 -0.16609285226E+02 -0.29901442270E+02  0.39490300650E+02  0.41800000000E+01 0.  1.
</event>
<event>
11    1  0.8864208E-009  0.1604157E+03  0.7561462E-02  0.1086687E+00
         22   -1    0    0    0    0  0.00000000000E+00  0.00000000000E+00  0.16695511448E+04  0.16695511448E+04  0.00000000000E+00 0.  1.
         22   -1    0    0    0    0 -0.00000000000E+00 -0.00000000000E+00 -0.14737684408E+03  0.14737684408E+03  0.00000000000E+00 0.  1.
        -24    2    1    2    0    0 -0.24327076337E+02  0.11304352881E+03 -0.56271132991E+02  0.15206520230E+03  0.81158729004E+02 0.  0.
         25    2    1    2    0    0 -0.55644197423E+02 -0.63244908842E+02  0.99431558293E+02  0.18063777932E+03  0.12508867787E+03 0.  0.
         24    2    1    2    0    0  0.79971273761E+02 -0.49798619967E+02  0.14790138754E+04  0.14842250073E+04  0.81034074963E+02 0.  0.
        -11    1    5    5    0    0  0.76444200165E+02 -0.46528886442E+01  0.10625525307E+04  0.10653089907E+04  0.00000000000E+00 0.  1.
         12    1    5    5    0    0  0.35270735960E+01 -0.45145731323E+02  0.41646134472E+03  0.41891601658E+03  0.00000000000E+00 0. -1.
         13    1    3    3    0    0 -0.29796165789E+02  0.21405951417E+01 -0.75723509287E+01  0.30817756925E+02  0.00000000000E+00 0. -1.
        -14    1    3    3    0    0  0.54690894518E+01  0.11090293367E+03 -0.48698782062E+02  0.12124744537E+03  0.00000000000E+00 0.  1.
          5    1    4    4  501    0 -0.97890252720E+01  0.26203124626E+02  0.70492422576E+02  0.75954478449E+02  0.41800000000E+01 0. -1.
         -5    1    4    4    0  501 -0.45855172151E+02 -0.89448033468E+02  0.28939135717E+02  0.10468330087E+03  0.41800000000E+01 0. -1.
</event>
<event>
11    1  0.8864208E-009  0.1432109E+03  0.7561462E-02  0.1104025E+00
         22   -1    0    0    0    0  0.00000000000E+00  0.00000000000E+00  0.96749330195E+03  0.96749330195E+03  0.00000000000E+00 0.  1.
         22   -1    0    0    0    0 -0.00000000000E+00 -0.00000000000E+00 -0.20808376481E+03  0.20808376481E+03  0.00000000000E+00 0. -1.
        -24    2    1    2    0    0 -0.48577567794E+02  0.23207804745E+02 -0.16600467161E+03  0.19218787978E+03  0.80499986612E+02 0.  0.
         25    2    1    2    0    0  0.63042117860E+00 -0.76209910488E+02  0.18924553474E+03  0.23931023068E+03  0.12508863338E+03 0.  0.
         24    2    1    2    0    0  0.47947146615E+02  0.53002105743E+02  0.73616867401E+03  0.74407895630E+03  0.81246689347E+02 0.  0.
        -11    1    5    5    0    0  0.70550773100E+02  0.46344285296E+02  0.59484745012E+03  0.60080670209E+03  0.00000000000E+00 0.  1.
         12    1    5    5    0    0 -0.22603626485E+02  0.66578204466E+01  0.14132122389E+03  0.14327225421E+03  0.00000000000E+00 0. -1.
         13    1    3    3    0    0  0.41061136678E+01  0.16801008877E+02 -0.12207328993E+03  0.12329242549E+03  0.00000000000E+00 0. -1.
        -14    1    3    3    0    0 -0.52683681462E+02  0.64067958685E+01 -0.43931381679E+02  0.68895454290E+02  0.00000000000E+00 0.  1.
          5    1    4    4  501    0 -0.46162600377E+02 -0.86184417896E+02  0.11657461618E+03  0.15220332815E+03  0.41800000000E+01 0.  1.
         -5    1    4    4    0  501  0.46793021556E+02  0.99745074083E+01  0.72670918555E+02  0.87106902527E+02  0.41800000000E+01 0.  1.
</event>
<event>
11    1  0.8864208E-009  0.1523327E+03  0.7561462E-02  0.1094519E+00
         22   -1    0    0    0    0  0.00000000000E+00  0.00000000000E+00  0.32856543925E+03  0.32856543925E+03  0.00000000000E+00 0. -1.
         22   -1    0    0    0    0 -0.00000000000E+00 -0.00000000000E+00 -0.12348001245E+04  0.12348001245E+04  0.00000000000E+00 0.  1.
        -24    2    1    2    0    0  0.81533986962E+02  0.32173980357E+02 -0.11174224939E+04  0.11241848873E+04  0.86461986576E+02 0.  0.
         25    2    1    2    0    0 -0.59412412169E+02 -0.55719737925E+02 -0.54813977026E+02  0.15901266793E+03  0.12508370226E+03 0.  0.
         24    2    1    2    0    0 -0.22121574793E+02  0.23545757569E+02  0.26600178568E+03  0.28016800843E+03  0.81813178601E+02 0.  0.
        -13    1    5    5    0    0 -0.13440071677E+02  0.35518743092E+02  0.45916672565E+02  0.59586554331E+02  0.00000000000E+00 0.  1.
         14    1    5    5    0    0 -0.86815031160E+01 -0.11972985523E+02  0.22008511311E+03  0.22058145410E+03  0.00000000000E+00 0. -1.
         11    1    3    3    0    0  0.13149993900E+02  0.38180397774E+02 -0.19097747162E+03  0.19520005066E+03  0.00000000000E+00 0. -1.
        -12    1    3    3    0    0  0.68383993061E+02 -0.60064174173E+01 -0.92644502224E+03  0.92898483668E+03  0.00000000000E+00 0.  1.
          5    1    4    4  501    0 -0.63104285248E+01 -0.26966016916E+02 -0.86335879814E+02  0.90765324435E+02  0.41800000000E+01 0.  1.
         -5    1    4    4    0  501 -0.53101983644E+02 -0.28753721009E+02  0.31521902788E+02  0.68247343496E+02  0.41800000000E+01 0.  1.
</event>
<event>
11    1  0.8864208E-009  0.2301492E+03  0.7561462E-02  0.1035040E+00
         22   -1    0    0    0    0  0.00000000000E+00  0.00000000000E+00  0.90556065889E+03  0.90556065889E+03  0.00000000000E+00 0. -1.
         22   -1    0    0    0    0 -0.00000000000E+00 -0.00000000000E+00 -0.10665805158E+04  0.10665805158E+04  0.00000000000E+00 0. -1.
        -24    2    1    2    0    0  0.92411939353E+02 -0.26604049566E+02 -0.99899935181E+03  0.10066479353E+04  0.78055229179E+02 0.  0.
         25    2    1    2    0    0 -0.22186159396E+03 -0.93365502026E+02  0.36970679016E+03  0.45855411360E+03  0.12509628519E+03 0.  0.
         24    2    1    2    0    0  0.12944965461E+03  0.11996955159E+03  0.46827270476E+03  0.50693912573E+03  0.80981755897E+02 0.  0.
        -11    1    5    5    0    0  0.13342560912E+02 -0.12125021427E+02  0.52138891006E+02  0.55167962004E+02  0.00000000000E+00 0.  1.
         12    1    5    5    0    0  0.11610709370E+03  0.13209457302E+03  0.41613381375E+03  0.45177116373E+03  0.00000000000E+00 0. -1.
         13    1    3    3    0    0  0.58716723189E+02 -0.18702174367E+02 -0.89337889125E+03  0.89550168523E+03  0.00000000000E+00 0. -1.
        -14    1    3    3    0    0  0.33695216164E+02 -0.79018751993E+01 -0.10562046055E+03  0.11114625010E+03  0.00000000000E+00 0.  1.
          5    1    4    4  501    0 -0.19463801376E+02 -0.75402369510E+01  0.13605062435E+03  0.13770598942E+03  0.41800000000E+01 0.  1.
         -5    1    4    4    0  501 -0.20239779258E+03 -0.85825265075E+02  0.23365616582E+03  0.32084812419E+03  0.41800000000E+01 0.  1.
</event>
<event>
11    1  0.8864208E-009  0.1427605E+03  0.7561462E-02  0.1104514E+00
         22   -1    0    0    0    0  0.00000000000E+00  0.00000000000E+00  0.13981884026E+04  0.13981884026E+04  0.00000000000E+00 0.  1.
         22   -1    0    0    0    0 -0.00000000000E+00 -0.00000000000E+00 -0.49278585981E+03  0.49278585981E+03  0.00000000000E+00 0.  1.
        -24    2    1    2    0    0 -0.60234144932E+02 -0.20721646049E+02 -0.45472512877E+03  0.46653764321E+03  0.82612898286E+02 0.  0.
         25    2    1    2    0    0  0.31249361333E+02 -0.45061862584E+02  0.12672600821E+03  0.18631667642E+03  0.12508928295E+03 0.  0.
         24    2    1    2    0    0  0.28984783599E+02  0.65783508633E+02  0.12334016634E+04  0.12381199428E+04  0.80583757054E+02 0.  0.
        -13    1    5    5    0    0  0.38605814848E+02  0.29196245608E+02  0.10357493199E+04  0.10368796860E+04  0.00000000000E+00 0.  1.
         14    1    5    5    0    0 -0.96210312488E+01  0.36587263025E+02  0.19765234349E+03  0.20124025677E+03  0.00000000000E+00 0. -1.
         11    1    3    3    0    0 -0.88777445475E+01 -0.39892836290E+02 -0.10739775739E+03  0.11491097001E+03  0.00000000000E+00 0. -1.
        -12    1    3    3    0    0 -0.51356400385E+02  0.19171190241E+02 -0.34732737138E+03  0.35162667320E+03  0.00000000000E+00 0.  1.
          5    1    4    4  501    0  0.50859216034E+02  0.53581335500E+01  0.12139652566E+03  0.13179513759E+03  0.41800000000E+01 0.  1.
         -5    1    4    4    0  501 -0.19609854701E+02 -0.50419996134E+02  0.53294825551E+01  0.54521538825E+02  0.41800000000E+01 0.  1.
</event>
<event>
11    1  0.8864208E-009  0.1703777E+03  0.7561462E-02  0.1077703E+00
         22   -1    0    0    0    0  0.00000000000E+00  0.00000000000E+00  0.19311079914E+04  0.19311079914E+04  0.00000000000E+00 0. -1.
         22   -1    0    0    0    0 -0.00000000000E+00 -0.00000000000E+00 -0.12604275211E+03  0.12604275211E+03  0.00000000000E+00 0.  1.
        -24    2    1    2    0    0 -0.52966162696E+02 -0.10304332728E+03 -0.47952125639E+02  0.14831275859E+03  0.79208120283E+02 0.  0.
         25    2    1    2    0    0  0.53396529050E+02  0.10154498810E+03  0.24083971077E+03  0.29464051549E+03  0.12508674255E+03 0.  0.
         24    2    1    2    0    0 -0.43036635474E+00  0.14983391816E+01  0.16121776541E+04  0.16141974694E+04  0.80710913238E+02 0.  0.
        -11    1    5    5    0    0  0.35538685622E+02  0.14279352439E+02  0.54876707579E+03  0.55010199196E+03  0.00000000000E+00 0.  1.
         12    1    5    5    0    0 -0.35969051977E+02 -0.12781013257E+02  0.10634105783E+04  0.10640954775E+04  0.00000000000E+00 0. -1.
         11    1    3    3    0    0 -0.25845767394E+02 -0.45268139093E+01  0.13052220354E+02  0.29306248353E+02  0.00000000000E+00 0. -1.
        -12    1    3    3    0    0 -0.27120395302E+02 -0.98516513373E+02 -0.61004345993E+02  0.11900651024E+03  0.00000000000E+00 0.  1.
          5    1    4    4  501    0  0.57776890461E+02  0.81003026392E+00  0.41669591847E+02  0.71362822989E+02  0.41800000000E+01 0.  1.
         -5    1    4    4    0  501 -0.43803614102E+01  0.10073495784E+03  0.19917011892E+03  0.22327769250E+03  0.41800000000E+01 0.  1.
</event>
<event>
11    1  0.8864208E-009  0.1556686E+03  0.7561462E-02  0.1091223E+00
         22   -1    0    0    0    0  0.00000000000E+00  0.00000000000E+00  0.14004845287E+03  0.14004845287E+03  0.00000000000E+00 0.  1.
         22   -1    0    0    0    0 -0.00000000000E+00 -0.00000000000E+00 -0.28530500187E+04  0.28530500187E+04  0.00000000000E+00 0. -1.
        -24    2    1    2    0    0  0.18204058726E+02  0.16960396257E+02 -0.24569504149E+04  0.24584109515E+04  0.80993964901E+02 0.  0.
         25    2    1    2    0    0  0.22236324727E+02 -0.99665044834E+02 -0.34623244025E+03  0.38203734096E+03  0.12509217363E+03 0.  0.
         24    2    1    2    0    0 -0.40440383452E+02  0.82704648578E+02  0.90181289341E+02  0.15265017911E+03  0.81816433099E+02 0.  0.
        -11    1    5    5    0    0 -0.62135163238E+02  0.76431602813E+02  0.83411551133E+02  0.12907383655E+03  0.00000000000E+00 0.  1.
         12    1    5    5    0    0  0.21694779786E+02  0.62730457642E+01  0.67697382075E+01  0.23576342560E+02  0.00000000000E+00 0. -1.
         13    1    3    3    0    0  0.15487057690E+02  0.47149788434E+02 -0.18894155357E+04  0.18900671994E+04  0.00000000000E+00 0. -1.
        -14    1    3    3    0    0  0.27170010356E+01 -0.30189392177E+02 -0.56753487919E+03  0.56834375213E+03  0.00000000000E+00 0.  1.
          5    1    4    4  501    0 -0.29399193245E+02 -0.44024108864E+02 -0.26700644400E+03  0.27223583207E+03  0.41800000000E+01 0.  1.
         -5    1    4    4    0  501  0.51635517972E+02 -0.55640935971E+02 -0.79225996252E+02  0.10980150889E+03  0.41800000000E+01 0.  1.
</event>
<event>
11    1  0.8864208E-009  0.1523441E+03  0.7561462E-02  0.1094507E+00
         22   -1    0    0    0    0  0.00000000000E+00  0.00000000000E+00  0.19319948382E+03  0.19319948382E+03  0.00000000000E+00 0.  1.
         22   -1    0    0    0    0 -0.00000000000E+00 -0.00000000000E+00 -0.55555725497E+03  0.55555725497E+03  0.00000000000E+00 0.  1.
        -24    2    1    2    0    0  0.27792444022E+02  0.77604055754E+02 -0.27769729097E+03  0.30058361001E+03  0.80249060908E+02 0.  0.
         25    2    1    2    0    0 -0.51233831200E+01 -0.99464652897E+02 -0.22919626381E+03  0.27946371279E+03  0.12509825414E+03 0.  0.
         24    2    1    2    0    0 -0.22669060902E+02  0.21860597142E+02  0.14453578364E+03  0.16870941599E+03  0.81120295015E+02 0.  0.
        -11    1    5    5    0    0 -0.12654933523E+02 -0.25197003272E+01  0.14160328510E+03  0.14218996654E+03  0.00000000000E+00 0.  1.
         12    1    5    5    0    0 -0.10014127380E+02  0.24380297470E+02  0.29324985384E+01  0.26519449458E+02  0.00000000000E+00 0. -1.
         13    1    3    3    0    0  0.46748332451E+02  0.15225647706E+02 -0.13579688120E+03  0.14442305868E+03  0.00000000000E+00 0. -1.
        -14    1    3    3    0    0 -0.18955888428E+02  0.62378408048E+02 -0.14190040977E+03  0.15616055132E+03  0.00000000000E+00 0.  1.
          5    1    4    4  501    0 -0.21158334830E+02 -0.95424257314E+00 -0.15118163227E+03  0.15271523842E+03  0.41800000000E+01 0. -1.
         -5    1    4    4    0  501  0.16034951710E+02 -0.98510410323E+02 -0.78014631545E+02  0.12674847436E+03  0.41800000000E+01 0. -1.
</event>
<event>
11    1  0.8864208E-009  0.1486933E+03  0.7561462E-02  0.1098221E+00
         22   -1    0    0    0    0  0.00000000000E+00  0.00000000000E+00  0.83935578111E+03  0.83935578111E+03  0.00000000000E+00 0. -1.
         22   -1    0    0    0    0 -0.00000000000E+00 -0.00000000000E+00 -0.99735121253E+02  0.99735121253E+02  0.00000000000E+00 0. -1.
         24    2    1    2    0    0  0.13400399937E+02  0.22840555384E+02 -0.51237123901E+02  0.10049047032E+03  0.82291129969E+02 0.  0.
         25    2    1    2    0    0 -0.28102419111E+02 -0.94847617441E+02  0.34935809969E+03  0.38403792411E+03  0.12509288085E+03 0.  0.
        -24    2    1    2    0    0  0.14702019174E+02  0.72007062058E+02  0.44149968406E+03  0.45456250793E+03  0.79397331392E+02 0.  0.
        -11    1    3    3    0    0 -0.10880574031E+02  0.22757109711E+02  0.15409256808E+02  0.29558723400E+02  0.00000000000E+00 0.  1.
         12    1    3    3    0    0  0.24280973968E+02  0.83445672287E-01 -0.66646380709E+02  0.70931746923E+02  0.00000000000E+00 0. -1.
         11    1    5    5    0    0  0.26733830673E+02  0.74688493165E+02  0.24175286332E+03  0.25443568075E+03  0.00000000000E+00 0. -1.
        -12    1    5    5    0    0 -0.12031811499E+02 -0.26814311076E+01  0.19974682074E+03  0.20012682718E+03  0.00000000000E+00 0.  1.
          5    1    4    4  501    0 -0.16949854657E+02 -0.12528841819E+03  0.26781838290E+03  0.29619021578E+03  0.41800000000E+01 0.  1.
         -5    1    4    4    0  501 -0.11152564454E+02  0.30440800747E+02  0.81539716790E+02  0.87847708326E+02  0.41800000000E+01 0.  1.
</event>
<event>
11    1  0.8864208E-009  0.1298964E+03  0.7561462E-02  0.1119396E+00
         22   -1    0    0    0    0  0.00000000000E+00  0.00000000000E+00  0.55601082959E+03  0.55601082959E+03  0.00000000000E+00 0.  1.
         22   -1    0    0    0    0 -0.00000000000E+00 -0.00000000000E+00 -0.12409374204E+03  0.12409374204E+03  0.00000000000E+00 0. -1.
        -24    2    1    2    0    0 -0.20031032668E+02 -0.57304798633E+00 -0.46303827973E+02  0.93354457599E+02  0.78545780377E+02 0.  0.
         25    2    1    2    0    0  0.47343531281E+02 -0.19201287326E+02  0.41605241591E+02  0.14137931086E+03  0.12508802509E+03 0.  0.
         24    2    1    2    0    0 -0.27312498613E+02  0.19774335312E+02  0.43661567394E+03  0.44537080317E+03  0.81147450193E+02 0.  0.
        -11    1    5    5    0    0 -0.25822139079E+02 -0.27372739915E+02  0.25346868771E+03  0.25624680565E+03  0.00000000000E+00 0.  1.
         12    1    5    5    0    0 -0.14903595336E+01  0.47147075227E+02  0.18314698623E+03  0.18912399752E+03  0.00000000000E+00 0. -1.
         13    1    3    3    0    0 -0.25823346937E+02  0.30996894333E+00 -0.67021099769E+02  0.71824571994E+02  0.00000000000E+00 0. -1.
        -14    1    3    3    0    0  0.57923142694E+01 -0.88301692966E+00  0.20717271797E+02  0.21529885606E+02  0.00000000000E+00 0.  1.
          5    1    4    4  501    0  0.19910119399E+02 -0.30456739114E+02  0.82748472415E+02  0.90492032240E+02  0.41800000000E+01 0. -1.
         -5    1    4    4    0  501  0.27433411882E+02  0.11255451788E+02 -0.41143230824E+02  0.50887278617E+02  0.41800000000E+01 0. -1.
</event>
<event>
11    1  0.8864208E-009  0.1367316E+03  0.7561462E-02  0.1111264E+00
         22   -1    0    0    0    0  0.00000000000E+00  0.00000000000E+00  0.49586672743E+03  0.49586672743E+03  0.00000000000E+00 0. -1.
         22   -1    0    0    0    0 -0.00000000000E+00 -0.00000000000E+00 -0.18416364539E+03  0.18416364539E+03  0.00000000000E+00 0. -1.
         24    2    1    2    0    0  0.12339099676E+02  0.94576960074E+01 -0.11472248374E+03  0.14407521049E+03  0.85759644395E+02 0.  0.
         25    2    1    2    0    0  0.36150579996E+02  0.20570108568E+02  0.41650240466E+02  0.13824733497E+03  0.12509032454E+03 0.  0.
        -24    2    1    2    0    0 -0.48489679672E+02 -0.30027804575E+02  0.38477532531E+03  0.39770782737E+03  0.82864629967E+02 0.  0.
        -11    1    3    3    0    0  0.35078357296E+02  0.17502531573E+02 -0.15820285716E+02  0.42274238044E+02  0.00000000000E+00 0.  1.
         12    1    3    3    0    0 -0.22739257621E+02 -0.80448355656E+01 -0.98902198021E+02  0.10180097244E+03  0.00000000000E+00 0. -1.
         11    1    5    5    0    0 -0.11696704845E+02 -0.12592194032E+02  0.32458741483E+03  0.32504209900E+03  0.00000000000E+00 0. -1.
        -12    1    5    5    0    0 -0.36792974827E+02 -0.17435610543E+02  0.60187910482E+02  0.72665728372E+02  0.00000000000E+00 0.  1.
          5    1    4    4  501    0  0.64977723057E+02  0.55054415862E+02  0.17470795530E+02  0.87039038919E+02  0.41800000000E+01 0. -1.
         -5    1    4    4    0  501 -0.28827143061E+02 -0.34484307294E+02  0.24179444936E+02  0.51208296046E+02  0.41800000000E+01 0. -1.
</event>
<event>
11    1  0.8864208E-009  0.1521325E+03  0.7561462E-02  0.1094720E+00
         22   -1    0    0    0    0  0.00000000000E+00  0.00000000000E+00  0.10102497500E+04  0.10102497500E+04  0.00000000000E+00 0.  1.
         22   -1    0    0    0    0 -0.00000000000E+00 -0.00000000000E+00 -0.31659570287E+03  0.31659570287E+03  0.00000000000E+00 0. -1.
        -24    2    1    2    0    0 -0.88951713501E+02 -0.19329887369E+02 -0.25757467749E+03  0.28477518360E+03  0.80412305203E+02 0.  0.
         25    2    1    2    0    0  0.55093723646E+02 -0.21502494902E+02  0.69378087962E+02  0.15478668658E+03  0.12509166072E+03 0.  0.
         24    2    1    2    0    0  0.33857989855E+02  0.40832382271E+02  0.88185063664E+03  0.88728358268E+03  0.82449765470E+02 0.  0.
        -13    1    5    5    0    0  0.30648132101E+02  0.49469603012E+02  0.87143971625E+03  0.87338063219E+03  0.00000000000E+00 0.  1.
         14    1    5    5    0    0  0.32098577537E+01 -0.86372207417E+01  0.10410920393E+02  0.13902950492E+02  0.00000000000E+00 0. -1.
         13    1    3    3    0    0 -0.74033506833E+02  0.20771251716E+02 -0.14110889186E+03  0.16069886246E+03  0.00000000000E+00 0. -1.
        -14    1    3    3    0    0 -0.14918206668E+02 -0.40101139085E+02 -0.11646578563E+03  0.12407632114E+03  0.00000000000E+00 0.  1.
          5    1    4    4  501    0  0.20414222985E+02 -0.74456651925E+00 -0.36135431274E+02  0.41719739605E+02  0.41800000000E+01 0.  1.
         -5    1    4    4    0  501  0.34679500661E+02 -0.20757928382E+02  0.10551351924E+03  0.11306694698E+03  0.41800000000E+01 0.  1.
</event>
<event>
11    1  0.8864208E-009  0.1974636E+03  0.7561462E-02  0.1056332E+00
         22   -1    0    0    0    0  0.00000000000E+00  0.00000000000E+00  0.14844289914E+04  0.14844289914E+04  0.00000000000E+00 0.  1.
         22   -1    0    0    0    0 -0.00000000000E+00 -0.00000000000E+00 -0.44091792848E+03  0.44091792848E+03  0.00000000000E+00 0.  1.
        -24    2    1    2    0    0 -0.46433140186E+02 -0.68820161147E+02 -0.40533265103E+03  0.42122142205E+03  0.78997957639E+02 0.  0.
         25    2    1    2    0    0  0.16235710791E+03  0.12917091914E+03  0.73533821817E+03  0.77421770156E+03  0.12508316222E+03 0.  0.
         24    2    1    2    0    0 -0.11592396772E+03 -0.60350757996E+02  0.71350549582E+03  0.72990779631E+03  0.81207870722E+02 0.  0.
        -13    1    5    5    0    0 -0.82256468755E+02 -0.55702653396E+02  0.65297320636E+03  0.66048688138E+03  0.00000000000E+00 0.  1.
         14    1    5    5    0    0 -0.33667498965E+02 -0.46481045998E+01  0.60532289461E+02  0.69420914934E+02  0.00000000000E+00 0. -1.
         11    1    3    3    0    0 -0.51048198815E+02 -0.63379137750E+01 -0.16324257948E+03  0.17115556523E+03  0.00000000000E+00 0. -1.
        -12    1    3    3    0    0  0.46150586281E+01 -0.62482247372E+02 -0.24209007155E+03  0.25006585682E+03  0.00000000000E+00 0.  1.
          5    1    4    4  501    0 -0.11370765275E+02 -0.46357164308E+01  0.12495295149E+03  0.12562442699E+03  0.41800000000E+01 0. -1.
         -5    1    4    4    0  501  0.17372787318E+03  0.13380663557E+03  0.61038526668E+03  0.64859327457E+03  0.41800000000E+01 0. -1.
</event>
<event>
11    1  0.8864208E-009  0.1571548E+03  0.7561462E-02  0.1089784E+00
         22   -1    0    0    0    0  0.00000000000E+00  0.00000000000E+00  0.84451310315E+03  0.84451310315E+03  0.00000000000E+00 0.  1.
         22   -1    0    0    0    0 -0.00000000000E+00 -0.00000000000E+00 -0.72082170087E+03  0.72082170087E+03  0.00000000000E+00 0. -1.
        -24    2    1    2    0    0  0.79912708736E+01 -0.45885031332E+01 -0.69206919452E+03  0.69674806304E+03  0.80082323776E+02 0.  0.
         25    2    1    2    0    0 -0.89981900904E+02 -0.40727214603E+02  0.32432764476E+03  0.36137338261E+03  0.12508737746E+03 0.  0.
         24    2    1    2    0    0  0.81990630030E+02  0.45315717737E+02  0.49143295204E+03  0.50721335838E+03  0.83564746631E+02 0.  0.
        -13    1    5    5    0    0  0.44152017751E+02  0.61321528605E+02  0.39854629299E+03  0.40564624761E+03  0.00000000000E+00 0.  1.
         14    1    5    5    0    0  0.37838612279E+02 -0.16005810868E+02  0.92886659048E+02  0.10156711077E+03  0.00000000000E+00 0. -1.
         11    1    3    3    0    0 -0.24682437662E+02 -0.25610978259E+02 -0.46678164888E+03  0.46813486590E+03  0.00000000000E+00 0. -1.
        -12    1    3    3    0    0  0.32673708536E+02  0.21022475126E+02 -0.22528754564E+03  0.22861319715E+03  0.00000000000E+00 0.  1.
          5    1    4    4  501    0 -0.96682292227E+02 -0.61635588208E+02  0.31811913199E+03  0.33817697423E+03  0.41800000000E+01 0. -1.
         -5    1    4    4    0  501  0.67003913226E+01  0.20908373605E+02  0.62085127763E+01  0.23196408376E+02  0.41800000000E+01 0. -1.
</event>
<event>
11    1  0.8864208E-009  0.1854080E+03  0.7561462E-02  0.1065350E+00
         22   -1    0    0    0    0  0.00000000000E+00  0.00000000000E+00  0.72369698921E+03  0.72369698921E+03  0.00000000000E+00 0. -1.
         22   -1    0    0    0    0 -0.00000000000E+00 -0.00000000000E+00 -0.49572011742E+03  0.49572011742E+03  0.00000000000E+00 0.  1.
         24    2    1    2    0    0  0.68800360913E+02  0.11918668633E+03 -0.42803475458E+03  0.45652071233E+03  0.79110389958E+02 0.  0.
         25    2    1    2    0    0 -0.71498108291E+02 -0.10681658735E+03  0.10940362900E+03  0.21009049995E+03  0.12508837399E+03 0.  0.
        -24    2    1    2    0    0  0.26977473787E+01 -0.12370098978E+02  0.54660799737E+03  0.55280589435E+03  0.81570563615E+02 0.  0.
        -13    1    3    3    0    0  0.70867405862E+02  0.11470982367E+03 -0.30604063730E+03  0.33442697938E+03  0.00000000000E+00 0.  1.
         14    1    3    3    0    0 -0.20670449496E+01  0.44768626539E+01 -0.12199411728E+03  0.12209373295E+03  0.00000000000E+00 0. -1.
         11    1    5    5    0    0  0.88868443527E+01 -0.16645473087E+02  0.54472481706E+03  0.54505153344E+03  0.00000000000E+00 0. -1.
        -12    1    5    5    0    0 -0.61890969740E+01  0.42753741089E+01  0.18831803094E+01  0.77543609151E+01  0.00000000000E+00 0.  1.
          5    1    4    4  501    0 -0.73142684701E+02 -0.15625509779E+02  0.89377732119E+02  0.11661843885E+03  0.41800000000E+01 0.  1.
         -5    1    4    4    0  501  0.16445764095E+01 -0.91191077569E+02  0.20025896884E+02  0.93472061097E+02  0.41800000000E+01 0.  1.
</event>
<event>
11    1  0.8864208E-009  0.1447344E+03  0.7561462E-02  0.1102384E+00
         22   -1    0    0    0    0  0.00000000000E+00  0.00000000000E+00  0.18281125245E+03  0.18281125245E+03  0.00000000000E+00 0. -1.
         22   -1    0    0    0    0 -0.00000000000E+00 -0.00000000000E+00 -0.55858713158E+03  0.55858713158E+03  0.00000000000E+00 0.  1.
         24    2    1    2    0    0  0.54579765261E+01  0.20329738004E+02 -0.25754097070E+03  0.27080215472E+03  0.81014613863E+02 0.  0.
         25    2    1    2    0    0  0.15584605748E+02  0.50767943789E+02 -0.25886936535E+03  0.29237201312E+03  0.12509109354E+03 0.  0.
        -24    2    1    2    0    0 -0.21042582274E+02 -0.71097681793E+02  0.14063445691E+03  0.17822421620E+03  0.80549054264E+02 0.  0.
        -11    1    3    3    0    0 -0.21921058819E+02  0.10707994526E+02 -0.22831736441E+03  0.22961710054E+03  0.00000000000E+00 0.  1.
         12    1    3    3    0    0  0.27379035345E+02  0.96217434787E+01 -0.29223606283E+02  0.41185054184E+02  0.00000000000E+00 0. -1.
         13    1    5    5    0    0 -0.43502003563E+02 -0.59696778257E+02  0.13260126193E+03  0.15178677253E+03  0.00000000000E+00 0. -1.
        -14    1    5    5    0    0  0.22459421289E+02 -0.11400903536E+02  0.80331949766E+01  0.26437443667E+02  0.00000000000E+00 0.  1.
          5    1    4    4  501    0 -0.12662768267E+02 -0.37864045334E+02 -0.10634083398E+03  0.11366563686E+03  0.41800000000E+01 0. -1.
         -5    1    4    4    0  501  0.28247374014E+02  0.88631989122E+02 -0.15252853137E+03  0.17870637626E+03  0.41800000000E+01 0. -1.
</event>
<event>
11    1  0.8864208E-009  0.1349377E+03  0.7561462E-02  0.1113347E+00
         22   -1    0    0    0    0  0.00000000000E+00  0.00000000000E+00  0.13440096845E+03  0.13440096845E+03  0.00000000000E+00 0. -1.
         22   -1    0    0    0    0 -0.00000000000E+00 -0.00000000000E+00 -0.19384665468E+04  0.19384665468E+04  0.00000000000E+00 0. -1.
        -24    2    1    2    0    0  0.40862608031E+02  0.24265267052E+02 -0.17056459534E+04  0.17096776844E+04  0.10728984168E+03 0.  0.
         25    2    1    2    0    0 -0.74646561412E+02 -0.64131683857E+02 -0.17745360770E+03  0.23837448911E+03  0.12509049592E+03 0.  0.
         24    2    1    2    0    0  0.33783953381E+02  0.39866416805E+02  0.79033982838E+02  0.12481534170E+03  0.81251537736E+02 0.  0.
        -11    1    5    5    0    0  0.40956661081E+02 -0.13180562732E+02  0.37215301327E+02  0.56887203954E+02  0.00000000000E+00 0.  1.
         12    1    5    5    0    0 -0.71727076996E+01  0.53046979537E+02  0.41818681510E+02  0.67928137742E+02  0.00000000000E+00 0. -1.
         13    1    3    3    0    0 -0.18809948774E+02  0.14821863035E+02 -0.12270375194E+04  0.12272711908E+04  0.00000000000E+00 0. -1.
        -14    1    3    3    0    0  0.59672556805E+02  0.94434040173E+01 -0.47860843402E+03  0.48240649357E+03  0.00000000000E+00 0.  1.
          5    1    4    4  501    0 -0.22536082691E+02 -0.20544624701E+02 -0.16663664878E+03  0.16945560405E+03  0.41800000000E+01 0.  1.
         -5    1    4    4    0  501 -0.52110478721E+02 -0.43587059156E+02 -0.10816958919E+02  0.68918885066E+02  0.41800000000E+01 0.  1.
</event>
<event>
11    1  0.8864208E-009  0.1489068E+03  0.7561462E-02  0.1098001E+00
         22   -1    0    0    0    0  0.00000000000E+00  0.00000000000E+00  0.20848834000E+04  0.20848834000E+04  0.00000000000E+00 0.  1.
         22   -1    0    0    0    0 -0.00000000000E+00 -0.00000000000E+00 -0.33720236905E+02  0.33720236905E+02  0.00000000000E+00 0.  1.
        -24    2    1    2    0    0  0.46133818520E+01  0.50841033439E+02  0.72679231890E+02  0.11909409391E+03  0.79341278563E+02 0.  0.
         25    2    1    2    0    0 -0.26915554825E+01 -0.11891736729E+03  0.93657140124E+03  0.95234596783E+03  0.12509303776E+03 0.  0.
         24    2    1    2    0    0 -0.19218263695E+01  0.68076333851E+02  0.10419125299E+04  0.10471635751E+04  0.79572309323E+02 0.  0.
        -11    1    5    5    0    0 -0.26680985588E+02  0.71048770202E+02  0.88872609032E+03  0.89196068656E+03  0.00000000000E+00 0.  1.
         12    1    5    5    0    0  0.24759159219E+02 -0.29724363516E+01  0.15318643959E+03  0.15520288856E+03  0.00000000000E+00 0. -1.
         13    1    3    3    0    0  0.26412887230E+02 -0.83810038610E+01  0.38169825529E+02  0.47167970260E+02  0.00000000000E+00 0. -1.
        -14    1    3    3    0    0 -0.21799505378E+02  0.59222037300E+02  0.34509406361E+02  0.71926123655E+02  0.00000000000E+00 0.  1.
          5    1    4    4  501    0 -0.33055917465E+02 -0.13073066691E+03  0.82784648495E+03  0.83876723588E+03  0.41800000000E+01 0.  1.
         -5    1    4    4    0  501  0.30364361982E+02  0.11813299622E+02  0.10872491630E+03  0.11357873195E+03  0.41800000000E+01 0.  1.
</event>
<event>
11    1  0.8864208E-009  0.1260848E+03  0.7561462E-02  0.1124175E+00
         22   -1    0    0    0    0  0.00000000000E+00  0.00000000000E+00  0.11880915735E+04  0.11880915735E+04  0.00000000000E+00 0. -1.
         22   -1    0    0    0    0 -0.00000000000E+00 -0.00000000000E+00 -0.39531812835E+02  0.39531812835E+02  0.00000000000E+00 0. -1.
         24    2    1    2    0    0 -0.14111755344E+02 -0.13518677381E+02  0.63038518422E+02  0.10395984922E+03  0.80323714856E+02 0.  0.
         25    2    1    2    0    0  0.76837236729E+01 -0.35151522456E+00  0.21134198360E+03  0.24570762667E+03  0.12509052961E+03 0.  0.
        -24    2    1    2    0    0  0.64280316711E+01  0.13870192606E+02  0.87417925863E+03  0.87795591043E+03  0.79896824795E+02 0.  0.
        -11    1    3    3    0    0 -0.17652819101E+02 -0.23869503250E+02  0.79122037793E+02  0.84508414209E+02  0.00000000000E+00 0.  1.
         12    1    3    3    0    0  0.35410637570E+01  0.10350825869E+02 -0.16083519371E+02  0.19451435013E+02  0.00000000000E+00 0. -1.
         11    1    5    5    0    0 -0.21464992655E+02 -0.22507732078E+02  0.50229388056E+03  0.50325588557E+03  0.00000000000E+00 0. -1.
        -12    1    5    5    0    0  0.27893024326E+02  0.36377924684E+02  0.37188537806E+03  0.37470002485E+03  0.00000000000E+00 0.  1.
          5    1    4    4  501    0  0.25264820824E+02  0.58154070168E+02  0.11911681490E+03  0.13500553707E+03  0.41800000000E+01 0. -1.
         -5    1    4    4    0  501 -0.17581097151E+02 -0.58505585393E+02  0.92225168707E+02  0.11070208960E+03  0.41800000000E+01 0. -1.
</event>
<event>
11    1  0.8864208E-009  0.2070994E+03  0.7561462E-02  0.1049614E+00
         22   -1    0    0    0    0  0.00000000000E+00  0.00000000000E+00  0.11059634882E+04  0.11059634882E+04  0.00000000000E+00 0. -1.
         22   -1    0    0    0    0 -0.00000000000E+00 -0.00000000000E+00 -0.10339223483E+04  0.10339223483E+04  0.00000000000E+00 0. -1.
         24    2    1    2    0    0  0.14951115185E+03 -0.11827353612E+02 -0.60675565515E+03  0.63035867893E+03  0.81891197517E+02 0.  0.
         25    2    1    2    0    0 -0.22456679230E+03 -0.10045369601E+03 -0.36262231327E+03  0.45570138938E+03  0.12509046707E+03 0.  0.
        -24    2    1    2    0    0  0.75055640451E+02  0.11228104962E+03  0.10414191083E+04  0.10538257682E+04  0.88060248636E+02 0.  0.
        -13    1    3    3    0    0  0.50610556252E+02 -0.43248608564E+02 -0.26185790247E+03  0.27018777107E+03  0.00000000000E+00 0.  1.
         14    1    3    3    0    0  0.98900595595E+02  0.31421254952E+02 -0.34489775267E+03  0.36017090786E+03  0.00000000000E+00 0. -1.
         13    1    5    5    0    0  0.52190439579E+02  0.64792703013E+02  0.88209738635E+03  0.88601226591E+03  0.00000000000E+00 0. -1.
        -14    1    5    5    0    0  0.22865200873E+02  0.47488346604E+02  0.15932172192E+03  0.16781350229E+03  0.00000000000E+00 0.  1.
          5    1    4    4  501    0 -0.18811576760E+03 -0.11728157286E+03 -0.24062997338E+03  0.32720447099E+03  0.41800000000E+01 0. -1.
         -5    1    4    4    0  501 -0.36451024704E+02  0.16827876853E+02 -0.12199233989E+03  0.12849691838E+03  0.41800000000E+01 0. -1.
</event>
<event>
11    1  0.8864208E-009  0.1389969E+03  0.7561462E-02  0.1108684E+00
         22   -1    0    0    0    0  0.00000000000E+00  0.00000000000E+00  0.56918036867E+03  0.56918036867E+03  0.00000000000E+00 0.  1.
         22   -1    0    0    0    0 -0.00000000000E+00 -0.00000000000E+00 -0.13396786120E+04  0.13396786120E+04  0.00000000000E+00 0.  1.
         24    2    1    2    0    0  0.17529094702E+02 -0.15710962662E+02 -0.74008093957E+03  0.74510853887E+03  0.83143454801E+02 0.  0.
         25    2    1    2    0    0  0.38319676513E+02 -0.83202929963E+01 -0.58449207607E+03  0.59901279848E+03  0.12509085045E+03 0.  0.
        -24    2    1    2    0    0 -0.55848771214E+02  0.24031255659E+02  0.55407477232E+03  0.56473764331E+03  0.90736794945E+02 0.  0.
        -11    1    3    3    0    0  0.22195514775E+02 -0.46209611119E+02 -0.56580075730E+03  0.56811835562E+03  0.00000000000E+00 0.  1.
         12    1    3    3    0    0 -0.46664200732E+01  0.30498648457E+02 -0.17428018227E+03  0.17699018325E+03  0.00000000000E+00 0. -1.
         13    1    5    5    0    0 -0.33271803595E+01  0.32003235745E+02  0.62454672405E+02  0.70255699645E+02  0.00000000000E+00 0. -1.
        -14    1    5    5    0    0 -0.52521590855E+02 -0.79719800867E+01  0.49162009991E+03  0.49448194366E+03  0.00000000000E+00 0.  1.
          5    1    4    4  501    0  0.44895501597E+02  0.16870725290E+02 -0.56283587369E+03  0.56489106963E+03  0.41800000000E+01 0. -1.
         -5    1    4    4    0  501 -0.65758250840E+01 -0.25191018286E+02 -0.21656202378E+02  0.34121728844E+02  0.41800000000E+01 0. -1.
</event>
<event>
11    1  0.8864208E-009  0.1520219E+03  0.7561462E-02  0.1094831E+00
         22   -1    0    0    0    0  0.00000000000E+00  0.00000000000E+00  0.28403669445E+03  0.28403669445E+03  0.00000000000E+00 0.  1.
         22   -1    0    0    0    0 -0.00000000000E+00 -0.00000000000E+00 -0.59409483716E+03  0.59409483716E+03  0.00000000000E+00 0.  1.
         24    2    1    2    0    0 -0.62830347053E+02 -0.63123387733E+02 -0.48711965111E+03  0.50173659285E+03  0.80757906854E+02 0.  0.
         25    2    1    2    0    0  0.42850325114E+02  0.51092633664E+02 -0.37729034820E+02  0.14668862791E+03  0.12508983137E+03 0.  0.
        -24    2    1    2    0    0  0.19980021939E+02  0.12030754069E+02  0.21479054322E+03  0.22970631085E+03  0.78013277498E+02 0.  0.
        -11    1    3    3    0    0 -0.56209274156E+02  0.38236586645E+00 -0.24119557690E+03  0.24765890862E+03  0.00000000000E+00 0.  1.
         12    1    3    3    0    0 -0.66210728975E+01 -0.63505753600E+02 -0.24592407421E+03  0.25407768423E+03  0.00000000000E+00 0. -1.
         11    1    5    5    0    0 -0.73122189579E+01  0.18949517005E+01 -0.42986238433E+01  0.86912343761E+01  0.00000000000E+00 0. -1.
        -12    1    5    5    0    0  0.27292240897E+02  0.10135802368E+02  0.21908916706E+03  0.22101507647E+03  0.00000000000E+00 0.  1.
          5    1    4    4  501    0  0.82234243361E+02  0.40525626078E+02 -0.49191875393E+02  0.10412545392E+03  0.41800000000E+01 0. -1.
         -5    1    4    4    0  501 -0.39383918247E+02  0.10567007586E+02  0.11462840573E+02  0.42563173987E+02  0.41800000000E+01 0. -1.
</event>
<event>
11    1  0.8864208E-009  0.1462476E+03  0.7561462E-02  0.1100776E+00
         22   -1    0    0    0    0  0.00000000000E+00  0.00000000000E+00  0.59866456739E+02  0.59866456739E+02  0.00000000000E+00 0. -1.
         22   -1    0    0    0    0 -0.00000000000E+00 -0.00000000000E+00 -0.18455383840E+04  0.18455383840E+04  0.00000000000E+00 0.  1.
        -24    2    1    2    0    0  0.25256863090E+02  0.39450031063E+02 -0.87645767622E+03  0.88093005313E+03  0.75269424138E+02 0.  0.
         25    2    1    2    0    0  0.51454234083E+02 -0.27985289047E+02 -0.90413066240E+03  0.91462104218E+03  0.12509469014E+03 0.  0.
         24    2    1    2    0    0 -0.76711097173E+02 -0.11464742016E+02 -0.50835886272E+01  0.10985374542E+03  0.77627120071E+02 0.  0.
        -11    1    5    5    0    0  0.14010614179E+02  0.55445684015E+01 -0.88497326516E+01  0.17474476142E+02  0.00000000000E+00 0.  1.
         12    1    5    5    0    0 -0.90721711352E+02 -0.17009310417E+02  0.37661440244E+01  0.92379269278E+02  0.00000000000E+00 0. -1.
         13    1    3    3    0    0  0.18699133866E+02 -0.12569410151E+02 -0.53464205287E+03  0.53511659699E+03  0.00000000000E+00 0. -1.
        -14    1    3    3    0    0  0.65577292238E+01  0.52019441214E+02 -0.34181562335E+03  0.34581345613E+03  0.00000000000E+00 0.  1.
          5    1    4    4  501    0 -0.20610092612E+02  0.33062736829E+02 -0.17170884286E+03  0.17612302405E+03  0.41800000000E+01 0.  1.
         -5    1    4    4    0  501  0.72064326695E+02 -0.61048025876E+02 -0.73242181955E+03  0.73849801814E+03  0.41800000000E+01 0.  1.
</event>
<event>
11    1  0.8864208E-009  0.1410479E+03  0.7561462E-02  0.1106394E+00
         22   -1    0    0    0    0  0.00000000000E+00  0.00000000000E+00  0.19027450323E+04  0.19027450323E+04  0.00000000000E+00 0.  1.
         22   -1    0    0    0    0 -0.00000000000E+00 -0.00000000000E+00 -0.17211968660E+03  0.17211968660E+03  0.00000000000E+00 0. -1.
        -24    2    1    2    0    0  0.73670726796E+01 -0.36279956581E+02 -0.14457208419E+03  0.17018328375E+03  0.81797026418E+02 0.  0.
         25    2    1    2    0    0  0.36060832210E+02 -0.18193443362E+02  0.32711322836E+03  0.35253668035E+03  0.12509061445E+03 0.  0.
         24    2    1    2    0    0 -0.43427904889E+02  0.54473399943E+02  0.15480842015E+04  0.15521447548E+04  0.87950614412E+02 0.  0.
        -13    1    5    5    0    0  0.22537215264E+02  0.14892779865E+02  0.71672754067E+03  0.71723642442E+03  0.00000000000E+00 0.  1.
         14    1    5    5    0    0 -0.65965120153E+02  0.39580620077E+02  0.83135666083E+03  0.83490833034E+03  0.00000000000E+00 0. -1.
         13    1    3    3    0    0  0.91388181578E+00 -0.55606021541E+02 -0.54611061930E+02  0.77943780360E+02  0.00000000000E+00 0. -1.
        -14    1    3    3    0    0  0.64531908638E+01  0.19326064961E+02 -0.89961022263E+02  0.92239503391E+02  0.00000000000E+00 0.  1.
          5    1    4    4  501    0  0.15340225781E+02  0.13672915745E+02 -0.21320650952E+01  0.21078170071E+02  0.41800000000E+01 0. -1.
         -5    1    4    4    0  501  0.20720606429E+02 -0.31866359108E+02  0.32924529346E+03  0.33145851028E+03  0.41800000000E+01 0. -1.
</event>
<event>
11    1  0.8864208E-009  0.4705287E+03  0.7561462E-02  0.9461899E-01
         22   -1    0    0    0    0  0.00000000000E+00  0.00000000000E+00  0.26921054471E+04  0.26921054471E+04  0.00000000000E+00 0. -1.
         22   -1    0    0    0    0 -0.00000000000E+00 -0.00000000000E+00 -0.96249374481E+03  0.96249374481E+03  0.00000000000E+00 0. -1.
         24    2    1    2    0    0 -0.25852887425E+03 -0.35012907463E+03 -0.42629510182E+03  0.61436847998E+03  0.79332008907E+02 0.  0.
         25    2    1    2    0    0  0.14407181166E+03  0.47928722985E+03 -0.28673003458E+03  0.59019899187E+03  0.12509117337E+03 0.  0.
        -24    2    1    2    0    0  0.11445706259E+03 -0.12915815523E+03  0.24426368387E+04  0.24500317201E+04  0.79990345038E+02 0.  0.
        -11    1    3    3    0    0 -0.90314493951E+02 -0.70361558684E+02 -0.89393592308E+02  0.14525381614E+03  0.00000000000E+00 0.  1.
         12    1    3    3    0    0 -0.16821438030E+03 -0.27976751594E+03 -0.33690150952E+03  0.46911466384E+03  0.00000000000E+00 0. -1.
         13    1    5    5    0    0  0.46100159194E+02 -0.10978965284E+03  0.15657617220E+04  0.15702830199E+04  0.00000000000E+00 0. -1.
        -14    1    5    5    0    0  0.68356903391E+02 -0.19368502392E+02  0.87687511670E+03  0.87974870015E+03  0.00000000000E+00 0.  1.
          5    1    4    4  501    0  0.79846965674E+02  0.21663023103E+03 -0.63360406265E+02  0.23944980352E+03  0.41800000000E+01 0. -1.
         -5    1    4    4    0  501  0.64224845988E+02  0.26265699882E+03 -0.22336962832E+03  0.35074918835E+03  0.41800000000E+01 0. -1.
</event>
<event>
11    1  0.8864208E-009  0.1574911E+03  0.7561462E-02  0.1089461E+00
         22   -1    0    0    0    0  0.00000000000E+00  0.00000000000E+00  0.16702107245E+04  0.16702107245E+04  0.00000000000E+00 0. -1.
         22   -1    0    0    0    0 -0.00000000000E+00 -0.00000000000E+00 -0.35625295198E+04  0.35625295198E+04  0.00000000000E+00 0.  1.
        -24    2    1    2    0    0 -0.86285459633E+02  0.42182211987E+02 -0.34741184224E+04  0.34763920212E+04  0.81105809009E+02 0.  0.
         25    2    1    2    0    0  0.58289647536E+02 -0.51027267157E+02 -0.23215147005E+02  0.14896849353E+03  0.12510477213E+03 0.  0.
         24    2    1    2    0    0  0.27995812096E+02  0.88450551701E+01  0.16050147741E+04  0.16073797296E+04  0.82068079972E+02 0.  0.
        -13    1    5    5    0    0  0.29098932726E+02  0.22101330132E+02  0.28940509296E+03  0.29170280169E+03  0.00000000000E+00 0.  1.
         14    1    5    5    0    0 -0.11031206291E+01 -0.13256274962E+02  0.13156096811E+04  0.13156769280E+04  0.00000000000E+00 0. -1.
         13    1    3    3    0    0 -0.55467585049E+01  0.31836286794E+02 -0.44138458176E+03  0.44256600039E+03  0.00000000000E+00 0. -1.
        -14    1    3    3    0    0 -0.80738701128E+02  0.10345925194E+02 -0.30327338407E+04  0.30338260208E+04  0.00000000000E+00 0.  1.
          5    1    4    4  501    0  0.92731658156E+02 -0.60757232150E+02 -0.20621341946E+02  0.11284198610E+03  0.41800000000E+01 0.  1.
         -5    1    4    4    0  501 -0.34442010620E+02  0.97299649922E+01 -0.25938050595E+01  0.36126507428E+02  0.41800000000E+01 0.  1.
</event>
<event>
11    1  0.8864208E-009  0.2981326E+03  0.7561462E-02  0.1000985E+00
         22   -1    0    0    0    0  0.00000000000E+00  0.00000000000E+00  0.14515444177E+04  0.14515444177E+04  0.00000000000E+00 0.  1.
         22   -1    0    0    0    0 -0.00000000000E+00 -0.00000000000E+00 -0.56015099422E+03  0.56015099422E+03  0.00000000000E+00 0. -1.
         24    2    1    2    0    0  0.37615347813E+02 -0.28772649290E+02 -0.44984596414E+03  0.45962979643E+03  0.81580503635E+02 0.  0.
         25    2    1    2    0    0  0.12511193834E+03  0.24480479872E+03  0.16844571945E+03  0.34583651391E+03  0.12508615975E+03 0.  0.
        -24    2    1    2    0    0 -0.16272728615E+03 -0.21603214943E+03  0.11727936682E+04  0.12062291016E+04  0.79959978512E+02 0.  0.
        -13    1    3    3    0    0  0.37093116499E+02 -0.28646639176E+02 -0.10736613795E+03  0.11714954889E+03  0.00000000000E+00 0.  1.
         14    1    3    3    0    0  0.52223131377E+00 -0.12601011382E+00 -0.34247982620E+03  0.34248024754E+03  0.00000000000E+00 0. -1.
         13    1    5    5    0    0 -0.21665246355E+02 -0.37486384356E+01  0.46220389196E+02  0.51183586893E+02  0.00000000000E+00 0. -1.
        -14    1    5    5    0    0 -0.14106203980E+03 -0.21228351100E+03  0.11265732790E+04  0.11550455147E+04  0.00000000000E+00 0.  1.
          5    1    4    4  501    0  0.23005943992E+02 -0.10088658645E+02  0.40831227120E+01  0.25791447871E+02  0.41800000000E+01 0.  1.
         -5    1    4    4    0  501  0.10210599435E+03  0.25489345737E+03  0.16436259674E+03  0.32004506604E+03  0.41800000000E+01 0.  1.
</event>
<event>
11    1  0.8864208E-009  0.1721985E+03  0.7561462E-02  0.1076134E+00
         22   -1    0    0    0    0  0.00000000000E+00  0.00000000000E+00  0.73715215240E+03  0.73715215240E+03  0.00000000000E+00 0. -1.
         22   -1    0    0    0    0 -0.00000000000E+00 -0.00000000000E+00 -0.61968670776E+03  0.61968670776E+03  0.00000000000E+00 0.  1.
         24    2    1    2    0    0 -0.44946489959E+02  0.18222411183E+02 -0.52683790365E+03  0.53517826942E+03  0.80655812605E+02 0.  0.
         25    2    1    2    0    0  0.15154808151E+03  0.25354584856E+02  0.41005104967E+02  0.20233349838E+03  0.12509096670E+03 0.  0.
        -24    2    1    2    0    0 -0.10660159155E+03 -0.43576996039E+02  0.60329824332E+03  0.61932709236E+03  0.79589088624E+02 0.  0.
        -11    1    3    3    0    0  0.17378123602E+02  0.18560456982E+02 -0.25610120832E+03  0.25736028957E+03  0.00000000000E+00 0.  1.
         12    1    3    3    0    0 -0.62324613562E+02 -0.33804579846E+00 -0.27073669533E+03  0.27781797985E+03  0.00000000000E+00 0. -1.
         13    1    5    5    0    0 -0.36000820678E+02 -0.44199181219E+01  0.38278913961E+03  0.38450373232E+03  0.00000000000E+00 0. -1.
        -14    1    5    5    0    0 -0.70600770873E+02 -0.39157077917E+02  0.22050910371E+03  0.23482336003E+03  0.00000000000E+00 0.  1.
          5    1    4    4  501    0 -0.93692099244E+01  0.15707746560E+02  0.36466026970E+02  0.41009254072E+02  0.41800000000E+01 0.  1.
         -5    1    4    4    0  501  0.16091729143E+03  0.96468382955E+01  0.45390779975E+01  0.16132424431E+03  0.41800000000E+01 0.  1.
</event>
<event>
11    1  0.8864208E-009  0.1592197E+03  0.7561462E-02  0.1087813E+00
         22   -1    0    0    0    0  0.00000000000E+00  0.00000000000E+00  0.19544693969E+04  0.19544693969E+04  0.00000000000E+00 0. -1.
         22   -1    0    0    0    0 -0.00000000000E+00 -0.00000000000E+00 -0.33003523101E+03  0.33003523101E+03  0.00000000000E+00 0. -1.
         24    2    1    2    0    0 -0.48085515485E+02  0.73055792753E+02 -0.17164254919E+03  0.21001039729E+03  0.83629161310E+02 0.  0.
         25    2    1    2    0    0  0.10136262097E+03 -0.92686749171E+02 -0.75354886763E+02  0.20047950829E+03  0.12509380434E+03 0.  0.
        -24    2    1    2    0    0 -0.53277105485E+02  0.19630956418E+02  0.18714316019E+04  0.18740147223E+04  0.80318831400E+02 0.  0.
        -13    1    3    3    0    0  0.21774722097E+01  0.62093599733E+02 -0.12902798674E+03  0.14320816274E+03  0.00000000000E+00 0.  1.
         14    1    3    3    0    0 -0.50262987694E+02  0.10962193020E+02 -0.42614562457E+02  0.66802234552E+02  0.00000000000E+00 0. -1.
         13    1    5    5    0    0 -0.16682696047E+02 -0.14615982309E+00  0.15254950788E+04  0.15255863034E+04  0.00000000000E+00 0. -1.
        -14    1    5    5    0    0 -0.36594409438E+02  0.19777116241E+02  0.34593652304E+03  0.34842841891E+03  0.00000000000E+00 0.  1.
          5    1    4    4  501    0  0.11163471409E+03 -0.27177108344E+02 -0.68141307505E+02  0.13364735238E+03  0.41800000000E+01 0. -1.
         -5    1    4    4    0  501 -0.10272093124E+02 -0.65509640827E+02 -0.72135792580E+01  0.66832155915E+02  0.41800000000E+01 0. -1.
</event>
<event>
11    1  0.8864208E-009  0.2033570E+03  0.7561462E-02  0.1052175E+00
         22   -1    0    0    0    0  0.00000000000E+00  0.00000000000E+00  0.12620930068E+04  0.12620930068E+04  0.00000000000E+00 0.  1.
         22   -1    0    0    0    0 -0.00000000000E+00 -0.00000000000E+00 -0.38591982373E+03  0.38591982373E+03  0.00000000000E+00 0.  1.
         24    2    1    2    0    0 -0.12091294241E+03  0.12296492344E+03 -0.31700425783E+03  0.36947749642E+03  0.79256601223E+02 0.  0.
         25    2    1    2    0    0  0.22154814131E+02 -0.95569266591E+02  0.12494223007E+03  0.20218939069E+03  0.12508264607E+03 0.  0.
        -24    2    1    2    0    0  0.98758128279E+02 -0.27395656845E+02  0.10682352108E+04  0.10763459434E+04  0.83008640110E+02 0.  0.
        -13    1    3    3    0    0 -0.11322492687E+03  0.93911391124E+02 -0.30192299280E+03  0.33585223987E+03  0.00000000000E+00 0.  1.
         14    1    3    3    0    0 -0.76880155358E+01  0.29053532312E+02 -0.15081265038E+02  0.33625256547E+02  0.00000000000E+00 0. -1.
         11    1    5    5    0    0  0.16924919152E+02  0.26164458866E+02  0.17298415192E+03  0.17576845170E+03  0.00000000000E+00 0. -1.
        -12    1    5    5    0    0  0.81833209126E+02 -0.53560115711E+02  0.89525105892E+03  0.90057749173E+03  0.00000000000E+00 0.  1.
          5    1    4    4  501    0  0.29538234814E+02 -0.11513087647E+03  0.58759367541E+02  0.13265655546E+03  0.41800000000E+01 0.  1.
         -5    1    4    4    0  501 -0.73834206830E+01  0.19561609882E+02  0.66182862533E+02  0.69532835230E+02  0.41800000000E+01 0.  1.
</event>
<event>
11    1  0.8864208E-009  0.1284266E+03  0.7561462E-02  0.1121217E+00
         22   -1    0    0    0    0  0.00000000000E+00  0.00000000000E+00  0.19651944837E+03  0.19651944837E+03  0.00000000000E+00 0. -1.
         22   -1    0    0    0    0 -0.00000000000E+00 -0.00000000000E+00 -0.13093159587E+04  0.13093159587E+04  0.00000000000E+00 0. -1.
        -24    2    1    2    0    0  0.11022066780E+01  0.82203754651E+01 -0.10464279936E+04  0.10497050977E+04  0.82464883277E+02 0.  0.
         25    2    1    2    0    0  0.27519900752E+02 -0.13379616507E+02 -0.23304612881E+03  0.26625798406E+03  0.12508579794E+03 0.  0.
         24    2    1    2    0    0 -0.28622107430E+02  0.51592410415E+01  0.16667761203E+03  0.18987232534E+03  0.86163976095E+02 0.  0.
        -11    1    5    5    0    0  0.30681846487E+02 -0.35814300944E+01  0.52418752751E+02  0.60843471180E+02  0.00000000000E+00 0.  1.
         12    1    5    5    0    0 -0.59303953917E+02  0.87406711359E+01  0.11425885928E+03  0.12902885416E+03  0.00000000000E+00 0. -1.
         11    1    3    3    0    0 -0.39246771314E+02  0.43031166831E+00 -0.38307305532E+03  0.38507851140E+03  0.00000000000E+00 0. -1.
        -12    1    3    3    0    0  0.40348977992E+02  0.77900637967E+01 -0.66335493825E+03  0.66462658630E+03  0.00000000000E+00 0.  1.
          5    1    4    4  501    0  0.22067237761E+02  0.54665066503E+02 -0.12690713726E+03  0.13999330829E+03  0.41800000000E+01 0.  1.
         -5    1    4    4    0  501  0.54526629915E+01 -0.68044683010E+02 -0.10613899155E+03  0.12626467577E+03  0.41800000000E+01 0.  1.
</event>
<event>
11    1  0.8864208E-009  0.1582053E+03  0.7561462E-02  0.1088778E+00
         22   -1    0    0    0    0  0.00000000000E+00  0.00000000000E+00  0.98040884186E+03  0.98040884186E+03  0.00000000000E+00 0.  1.
         22   -1    0    0    0    0 -0.00000000000E+00 -0.00000000000E+00 -0.18291049760E+03  0.18291049760E+03  0.00000000000E+00 0. -1.
         24    2    1    2    0    0  0.28138334996E+02  0.21512026068E+01 -0.11911497699E+03  0.14723748530E+03  0.81817515017E+02 0.  0.
         25    2    1    2    0    0 -0.11949664607E+03 -0.24960548676E+02  0.12510487812E+03  0.21494508164E+03  0.12509068782E+03 0.  0.
        -24    2    1    2    0    0  0.91358311070E+02  0.22809346069E+02  0.79150844313E+03  0.80113677252E+03  0.80423289395E+02 0.  0.
        -13    1    3    3    0    0 -0.74358667545E+01  0.36246574263E+02 -0.56903767477E+02  0.67875953129E+02  0.00000000000E+00 0.  1.
         14    1    3    3    0    0  0.35574201751E+02 -0.34095371656E+02 -0.62211209516E+02  0.79361532168E+02  0.00000000000E+00 0. -1.
         11    1    5    5    0    0 -0.14993675393E+02 -0.22414507707E+00  0.10060461748E+03  0.10171602430E+03  0.00000000000E+00 0. -1.
        -12    1    5    5    0    0  0.10635198646E+03  0.23033491146E+02  0.69090382565E+03  0.69942074822E+03  0.00000000000E+00 0.  1.
          5    1    4    4  501    0 -0.89353087724E+02 -0.43381275390E+01  0.53954325132E+01  0.89718318801E+02  0.41800000000E+01 0. -1.
         -5    1    4    4    0  501 -0.30143558341E+02 -0.20622421136E+02  0.11970944561E+03  0.12522676284E+03  0.41800000000E+01 0. -1.
</event>
<event>
11    1  0.8864208E-009  0.1347068E+03  0.7561462E-02  0.1113617E+00
         22   -1    0    0    0    0  0.00000000000E+00  0.00000000000E+00  0.90824726442E+03  0.90824726442E+03  0.00000000000E+00 0.  1.
         22   -1    0    0    0    0 -0.00000000000E+00 -0.00000000000E+00 -0.68022152133E+02  0.68022152133E+02  0.00000000000E+00 0. -1.
         24    2    1    2    0    0 -0.41939282564E+01  0.35041856955E+02  0.22735423351E+02  0.94947107269E+02  0.85161804412E+02 0.  0.
         25    2    1    2    0    0 -0.40858485982E+02 -0.87324453281E+01  0.12373350157E+03  0.18083193198E+03  0.12507812253E+03 0.  0.
        -24    2    1    2    0    0  0.45052414239E+02 -0.26309411627E+02  0.69375618737E+03  0.70049037731E+03  0.81653022087E+02 0.  0.
        -11    1    3    3    0    0 -0.70758982143E-01  0.45879824729E+02  0.48457861292E+02  0.66731758893E+02  0.00000000000E+00 0.  1.
         12    1    3    3    0    0 -0.41231692743E+01 -0.10837967774E+02 -0.25722437941E+02  0.28215348376E+02  0.00000000000E+00 0. -1.
         13    1    5    5    0    0 -0.64215484903E+01 -0.24925970260E+02  0.69487846691E+02  0.74101964320E+02  0.00000000000E+00 0. -1.
        -14    1    5    5    0    0  0.51473962729E+02 -0.13834413675E+01  0.62426834068E+03  0.62638841299E+03  0.00000000000E+00 0.  1.
          5    1    4    4  501    0 -0.31491722721E+02 -0.34978208673E+02  0.14036935108E+03  0.14810884782E+03  0.41800000000E+01 0. -1.
         -5    1    4    4    0  501 -0.93667632613E+01  0.26245763345E+02 -0.16635849511E+02  0.32723084153E+02  0.41800000000E+01 0. -1.
</event>
<event>
11    1  0.8864208E-009  0.1815626E+03  0.7561462E-02  0.1068386E+00
         22   -1    0    0    0    0  0.00000000000E+00  0.00000000000E+00  0.65286872388E+03  0.65286872388E+03  0.00000000000E+00 0. -1.
         22   -1    0    0    0    0 -0.00000000000E+00 -0.00000000000E+00 -0.71977394807E+03  0.71977394807E+03  0.00000000000E+00 0. -1.
        -24    2    1    2    0    0 -0.11390990403E+02  0.32212893643E+02 -0.63006837513E+03  0.63617551126E+03  0.81028998517E+02 0.  0.
         25    2    1    2    0    0  0.11364534652E+03 -0.10908997034E+03  0.58313230455E+02  0.20943765876E+03  0.12509122131E+03 0.  0.
         24    2    1    2    0    0 -0.10225435612E+03  0.76877076695E+02  0.50484992049E+03  0.52702950194E+03  0.80750327722E+02 0.  0.
        -13    1    5    5    0    0 -0.18759951938E+02 -0.13297797583E+02  0.39307042811E+02  0.45539113208E+02  0.00000000000E+00 0.  1.
         14    1    5    5    0    0 -0.83494404179E+02  0.90174874278E+02  0.46554287768E+03  0.48149038873E+03  0.00000000000E+00 0. -1.
         13    1    3    3    0    0  0.83746504982E+01  0.22696300493E+02 -0.58999262349E+03  0.59048840175E+03  0.00000000000E+00 0. -1.
        -14    1    3    3    0    0 -0.19765640902E+02  0.95165931503E+01 -0.40075751642E+02  0.45687109507E+02  0.00000000000E+00 0.  1.
          5    1    4    4  501    0  0.12319713267E+03 -0.52426529150E+02  0.10139652855E+02  0.13433673890E+03  0.41800000000E+01 0.  1.
         -5    1    4    4    0  501 -0.95517861543E+01 -0.56663441189E+02  0.48173577600E+02  0.75100919867E+02  0.41800000000E+01 0.  1.
</event>
<event>
11    1  0.8864208E-009  0.1349472E+03  0.7561462E-02  0.1113336E+00
         22   -1    0    0    0    0  0.00000000000E+00  0.00000000000E+00  0.32132805513E+03  0.32132805513E+03  0.00000000000E+00 0. -1.
         22   -1    0    0    0    0 -0.00000000000E+00 -0.00000000000E+00 -0.32839107779E+03  0.32839107779E+03  0.00000000000E+00 0.  1.
        -24    2    1    2    0    0 -0.49463276365E+02  0.17938258690E+02 -0.27534828892E+03  0.29214956588E+03  0.82257472577E+02 0.  0.
         25    2    1    2    0    0  0.26993801240E+02  0.63431174759E+01  0.80648092362E+02  0.15139111619E+03  0.12508499036E+03 0.  0.
         24    2    1    2    0    0  0.22469475125E+02 -0.24281376166E+02  0.18763717389E+03  0.20617845086E+03  0.78786940740E+02 0.  0.
        -13    1    5    5    0    0  0.48426169554E+02 -0.13433814763E+02  0.76457986283E+02  0.91495272791E+02  0.00000000000E+00 0.  1.
         14    1    5    5    0    0 -0.25956694429E+02 -0.10847561403E+02  0.11117918761E+03  0.11468317807E+03  0.00000000000E+00 0. -1.
         11    1    3    3    0    0 -0.54248366105E+02  0.37088999111E+02 -0.13204975358E+03  0.14749785253E+03  0.00000000000E+00 0. -1.
        -12    1    3    3    0    0  0.47850897402E+01 -0.19150740421E+02 -0.14329853534E+03  0.14465171335E+03  0.00000000000E+00 0.  1.
          5    1    4    4  501    0  0.29577830602E+02 -0.55211923581E+02  0.22829984248E+02  0.66797343879E+02  0.41800000000E+01 0. -1.
         -5    1    4    4    0  501 -0.25840293610E+01  0.61555041057E+02  0.57818108115E+02  0.84593772307E+02  0.41800000000E+01 0. -1.
</event>
<event>
11    1  0.1040038E-008  0.1597067E+03  0.7561462E-02  0.1087353E+00
         22   -1    0    0    0    0  0.00000000000E+00  0.00000000000E+00  0.13084300023E+03  0.13084300023E+03  0.00000000000E+00 0. -1.
         22   -1    0    0    0    0 -0.00000000000E+00 -0.00000000000E+00 -0.92949001457E+03  0.92949001457E+03  0.00000000000E+00 0.  1.
        -24    2    1    2    0    0 -0.73428384617E+00  0.60617186125E+02 -0.50909152584E+03  0.51897208535E+03  0.80516217363E+02 0.  0.
         25    2    1    2    0    0 -0.77192896187E+02 -0.11649650716E+03 -0.35276111254E+03  0.39952284872E+03  0.12509166531E+03 0.  0.
         24    2    1    2    0    0  0.77927180033E+02  0.55879321033E+02  0.63205624038E+02  0.14183808073E+03  0.83234285766E+02 0.  0.
        -13    1    5    5    0    0 -0.15195616571E+02  0.57510927162E+01 -0.37401721350E+01  0.16672453868E+02  0.00000000000E+00 0.  1.
         14    1    5    5    0    0  0.93122796604E+02  0.50128228317E+02  0.66945796173E+02  0.12516562686E+03  0.00000000000E+00 0. -1.
         11    1    3    3    0    0 -0.37000149203E+02  0.10752926673E+02 -0.16902149607E+03  0.17335773016E+03  0.00000000000E+00 0. -1.
        -12    1    3    3    0    0  0.36265865357E+02  0.49864259452E+02 -0.34007002977E+03  0.34561435518E+03  0.00000000000E+00 0.  1.
          5    1    4    4  501    0 -0.91161228355E+02 -0.11065379849E+03 -0.35571232116E+03  0.38354055914E+03  0.41800000000E+01 0.  1.
         -5    1    4    4    0  501  0.13968332168E+02 -0.58427086712E+01  0.29512086212E+01  0.15982289589E+02  0.41800000000E+01 0.  1.
</event>
<event>
11    1  0.8864208E-009  0.1843878E+03  0.7561462E-02  0.1066148E+00
         22   -1    0    0    0    0  0.00000000000E+00  0.00000000000E+00  0.42544670241E+03  0.42544670241E+03  0.00000000000E+00 0. -1.
         22   -1    0    0    0    0 -0.00000000000E+00 -0.00000000000E+00 -0.11606325295E+04  0.11606325295E+04  0.00000000000E+00 0. -1.
        -24    2    1    2    0    0 -0.10276250098E+03 -0.90674535075E+02 -0.11090854044E+04  0.11204604736E+04  0.81112489257E+02 0.  0.
         25    2    1    2    0    0  0.24876975712E+02  0.90730750054E+02  0.17344361200E+03  0.23362545036E+03  0.12508889473E+03 0.  0.
         24    2    1    2    0    0  0.77885525267E+02 -0.56214978449E-01  0.20045596526E+03  0.23199330792E+03  0.87018059655E+02 0.  0.
        -13    1    5    5    0    0 -0.73656236593E+01 -0.24190220974E+02  0.25667884657E+02  0.36031368353E+02  0.00000000000E+00 0.  1.
         14    1    5    5    0    0  0.85251148926E+02  0.24134005995E+02  0.17478808060E+03  0.19596193957E+03  0.00000000000E+00 0. -1.
         13    1    3    3    0    0 -0.91159601981E+02 -0.10600515259E+03 -0.99286132068E+03  0.10026568543E+04  0.00000000000E+00 0. -1.
        -14    1    3    3    0    0 -0.11602898997E+02  0.15330617519E+02 -0.11622408368E+03  0.11780361932E+03  0.00000000000E+00 0.  1.
          5    1    4    4  501    0  0.15737711141E+02  0.96442678105E+02  0.18984544906E+03  0.21355943585E+03  0.41800000000E+01 0.  1.
         -5    1    4    4    0  501  0.91392645709E+01 -0.57119280508E+01 -0.16401837063E+02  0.20066014502E+02  0.41800000000E+01 0.  1.
</event>
<event>
11    1  0.8864208E-009  0.1399589E+03  0.7561462E-02  0.1107604E+00
         22   -1    0    0    0    0  0.00000000000E+00  0.00000000000E+00  0.36767684854E+03  0.36767684854E+03  0.00000000000E+00 0. -1.
         22   -1    0    0    0    0 -0.00000000000E+00 -0.00000000000E+00 -0.14886843325E+04  0.14886843325E+04  0.00000000000E+00 0. -1.
        -24    2    1    2    0    0 -0.24922253607E+02 -0.17951421902E+02 -0.13537082092E+04  0.13563087630E+04  0.78129204855E+02 0.  0.
         25    2    1    2    0    0 -0.24863352839E+02  0.56964108048E+02 -0.86779802036E+02  0.16444903651E+03  0.12509858371E+03 0.  0.
         24    2    1    2    0    0  0.49785606446E+02 -0.39012686147E+02  0.31948052723E+03  0.33560338159E+03  0.81001396082E+02 0.  0.
        -13    1    5    5    0    0  0.66708640566E+02 -0.23215578074E+02  0.16622787134E+03  0.18061204556E+03  0.00000000000E+00 0.  1.
         14    1    5    5    0    0 -0.16923034120E+02 -0.15797108072E+02  0.15325265589E+03  0.15499133603E+03  0.00000000000E+00 0. -1.
         13    1    3    3    0    0 -0.50478515794E+00 -0.17487922824E+02 -0.12345335971E+04  0.12346575577E+04  0.00000000000E+00 0. -1.
        -14    1    3    3    0    0 -0.24417468449E+02 -0.46349907758E+00 -0.11917461207E+03  0.12165120534E+03  0.00000000000E+00 0.  1.
          5    1    4    4  501    0  0.32641705597E+02 -0.15549256349E+02  0.15727099139E+01  0.36430840421E+02  0.41800000000E+01 0. -1.
         -5    1    4    4    0  501 -0.57505058437E+02  0.72513364397E+02 -0.88352511950E+02  0.12801819609E+03  0.41800000000E+01 0. -1.
</event>
<event>
11    1  0.8864208E-009  0.1362837E+03  0.7561462E-02  0.1111781E+00
         22   -1    0    0    0    0  0.00000000000E+00  0.00000000000E+00  0.20333453769E+03  0.20333453769E+03  0.00000000000E+00 0. -1.
         22   -1    0    0    0    0 -0.00000000000E+00 -0.00000000000E+00 -0.29765499759E+03  0.29765499759E+03  0.00000000000E+00 0. -1.
        -24    2    1    2    0    0  0.12259968195E+02 -0.40285953565E+02 -0.19787828789E+03  0.21620828503E+03  0.76268871897E+02 0.  0.
         25    2    1    2    0    0 -0.57612838307E+02  0.67644002547E+01 -0.52019315374E+01  0.13798580124E+03  0.12509206611E+03 0.  0.
         24    2    1    2    0    0  0.45352870111E+02  0.33521553310E+02  0.10875975952E+03  0.14679544902E+03  0.80868048065E+02 0.  0.
        -13    1    5    5    0    0  0.11609796487E+00 -0.20499820845E+02  0.45474376818E+01  0.20998460012E+02  0.00000000000E+00 0.  1.
         14    1    5    5    0    0  0.45236772146E+02  0.54021374155E+02  0.10421232184E+03  0.12579698901E+03  0.00000000000E+00 0. -1.
         11    1    3    3    0    0  0.24809800277E+02  0.75681370327E+01 -0.12792870378E+03  0.13053182041E+03  0.00000000000E+00 0. -1.
        -12    1    3    3    0    0 -0.12549832082E+02 -0.47854090597E+02 -0.69949584106E+02  0.85676464614E+02  0.00000000000E+00 0.  1.
          5    1    4    4  501    0 -0.83554827452E+02 -0.33188930251E+02 -0.54255927454E+01  0.90165535202E+02  0.41800000000E+01 0.  1.
         -5    1    4    4    0  501  0.25941989145E+02  0.39953330506E+02  0.22366120798E+00  0.47820266035E+02  0.41800000000E+01 0.  1.
</event>
<event>
11    1  0.8864208E-009  0.1548135E+03  0.7561462E-02  0.1092059E+00
         22   -1    0    0    0    0  0.00000000000E+00  0.00000000000E+00  0.59316981790E+02  0.59316981790E+02  0.00000000000E+00 0.  1.
         22   -1    0    0    0    0 -0.00000000000E+00 -0.00000000000E+00 -0.37780421878E+04  0.37780421878E+04  0.00000000000E+00 0.  1.
        -24    2    1    2    0    0 -0.31999446505E+01  0.13930923696E+02 -0.34129966870E+04  0.34139504636E+04  0.79417075303E+02 0.  0.
         25    2    1    2    0    0 -0.71610309046E+02 -0.63474429928E+02 -0.23855028686E+03  0.28584977335E+03  0.12508722534E+03 0.  0.
         24    2    1    2    0    0  0.74810253696E+02  0.49543506232E+02 -0.67178232082E+02  0.13755893262E+03  0.79739651434E+02 0.  0.
        -13    1    5    5    0    0  0.21662523672E+02  0.56608058250E+01  0.17470549503E+02  0.28399467501E+02  0.00000000000E+00 0.  1.
         14    1    5    5    0    0  0.53147730025E+02  0.43882700407E+02 -0.84648781585E+02  0.10915946512E+03  0.00000000000E+00 0. -1.
         13    1    3    3    0    0  0.16426496390E+02 -0.14856051343E+01 -0.15808263693E+03  0.15894073394E+03  0.00000000000E+00 0. -1.
        -14    1    3    3    0    0 -0.19626441041E+02  0.15416528830E+02 -0.32549140501E+04  0.32550097297E+04  0.00000000000E+00 0.  1.
          5    1    4    4  501    0 -0.21158869780E+02  0.17586621756E+01 -0.18755628201E+03  0.18880048195E+03  0.41800000000E+01 0. -1.
         -5    1    4    4    0  501 -0.50451439266E+02 -0.65233092104E+02 -0.50994004847E+02  0.97049291393E+02  0.41800000000E+01 0. -1.
</event>
<event>
11    1  0.8864208E-009  0.1720113E+03  0.7561462E-02  0.1076295E+00
         22   -1    0    0    0    0  0.00000000000E+00  0.00000000000E+00  0.24673373173E+03  0.24673373173E+03  0.00000000000E+00 0. -1.
         22   -1    0    0    0    0 -0.00000000000E+00 -0.00000000000E+00 -0.14072793609E+04  0.14072793609E+04  0.00000000000E+00 0. -1.
        -24    2    1    2    0    0 -0.10533506473E+02 -0.35697665434E+02 -0.11635086688E+04  0.11669801896E+04  0.81884446774E+02 0.  0.
         25    2    1    2    0    0 -0.49138186679E+02  0.13459646252E+03 -0.17611032611E+03  0.25921683787E+03  0.12509097873E+03 0.  0.
         24    2    1    2    0    0  0.59671693152E+02 -0.98898797086E+02  0.17907336570E+03  0.22781606514E+03  0.80568022223E+02 0.  0.
        -11    1    5    5    0    0  0.49400230911E+02 -0.37037345175E+02  0.35680441616E+02  0.71310880415E+02  0.00000000000E+00 0.  1.
         12    1    5    5    0    0  0.10271462241E+02 -0.61861451911E+02  0.14339292408E+03  0.15650518472E+03  0.00000000000E+00 0. -1.
         13    1    3    3    0    0 -0.19297909135E+02 -0.60460288832E+02 -0.85831265252E+03  0.86065583441E+03  0.00000000000E+00 0. -1.
        -14    1    3    3    0    0  0.87644026617E+01  0.24762623398E+02 -0.30519601624E+03  0.30632435522E+03  0.00000000000E+00 0.  1.
          5    1    4    4  501    0 -0.30860094333E+02  0.14925261416E+03 -0.17912597215E+03  0.23522813300E+03  0.41800000000E+01 0.  1.
         -5    1    4    4    0  501 -0.18278092346E+02 -0.14656151637E+02  0.30156460378E+01  0.23988704876E+02  0.41800000000E+01 0.  1.
</event>
<event>
11    1  0.8864208E-009  0.2703917E+03  0.7561462E-02  0.1013564E+00
         22   -1    0    0    0    0  0.00000000000E+00  0.00000000000E+00  0.94105745914E+03  0.94105745914E+03  0.00000000000E+00 0. -1.
         22   -1    0    0    0    0 -0.00000000000E+00 -0.00000000000E+00 -0.31428611821E+03  0.31428611821E+03  0.00000000000E+00 0.  1.
        -24    2    1    2    0    0 -0.21356967485E+03  0.10854046885E+03 -0.21804950348E+03  0.33373544776E+03  0.80254119678E+02 0.  0.
         25    2    1    2    0    0  0.19462548736E+03 -0.14877652609E+03  0.57650522314E+03  0.63876412903E+03  0.12509118749E+03 0.  0.
         24    2    1    2    0    0  0.18944187487E+02  0.40236057231E+02  0.26831562127E+03  0.28284400057E+03  0.77650714711E+02 0.  0.
        -11    1    5    5    0    0  0.47322677414E+02  0.38559288608E+02  0.18077317458E+03  0.19080145488E+03  0.00000000000E+00 0.  1.
         12    1    5    5    0    0 -0.28378489927E+02  0.16767686227E+01  0.87542446692E+02  0.92042545687E+02  0.00000000000E+00 0. -1.
         11    1    3    3    0    0 -0.20645992754E+01 -0.97424578578E+01 -0.53907620856E+01  0.11324238215E+02  0.00000000000E+00 0. -1.
        -12    1    3    3    0    0 -0.21150507557E+03  0.11828292671E+03 -0.21265874140E+03  0.32241120954E+03  0.00000000000E+00 0.  1.
          5    1    4    4  501    0  0.96991577885E+02 -0.48450098044E+01  0.26035069993E+03  0.27790429946E+03  0.41800000000E+01 0.  1.
         -5    1    4    4    0  501  0.97633909476E+02 -0.14393151628E+03  0.31615452321E+03  0.36085982958E+03  0.41800000000E+01 0.  1.
</event>
<event>
11    1  0.8864208E-009  0.1537840E+03  0.7561462E-02  0.1093074E+00
         22   -1    0    0    0    0  0.00000000000E+00  0.00000000000E+00  0.12133580352E+03  0.12133580352E+03  0.00000000000E+00 0. -1.
         22   -1    0    0    0    0 -0.00000000000E+00 -0.00000000000E+00 -0.69842029653E+03  0.69842029653E+03  0.00000000000E+00 0.  1.
        -24    2    1    2    0    0  0.35137690945E+02  0.34759544673E+02 -0.38291483750E+03  0.39448375354E+03  0.80936862804E+02 0.  0.
         25    2    1    2    0    0  0.58874272954E+02 -0.25278774732E+02 -0.25027340802E+03  0.28702593904E+03  0.12506763950E+03 0.  0.
         24    2    1    2    0    0 -0.94011963899E+02 -0.94807699407E+01  0.56103752507E+02  0.13824640747E+03  0.83882678655E+02 0.  0.
        -13    1    5    5    0    0  0.40675904165E+01 -0.21932062388E+02  0.27330683983E+02  0.35277853384E+02  0.00000000000E+00 0.  1.
         14    1    5    5    0    0 -0.98079554316E+02  0.12451292448E+02  0.28773068524E+02  0.10296855409E+03  0.00000000000E+00 0. -1.
         11    1    3    3    0    0  0.49323647794E+02  0.47077434433E+02 -0.21578595364E+03  0.22630219808E+03  0.00000000000E+00 0. -1.
        -12    1    3    3    0    0 -0.14185956849E+02 -0.12317889760E+02 -0.16712888385E+03  0.16818155546E+03  0.00000000000E+00 0.  1.
          5    1    4    4  501    0  0.31163583458E+02 -0.26579204344E+02 -0.25523663896E+03  0.25853594973E+03  0.41800000000E+01 0. -1.
         -5    1    4    4    0  501  0.27710689496E+02  0.13004296118E+01  0.49632309346E+01  0.28489989309E+02  0.41800000000E+01 0. -1.
</event>
<event>
11    1  0.8864208E-009  0.1372073E+03  0.7561462E-02  0.1110718E+00
         22   -1    0    0    0    0  0.00000000000E+00  0.00000000000E+00  0.34311778010E+04  0.34311778010E+04  0.00000000000E+00 0.  1.
         22   -1    0    0    0    0 -0.00000000000E+00 -0.00000000000E+00 -0.31374424887E+03  0.31374424887E+03  0.00000000000E+00 0. -1.
         24    2    1    2    0    0 -0.31124947881E+02  0.46992333038E+02 -0.29583521246E+03  0.31161498764E+03  0.80052394406E+02 0.  0.
         25    2    1    2    0    0  0.32034991512E+02 -0.44201950061E+02  0.48351078787E+03  0.50240896324E+03  0.12510807844E+03 0.  0.
        -24    2    1    2    0    0 -0.91004363171E+00 -0.27903829764E+01  0.29297579768E+04  0.29308980990E+04  0.81689962728E+02 0.  0.
        -11    1    3    3    0    0  0.22966787846E+02  0.97650090574E+01 -0.37356049490E+02  0.44925529261E+02  0.00000000000E+00 0.  1.
         12    1    3    3    0    0 -0.54091735727E+02  0.37227323980E+02 -0.25847916297E+03  0.26668945838E+03  0.00000000000E+00 0. -1.
         11    1    5    5    0    0  0.18951650884E+02  0.25049652405E+02  0.55119685719E+03  0.55209113879E+03  0.00000000000E+00 0. -1.
        -12    1    5    5    0    0 -0.19861694515E+02 -0.27840035381E+02  0.23785611196E+04  0.23788069602E+04  0.00000000000E+00 0.  1.
          5    1    4    4  501    0  0.27078636226E+02  0.31040736894E+02  0.64490487457E+02  0.76637296790E+02  0.41800000000E+01 0. -1.
         -5    1    4    4    0  501  0.49563552863E+01 -0.75242686955E+02  0.41902030041E+03  0.42577166645E+03  0.41800000000E+01 0. -1.
</event>
<event>
11    1  0.8864208E-009  0.1720575E+03  0.7561462E-02  0.1076255E+00
         22   -1    0    0    0    0  0.00000000000E+00  0.00000000000E+00  0.30477948885E+03  0.30477948885E+03  0.00000000000E+00 0.  1.
         22   -1    0    0    0    0 -0.00000000000E+00 -0.00000000000E+00 -0.36940111160E+03  0.36940111160E+03  0.00000000000E+00 0. -1.
        -24    2    1    2    0    0 -0.76127232498E+02  0.81971698714E+02 -0.25923022247E+03  0.30278639203E+03  0.10938270447E+03 0.  0.
         25    2    1    2    0    0  0.10150155899E+03 -0.12188905242E+03  0.67087207196E+02  0.21285545229E+03  0.12508893885E+03 0.  0.
         24    2    1    2    0    0 -0.25374326492E+02  0.39917353705E+02  0.12752139253E+03  0.15853875614E+03  0.81459069916E+02 0.  0.
        -11    1    5    5    0    0 -0.25493068723E+02  0.61222574602E+02  0.11765736344E+03  0.13506056185E+03  0.00000000000E+00 0.  1.
         12    1    5    5    0    0  0.11874223088E+00 -0.21305220896E+02  0.98640290889E+01  0.23478194288E+02  0.00000000000E+00 0. -1.
         13    1    3    3    0    0 -0.42300896659E+02  0.71160100407E+02 -0.25367670230E+03  0.26684264096E+03  0.00000000000E+00 0. -1.
        -14    1    3    3    0    0 -0.33826335839E+02  0.10811598307E+02 -0.55535201750E+01  0.35943751064E+02  0.00000000000E+00 0.  1.
          5    1    4    4  501    0  0.82841047289E+02 -0.76431741331E+02  0.10228801451E+03  0.15226542783E+03  0.41800000000E+01 0. -1.
         -5    1    4    4    0  501  0.18660511702E+02 -0.45457311088E+02 -0.35200807316E+02  0.60590024460E+02  0.41800000000E+01 0. -1.
</event>
<event>
11    1  0.8864208E-009  0.2676570E+03  0.7561462E-02  0.1014892E+00
         22   -1    0    0    0    0  0.00000000000E+00  0.00000000000E+00  0.38964129294E+03  0.38964129294E+03  0.00000000000E+00 0. -1.
         22   -1    0    0    0    0 -0.00000000000E+00 -0.00000000000E+00 -0.41701047174E+03  0.41701047174E+03  0.00000000000E+00 0. -1.
        -24    2    1    2    0    0 -0.53804679054E+02 -0.48196960457E+02 -0.34438029953E+02  0.11315516563E+03  0.80001394460E+02 0.  0.
         25    2    1    2    0    0  0.42403109775E+02 -0.19616572767E+03 -0.23947708138E+03  0.33656463810E+03  0.12508983444E+03 0.  0.
         24    2    1    2    0    0  0.11401569279E+02  0.24436268813E+03  0.24654593253E+03  0.35693196095E+03  0.82294646043E+02 0.  0.
        -11    1    5    5    0    0 -0.17379463758E+02  0.13667085615E+03  0.89293292417E+02  0.16417752816E+03  0.00000000000E+00 0.  1.
         12    1    5    5    0    0  0.28781033037E+02  0.10769183198E+03  0.15725264012E+03  0.19275443279E+03  0.00000000000E+00 0. -1.
         11    1    3    3    0    0 -0.20653371156E+02 -0.29009858397E+02 -0.58090895223E+02  0.68137256564E+02  0.00000000000E+00 0. -1.
        -12    1    3    3    0    0 -0.33151307898E+02 -0.19187102060E+02  0.23652865270E+02  0.45017909062E+02  0.00000000000E+00 0.  1.
          5    1    4    4  501    0  0.70852216396E+02 -0.90770667318E+02 -0.69670234905E+02  0.13465052783E+03  0.41800000000E+01 0. -1.
         -5    1    4    4    0  501 -0.28449106621E+02 -0.10539506035E+03 -0.16980684648E+03  0.20191411027E+03  0.41800000000E+01 0. -1.
</event>
<event>
11    1  0.8864208E-009  0.1695928E+03  0.7561462E-02  0.1078387E+00
         22   -1    0    0    0    0  0.00000000000E+00  0.00000000000E+00  0.48433281029E+03  0.48433281029E+03  0.00000000000E+00 0. -1.
         22   -1    0    0    0    0 -0.00000000000E+00 -0.00000000000E+00 -0.53036507757E+03  0.53036507757E+03  0.00000000000E+00 0. -1.
         24    2    1    2    0    0 -0.67024286658E+02  0.48508548034E+02 -0.19243931396E+03  0.22458330995E+03  0.80990365560E+02 0.  0.
         25    2    1    2    0    0  0.15482592879E+03  0.23816457198E+02 -0.27825291528E+03  0.34294325059E+03  0.12508835441E+03 0.  0.
        -24    2    1    2    0    0 -0.87801642134E+02 -0.72325005232E+02  0.42465996195E+03  0.44717132732E+03  0.81768441046E+02 0.  0.
        -11    1    3    3    0    0  0.11603216508E+02  0.16460675190E+02 -0.82462173102E+01  0.21762089995E+02  0.00000000000E+00 0.  1.
         12    1    3    3    0    0 -0.78627503166E+02  0.32047872844E+02 -0.18419309665E+03  0.20282121995E+03  0.00000000000E+00 0. -1.
         13    1    5    5    0    0 -0.38541312240E+02  0.73820807382E+01  0.19897721198E+03  0.20280990792E+03  0.00000000000E+00 0. -1.
        -14    1    5    5    0    0 -0.49260329894E+02 -0.79707085970E+02  0.22568274997E+03  0.24436141940E+03  0.00000000000E+00 0.  1.
          5    1    4    4  501    0  0.17590035924E+03  0.24521514768E+02 -0.23449030699E+03  0.29418602540E+03  0.41800000000E+01 0.  1.
         -5    1    4    4    0  501 -0.21074430448E+02 -0.70505756962E+00 -0.43762608281E+02  0.48757225192E+02  0.41800000000E+01 0.  1.
</event>
<event>
11    1  0.8864208E-009  0.5934810E+03  0.7561462E-02  0.9205919E-01
         22   -1    0    0    0    0  0.00000000000E+00  0.00000000000E+00  0.54663309643E+03  0.54663309643E+03  0.00000000000E+00 0. -1.
         22   -1    0    0    0    0 -0.00000000000E+00 -0.00000000000E+00 -0.17336882957E+04  0.17336882957E+04  0.00000000000E+00 0. -1.
        -24    2    1    2    0    0 -0.18007568053E+02  0.10838688021E+03 -0.53123207219E+03  0.54831271587E+03  0.79795561014E+02 0.  0.
         25    2    1    2    0    0  0.34222683492E+03  0.38815252349E+03 -0.93148444728E+03  0.10728903724E+04  0.12509551432E+03 0.  0.
         24    2    1    2    0    0 -0.32421926686E+03 -0.49653940370E+03  0.27566132016E+03  0.65911830387E+03  0.82330204802E+02 0.  0.
        -11    1    5    5    0    0 -0.16366808232E+03 -0.31423958680E+03  0.18614971713E+03  0.40023177819E+03  0.00000000000E+00 0.  1.
         12    1    5    5    0    0 -0.16055118455E+03 -0.18229981690E+03  0.89511603038E+02  0.25888652568E+03  0.00000000000E+00 0. -1.
         11    1    3    3    0    0  0.66403136651E+01  0.14694785336E+02 -0.25637318080E+03  0.25687981298E+03  0.00000000000E+00 0. -1.
        -12    1    3    3    0    0 -0.24647881718E+02  0.93692094873E+02 -0.27485889139E+03  0.29143290290E+03  0.00000000000E+00 0.  1.
          5    1    4    4  501    0  0.25136688083E+03  0.19435445485E+03 -0.57989723241E+03  0.66125428956E+03  0.41800000000E+01 0. -1.
         -5    1    4    4    0  501  0.90859954084E+02  0.19379806864E+03 -0.35158721487E+03  0.41163608287E+03  0.41800000000E+01 0. -1.
</event>
<event>
11    1  0.8864208E-009  0.3755148E+03  0.7561462E-02  0.9724900E-01
         22   -1    0    0    0    0  0.00000000000E+00  0.00000000000E+00  0.91519398065E+03  0.91519398065E+03  0.00000000000E+00 0. -1.
         22   -1    0    0    0    0 -0.00000000000E+00 -0.00000000000E+00 -0.33286340045E+03  0.33286340045E+03  0.00000000000E+00 0.  1.
         24    2    1    2    0    0 -0.17960309427E+03 -0.30534961673E+03 -0.13357835267E+03  0.38624565272E+03  0.76464815685E+02 0.  0.
         25    2    1    2    0    0  0.20859808255E+03  0.28677877566E+03  0.47327321359E+03  0.60447630337E+03  0.12509532536E+03 0.  0.
        -24    2    1    2    0    0 -0.28994988286E+02  0.18570841069E+02  0.24263571929E+03  0.25733542500E+03  0.78510147128E+02 0.  0.
        -11    1    3    3    0    0 -0.50960081894E+02 -0.11596606713E+03 -0.84014970982E+02  0.15199859874E+03  0.00000000000E+00 0.  1.
         12    1    3    3    0    0 -0.12864301237E+03 -0.18938354960E+03 -0.49563381690E+02  0.23424705398E+03  0.00000000000E+00 0. -1.
         11    1    5    5    0    0 -0.48321930522E+02  0.28479173705E+02  0.11597981144E+03  0.12883085410E+03  0.00000000000E+00 0. -1.
        -12    1    5    5    0    0  0.19326942236E+02 -0.99083326359E+01  0.12665590784E+03  0.12850457090E+03  0.00000000000E+00 0.  1.
          5    1    4    4  501    0  0.13559404099E+03  0.11176091229E+03  0.29930712399E+03  0.34710008980E+03  0.41800000000E+01 0.  1.
         -5    1    4    4    0  501  0.73004041564E+02  0.17501786337E+03  0.17396608959E+03  0.25737621357E+03  0.41800000000E+01 0.  1.
</event>
<event>
11    1  0.8864208E-009  0.1589049E+03  0.7561462E-02  0.1088112E+00
         22   -1    0    0    0    0  0.00000000000E+00  0.00000000000E+00  0.50261496204E+03  0.50261496204E+03  0.00000000000E+00 0. -1.
         22   -1    0    0    0    0 -0.00000000000E+00 -0.00000000000E+00 -0.12256275232E+04  0.12256275232E+04  0.00000000000E+00 0.  1.
         24    2    1    2    0    0 -0.92418894861E+02 -0.33756932980E+02 -0.11862304323E+04  0.11930297266E+04  0.80600914071E+02 0.  0.
         25    2    1    2    0    0  0.72429366447E+02  0.28181052322E+02  0.14603256896E+03  0.20739426498E+03  0.12508671039E+03 0.  0.
        -24    2    1    2    0    0  0.19989528414E+02  0.55758806581E+01  0.31718530222E+03  0.32781849365E+03  0.80173419194E+02 0.  0.
        -13    1    3    3    0    0 -0.51646347202E+02 -0.95966114302E+01 -0.98069950812E+03  0.98210537386E+03  0.00000000000E+00 0.  1.
         14    1    3    3    0    0 -0.40772547659E+02 -0.24160321550E+02 -0.20553092421E+03  0.21092435276E+03  0.00000000000E+00 0. -1.
         11    1    5    5    0    0  0.12427871541E+02  0.41551065557E+02  0.21210147738E+03  0.21649013776E+03  0.00000000000E+00 0. -1.
        -12    1    5    5    0    0  0.75616568732E+01 -0.35975184899E+02  0.10508382484E+03  0.11132835589E+03  0.00000000000E+00 0.  1.
          5    1    4    4  501    0  0.71380212978E+02  0.60714782382E+02  0.14720950396E+03  0.17455523499E+03  0.41800000000E+01 0.  1.
         -5    1    4    4    0  501  0.10491534693E+01 -0.32533730060E+02 -0.11769350054E+01  0.32839029990E+02  0.41800000000E+01 0.  1.
</event>
<event>
11    1  0.8864208E-009  0.1372532E+03  0.7561462E-02  0.1110665E+00
         22   -1    0    0    0    0  0.00000000000E+00  0.00000000000E+00  0.51708855175E+03  0.51708855175E+03  0.00000000000E+00 0. -1.
         22   -1    0    0    0    0 -0.00000000000E+00 -0.00000000000E+00 -0.53539481682E+03  0.53539481682E+03  0.00000000000E+00 0. -1.
        -24    2    1    2    0    0 -0.37966484482E+02  0.42514688401E+02 -0.44268437686E+03  0.45398822593E+03  0.82987342967E+02 0.  0.
         25    2    1    2    0    0  0.12489224428E+02 -0.56822586411E+02 -0.25755607592E+02  0.14033960044E+03  0.12508822917E+03 0.  0.
         24    2    1    2    0    0  0.25477260053E+02  0.14307898009E+02  0.45013371939E+03  0.45815554219E+03  0.80201800391E+02 0.  0.
        -11    1    5    5    0    0 -0.18234917104E+02  0.15996756178E+02  0.49327357732E+02  0.54969051573E+02  0.00000000000E+00 0.  1.
         12    1    5    5    0    0  0.43712177158E+02 -0.16888581685E+01  0.40080636166E+03  0.40318649062E+03  0.00000000000E+00 0. -1.
         11    1    3    3    0    0 -0.41161670689E+02  0.48664982056E+02 -0.44248765568E+03  0.44705468238E+03  0.00000000000E+00 0. -1.
        -12    1    3    3    0    0  0.31951862075E+01 -0.61502936541E+01 -0.19672118472E+00  0.69335435497E+01  0.00000000000E+00 0.  1.
          5    1    4    4  501    0 -0.55046758816E+02 -0.12041207231E+02 -0.59479689063E+01  0.56815376984E+02  0.41800000000E+01 0.  1.
         -5    1    4    4    0  501  0.67535983245E+02 -0.44781379179E+02 -0.19807638686E+02  0.83524223458E+02  0.41800000000E+01 0.  1.
</event>
<event>
11    1  0.8864208E-009  0.1308771E+03  0.7561462E-02  0.1118196E+00
         22   -1    0    0    0    0  0.00000000000E+00  0.00000000000E+00  0.33701233647E+03  0.33701233647E+03  0.00000000000E+00 0.  1.
         22   -1    0    0    0    0 -0.00000000000E+00 -0.00000000000E+00 -0.15673465367E+04  0.15673465367E+04  0.00000000000E+00 0. -1.
        -24    2    1    2    0    0  0.26942799457E+01 -0.36097055203E+02 -0.12209393802E+04  0.12240902732E+04  0.79961054679E+02 0.  0.
         25    2    1    2    0    0  0.23959422747E+02  0.60920968808E+02 -0.32417805699E+03  0.35358652124E+03  0.12508635814E+03 0.  0.
         24    2    1    2    0    0 -0.26653702693E+02 -0.24823913605E+02  0.31478323695E+03  0.32668207874E+03  0.79410627454E+02 0.  0.
        -11    1    5    5    0    0 -0.31803821280E+02 -0.15734814732E+02  0.31422317176E+03  0.31622028574E+03  0.00000000000E+00 0.  1.
         12    1    5    5    0    0  0.51501185874E+01 -0.90890988729E+01  0.56006518906E+00  0.10461793001E+02  0.00000000000E+00 0. -1.
         11    1    3    3    0    0  0.31154898233E+02  0.33518344730E+01 -0.74795992650E+03  0.74861599911E+03  0.00000000000E+00 0. -1.
        -12    1    3    3    0    0 -0.28460618288E+02 -0.39448889676E+02 -0.47297945366E+03  0.47547427404E+03  0.00000000000E+00 0.  1.
          5    1    4    4  501    0  0.19040838403E+02 -0.23293955829E+01  0.33742994106E+01  0.19920790832E+02  0.41800000000E+01 0.  1.
         -5    1    4    4    0  501  0.49185843443E+01  0.63250364391E+02 -0.32755235640E+03  0.33366573041E+03  0.41800000000E+01 0.  1.
</event>
<event>
11    1  0.8864208E-009  0.2205660E+03  0.7561462E-02  0.1040863E+00
         22   -1    0    0    0    0  0.00000000000E+00  0.00000000000E+00  0.49590875811E+03  0.49590875811E+03  0.00000000000E+00 0. -1.
         22   -1    0    0    0    0 -0.00000000000E+00 -0.00000000000E+00 -0.24383675578E+03  0.24383675578E+03  0.00000000000E+00 0. -1.
        -24    2    1    2    0    0  0.31320021635E+02  0.59882859134E+02 -0.81672664047E+02  0.13405476276E+03  0.82057021587E+02 0.  0.
         25    2    1    2    0    0 -0.20642212748E+03 -0.42707338848E+02  0.31639409603E+02  0.24714898565E+03  0.12509019692E+03 0.  0.
         24    2    1    2    0    0  0.17510210584E+03 -0.17175520286E+02  0.30210525677E+03  0.35854176548E+03  0.79554166814E+02 0.  0.
        -11    1    5    5    0    0  0.14602553231E+03  0.10593457833E+02  0.19289567410E+03  0.24216609697E+03  0.00000000000E+00 0.  1.
         12    1    5    5    0    0  0.29076573532E+02 -0.27768978120E+02  0.10920958267E+03  0.11637566851E+03  0.00000000000E+00 0. -1.
         11    1    3    3    0    0  0.21451121285E+01  0.13641264318E+02 -0.78046488374E+02  0.79258690033E+02  0.00000000000E+00 0. -1.
        -12    1    3    3    0    0  0.29174909507E+02  0.46241594816E+02 -0.36261756729E+01  0.54796072723E+02  0.00000000000E+00 0.  1.
          5    1    4    4  501    0 -0.20356267897E+03 -0.60898107103E+02  0.52606886243E+02  0.21893218264E+03  0.41800000000E+01 0.  1.
         -5    1    4    4    0  501 -0.28594485092E+01  0.18190768255E+02 -0.20967476640E+02  0.28216803010E+02  0.41800000000E+01 0.  1.
</event>
<event>
11    1  0.8864208E-009  0.1682765E+03  0.7561462E-02  0.1079541E+00
         22   -1    0    0    0    0  0.00000000000E+00  0.00000000000E+00  0.21372849620E+04  0.21372849620E+04  0.00000000000E+00 0.  1.
         22   -1    0    0    0    0 -0.00000000000E+00 -0.00000000000E+00 -0.17102388809E+03  0.17102388809E+03  0.00000000000E+00 0.  1.
         24    2    1    2    0    0 -0.15206642799E+02  0.44564979559E+02 -0.14515770001E+03  0.17253552004E+03  0.80501356603E+02 0.  0.
         25    2    1    2    0    0  0.46647620159E+02  0.76467090113E+02  0.71268876081E+03  0.72910667183E+03  0.12509217715E+03 0.  0.
        -24    2    1    2    0    0 -0.31440977360E+02 -0.12103206967E+03  0.13987300131E+04  0.14066666582E+04  0.81413394516E+02 0.  0.
        -13    1    3    3    0    0 -0.14624902201E+02  0.13542200711E+02 -0.13959721720E+03  0.14101298527E+03  0.00000000000E+00 0.  1.
         14    1    3    3    0    0 -0.58174059788E+00  0.31022778848E+02 -0.55604828160E+01  0.31522534776E+02  0.00000000000E+00 0. -1.
         13    1    5    5    0    0  0.18196434991E+02 -0.55769627363E+02  0.36439746731E+03  0.36908925176E+03  0.00000000000E+00 0. -1.
        -14    1    5    5    0    0 -0.49637412350E+02 -0.65262442310E+02  0.10343325458E+04  0.10375774065E+04  0.00000000000E+00 0.  1.
          5    1    4    4  501    0  0.76079114287E+02  0.48936055217E+01  0.35157133652E+03  0.35976639097E+03  0.41800000000E+01 0.  1.
         -5    1    4    4    0  501 -0.29431494128E+02  0.71573484592E+02  0.36111742429E+03  0.36934028087E+03  0.41800000000E+01 0.  1.
</event>
<event>
11    1  0.8864208E-009  0.1986094E+03  0.7561462E-02  0.1055511E+00
         22   -1    0    0    0    0  0.00000000000E+00  0.00000000000E+00  0.36474106688E+03  0.36474106688E+03  0.00000000000E+00 0. -1.
         22   -1    0    0    0    0 -0.00000000000E+00 -0.00000000000E+00 -0.80652709676E+03  0.80652709676E+03  0.00000000000E+00 0. -1.
        -24    2    1    2    0    0  0.37272636594E+02  0.58165430230E+02 -0.62453554532E+03  0.63343439793E+03  0.80137521857E+02 0.  0.
         25    2    1    2    0    0  0.11749488341E+03 -0.88603170207E+02 -0.89474885588E+02  0.21286174519E+03  0.12509515584E+03 0.  0.
         24    2    1    2    0    0 -0.15476752001E+03  0.30437739976E+02  0.27222440103E+03  0.32497202052E+03  0.81371053464E+02 0.  0.
        -13    1    5    5    0    0 -0.37605162613E+02  0.39373511045E+02  0.51626567989E+02  0.75031487720E+02  0.00000000000E+00 0.  1.
         14    1    5    5    0    0 -0.11716235739E+03 -0.89357710692E+01  0.22059783304E+03  0.24994053280E+03  0.00000000000E+00 0. -1.
         11    1    3    3    0    0  0.53119155926E+02  0.16289092546E+02 -0.44244252428E+03  0.44591744365E+03  0.00000000000E+00 0. -1.
        -12    1    3    3    0    0 -0.15846519331E+02  0.41876337684E+02 -0.18209302104E+03  0.18751695428E+03  0.00000000000E+00 0.  1.
          5    1    4    4  501    0  0.40664822592E+02  0.89038876649E+01  0.20837014844E+02  0.46739283260E+02  0.41800000000E+01 0.  1.
         -5    1    4    4    0  501  0.76830060819E+02 -0.97507057871E+02 -0.11031190043E+03  0.16612246193E+03  0.41800000000E+01 0.  1.
</event>
<event>
11    1  0.8864208E-009  0.1475283E+03  0.7561462E-02  0.1099431E+00
         22   -1    0    0    0    0  0.00000000000E+00  0.00000000000E+00  0.83571729893E+03  0.83571729893E+03  0.00000000000E+00 0. -1.
         22   -1    0    0    0    0 -0.00000000000E+00 -0.00000000000E+00 -0.10007303499E+04  0.10007303499E+04  0.00000000000E+00 0.  1.
        -24    2    1    2    0    0  0.31481680427E+02 -0.48190927319E+02 -0.94034298157E+03  0.94559755091E+03  0.81217877460E+02 0.  0.
         25    2    1    2    0    0  0.12143823400E+02  0.11098352809E+03  0.78348615137E+02  0.18506986280E+03  0.12509009821E+03 0.  0.
         24    2    1    2    0    0 -0.43625503828E+02 -0.62792600770E+02  0.69698131544E+03  0.70578023514E+03  0.80602052961E+02 0.  0.
        -13    1    5    5    0    0  0.16539165808E+02 -0.20415825988E+02  0.75175160974E+02  0.79634507494E+02  0.00000000000E+00 0.  1.
         14    1    5    5    0    0 -0.60164669635E+02 -0.42376774783E+02  0.62180615446E+03  0.62614572764E+03  0.00000000000E+00 0. -1.
         11    1    3    3    0    0  0.35031819870E+02  0.57091676313E+00 -0.16321616254E+03  0.16693432860E+03  0.00000000000E+00 0. -1.
        -12    1    3    3    0    0 -0.35501394424E+01 -0.48761844082E+02 -0.77712681903E+03  0.77866322231E+03  0.00000000000E+00 0.  1.
          5    1    4    4  501    0  0.37413673571E+02  0.12988232638E+03  0.69444219278E+02  0.15201701769E+03  0.41800000000E+01 0.  1.
         -5    1    4    4    0  501 -0.25269850170E+02 -0.18898798291E+02  0.89043958598E+01  0.33052845113E+02  0.41800000000E+01 0.  1.
</event>
<event>
11    1  0.8864208E-009  0.1484073E+03  0.7561462E-02  0.1098517E+00
         22   -1    0    0    0    0  0.00000000000E+00  0.00000000000E+00  0.14357189915E+03  0.14357189915E+03  0.00000000000E+00 0.  1.
         22   -1    0    0    0    0 -0.00000000000E+00 -0.00000000000E+00 -0.16415123497E+04  0.16415123497E+04  0.00000000000E+00 0. -1.
        -24    2    1    2    0    0  0.70468874510E+02  0.34722213201E+02 -0.13072131987E+04  0.13121015636E+04  0.81441217184E+02 0.  0.
         25    2    1    2    0    0 -0.47498744826E+02 -0.10559417501E+03 -0.28184100144E+03  0.32937597014E+03  0.12509164263E+03 0.  0.
         24    2    1    2    0    0 -0.22970129683E+02  0.70871961807E+02  0.91113749606E+02  0.14360671515E+03  0.82284332899E+02 0.  0.
        -13    1    5    5    0    0 -0.66108295973E+01  0.87047800715E+02  0.78323256126E+02  0.11728407875E+03  0.00000000000E+00 0.  1.
         14    1    5    5    0    0 -0.16359300086E+02 -0.16175838908E+02  0.12790493479E+02  0.26322636402E+02  0.00000000000E+00 0. -1.
         11    1    3    3    0    0  0.70272873770E+02  0.56427451668E+02 -0.96442804773E+03  0.96862985362E+03  0.00000000000E+00 0. -1.
        -12    1    3    3    0    0  0.19600073929E+00 -0.21705238467E+02 -0.34278515100E+03  0.34347170996E+03  0.00000000000E+00 0.  1.
          5    1    4    4  501    0 -0.49350961153E+02 -0.11116602556E+03 -0.29232917377E+03  0.31664999738E+03  0.41800000000E+01 0.  1.
         -5    1    4    4    0  501  0.18522163266E+01  0.55718505528E+01  0.10488172326E+02  0.12725972758E+02  0.41800000000E+01 0.  1.
</event>
<event>
11    1  0.8864208E-009  0.1939423E+03  0.7561462E-02  0.1058892E+00
         22   -1    0    0    0    0  0.00000000000E+00  0.00000000000E+00  0.29792958952E+03  0.29792958952E+03  0.00000000000E+00 0. -1.
         22   -1    0    0    0    0 -0.00000000000E+00 -0.00000000000E+00 -0.30266545522E+03  0.30266545522E+03  0.00000000000E+00 0.  1.
        -24    2    1    2    0    0 -0.29220077136E+02 -0.63999754854E+02 -0.35119236767E+02  0.11262547504E+03  0.80630982300E+02 0.  0.
         25    2    1    2    0    0  0.56203120130E+02 -0.90551244102E+02 -0.15930005073E+03  0.22887149727E+03  0.12508931841E+03 0.  0.
         24    2    1    2    0    0 -0.26983042995E+02  0.15455099896E+03  0.18968342179E+03  0.25909807244E+03  0.80857372905E+02 0.  0.
        -11    1    5    5    0    0 -0.12774911587E+01 -0.86842404250E+01  0.21944843602E+02  0.23635231671E+02  0.00000000000E+00 0.  1.
         12    1    5    5    0    0 -0.25705551836E+02  0.16323523938E+03  0.16773857819E+03  0.23546284077E+03  0.00000000000E+00 0. -1.
         11    1    3    3    0    0 -0.19051211172E+02 -0.77631798680E+02 -0.46201132814E+02  0.92326537283E+02  0.00000000000E+00 0. -1.
        -12    1    3    3    0    0 -0.10168865963E+02  0.13632043826E+02  0.11081896047E+02  0.20298937752E+02  0.00000000000E+00 0.  1.
          5    1    4    4  501    0 -0.18410798715E+02 -0.83393769448E+02 -0.10887090359E+03  0.13843346539E+03  0.41800000000E+01 0. -1.
         -5    1    4    4    0  501  0.74613918846E+02 -0.71574746546E+01 -0.50429147139E+02  0.90438031879E+02  0.41800000000E+01 0. -1.
</event>
<event>
11    1  0.8864208E-009  0.1470016E+03  0.7561462E-02  0.1099983E+00
         22   -1    0    0    0    0  0.00000000000E+00  0.00000000000E+00  0.28792939816E+03  0.28792939816E+03  0.00000000000E+00 0. -1.
         22   -1    0    0    0    0 -0.00000000000E+00 -0.00000000000E+00 -0.17230321310E+04  0.17230321310E+04  0.00000000000E+00 0.  1.
        -24    2    1    2    0    0  0.14244689388E+02 -0.76633785616E+02 -0.16751210304E+04  0.16788198308E+04  0.79560729564E+02 0.  0.
         25    2    1    2    0    0 -0.13837981003E+02  0.21413922445E+02  0.10491986272E+03  0.16524512774E+03  0.12509088238E+03 0.  0.
         24    2    1    2    0    0 -0.40670838521E+00  0.55219863170E+02  0.13509843483E+03  0.16689657058E+03  0.80953563705E+02 0.  0.
        -13    1    5    5    0    0  0.15055565312E+02  0.26229706668E+01 -0.52991273132E+01  0.16175004553E+02  0.00000000000E+00 0.  1.
         14    1    5    5    0    0 -0.15462273698E+02  0.52596892503E+02  0.14039756215E+03  0.15072156603E+03  0.00000000000E+00 0. -1.
         11    1    3    3    0    0 -0.31422198202E+02 -0.18085750196E+02 -0.65267536976E+03  0.65368156406E+03  0.00000000000E+00 0. -1.
        -12    1    3    3    0    0  0.45666887591E+02 -0.58548035420E+02 -0.10224456606E+04  0.10251382668E+04  0.00000000000E+00 0.  1.
          5    1    4    4  501    0 -0.15309818340E+02  0.71282664846E+02  0.83108498514E+02  0.11063500247E+03  0.41800000000E+01 0.  1.
         -5    1    4    4    0  501  0.14718373368E+01 -0.49868742401E+02  0.21811364210E+02  0.54610125274E+02  0.41800000000E+01 0.  1.
</event>
<event>
11    1  0.8864208E-009  0.1608751E+03  0.7561462E-02  0.1086257E+00
         22   -1    0    0    0    0  0.00000000000E+00  0.00000000000E+00  0.45122349910E+03  0.45122349910E+03  0.00000000000E+00 0. -1.
         22   -1    0    0    0    0 -0.00000000000E+00 -0.00000000000E+00 -0.41923957503E+03  0.41923957503E+03  0.00000000000E+00 0. -1.
        -24    2    1    2    0    0 -0.11646672411E+03  0.17542135069E+02 -0.29927577135E+03  0.33115843173E+03  0.78915747865E+02 0.  0.
         25    2    1    2    0    0  0.20607022518E+02 -0.77924847217E+02 -0.29870367679E+02  0.15177623340E+03  0.12508738933E+03 0.  0.
         24    2    1    2    0    0  0.95859701588E+02  0.60382712148E+02  0.36113006310E+03  0.38752840901E+03  0.83235755539E+02 0.  0.
        -13    1    5    5    0    0  0.36975602941E+02  0.27131639509E+02  0.45019841046E+02  0.64265909806E+02  0.00000000000E+00 0.  1.
         14    1    5    5    0    0  0.58884098647E+02  0.33251072640E+02  0.31611022205E+03  0.32326249920E+03  0.00000000000E+00 0. -1.
         13    1    3    3    0    0 -0.86732412985E+02  0.43526866738E+02 -0.24891188792E+03  0.26715955445E+03  0.00000000000E+00 0. -1.
        -14    1    3    3    0    0 -0.29734311121E+02 -0.25984731670E+02 -0.50363883431E+02  0.63998877272E+02  0.00000000000E+00 0.  1.
          5    1    4    4  501    0  0.22064427915E+02 -0.61146855727E+02  0.42220693342E+02  0.77626260317E+02  0.41800000000E+01 0. -1.
         -5    1    4    4    0  501 -0.14574053968E+01 -0.16777991490E+02 -0.72091061021E+02  0.74149973082E+02  0.41800000000E+01 0. -1.
</event>
<event>
11    1  0.8864208E-009  0.1858328E+03  0.7561462E-02  0.1065020E+00
         22   -1    0    0    0    0  0.00000000000E+00  0.00000000000E+00  0.22052593201E+04  0.22052593201E+04  0.00000000000E+00 0.  1.
         22   -1    0    0    0    0 -0.00000000000E+00 -0.00000000000E+00 -0.32053476197E+03  0.32053476197E+03  0.00000000000E+00 0. -1.
         24    2    1    2    0    0 -0.41180122815E+02  0.78970669163E+02 -0.26407810733E+03  0.29971292423E+03  0.11026523060E+03 0.  0.
         25    2    1    2    0    0  0.15778274630E+03 -0.54614764127E+01  0.25178569501E+03  0.32244227614E+03  0.12509101679E+03 0.  0.
        -24    2    1    2    0    0 -0.11660262348E+03 -0.73509192750E+02  0.18970169705E+04  0.19036388817E+04  0.78535549259E+02 0.  0.
        -13    1    3    3    0    0 -0.12968525274E+02 -0.15677079109E+02 -0.29836028307E+01  0.20563446770E+02  0.00000000000E+00 0.  1.
         14    1    3    3    0    0 -0.28211597541E+02  0.94647748272E+02 -0.26109450450E+03  0.27914947746E+03  0.00000000000E+00 0. -1.
         13    1    5    5    0    0 -0.34903381917E+02 -0.64377763556E+02  0.10859502169E+04  0.10884165637E+04  0.00000000000E+00 0. -1.
        -14    1    5    5    0    0 -0.81699241563E+02 -0.91314291935E+01  0.81106675356E+03  0.81522231802E+03  0.00000000000E+00 0.  1.
          5    1    4    4  501    0  0.16294580807E+02 -0.24002989958E+02 -0.39327450730E+01  0.29573565466E+02  0.41800000000E+01 0.  1.
         -5    1    4    4    0  501  0.14148816549E+03  0.18541513545E+02  0.25571844008E+03  0.29286871068E+03  0.41800000000E+01 0.  1.
</event>
<event>
11    1  0.8864208E-009  0.2142683E+03  0.7561462E-02  0.1044869E+00
         22   -1    0    0    0    0  0.00000000000E+00  0.00000000000E+00  0.27393415329E+03  0.27393415329E+03  0.00000000000E+00 0. -1.
         22   -1    0    0    0    0 -0.00000000000E+00 -0.00000000000E+00 -0.13563028157E+04  0.13563028157E+04  0.00000000000E+00 0.  1.
        -24    2    1    2    0    0 -0.99359412636E+01  0.74620922047E+02 -0.11131677271E+04  0.11184331693E+04  0.77995900717E+02 0.  0.
         25    2    1    2    0    0  0.13992241425E+03 -0.17377221336E+03 -0.11036575295E+03  0.27857660054E+03  0.12509699756E+03 0.  0.
         24    2    1    2    0    0 -0.12998647299E+03  0.99151291314E+02  0.14116481772E+03  0.23322719910E+03  0.87977036279E+02 0.  0.
        -11    1    5    5    0    0 -0.36966414510E+02  0.99358829936E+01 -0.47128557932E+01  0.38567454962E+02  0.00000000000E+00 0.  1.
         12    1    5    5    0    0 -0.93020058478E+02  0.89215408320E+02  0.14587767351E+03  0.19465974414E+03  0.00000000000E+00 0. -1.
         11    1    3    3    0    0  0.20535674462E+02 -0.59756406152E+01 -0.17063225481E+03  0.17196740560E+03  0.00000000000E+00 0. -1.
        -12    1    3    3    0    0 -0.30471615725E+02  0.80596562663E+02 -0.94253547234E+03  0.94646576372E+03  0.00000000000E+00 0.  1.
          5    1    4    4  501    0  0.14081724215E+03 -0.15040811070E+03 -0.13340025350E+03  0.24548970546E+03  0.41800000000E+01 0. -1.
         -5    1    4    4    0  501 -0.89482789767E+00 -0.23364102660E+02  0.23034500560E+02  0.33086895081E+02  0.41800000000E+01 0. -1.
</event>
<event>
11    1  0.8864208E-009  0.1430148E+03  0.7561462E-02  0.1104238E+00
         22   -1    0    0    0    0  0.00000000000E+00  0.00000000000E+00  0.74390895084E+03  0.74390895084E+03  0.00000000000E+00 0. -1.
         22   -1    0    0    0    0 -0.00000000000E+00 -0.00000000000E+00 -0.19139260712E+03  0.19139260712E+03  0.00000000000E+00 0. -1.
        -24    2    1    2    0    0  0.70288953523E+02 -0.88232973894E+01 -0.13163786075E+03  0.16974483221E+03  0.80413892552E+02 0.  0.
         25    2    1    2    0    0 -0.61014578195E+02 -0.18063613786E+02  0.93271173050E+02  0.16851212083E+03  0.12509096790E+03 0.  0.
         24    2    1    2    0    0 -0.92743753289E+01  0.26886911175E+02  0.59088303142E+03  0.59704460492E+03  0.80688186351E+02 0.  0.
        -13    1    5    5    0    0 -0.25585584375E+02 -0.21892472317E+02  0.20463789045E+03  0.20738989532E+03  0.00000000000E+00 0.  1.
         14    1    5    5    0    0  0.16311209046E+02  0.48779383492E+02  0.38624514097E+03  0.38965470960E+03  0.00000000000E+00 0. -1.
         11    1    3    3    0    0  0.56430179669E+02  0.31362113419E+02 -0.75773424051E+02  0.99546768546E+02  0.00000000000E+00 0. -1.
        -12    1    3    3    0    0  0.13858773854E+02 -0.40185410809E+02 -0.55864436699E+02  0.70198063665E+02  0.00000000000E+00 0.  1.
          5    1    4    4  501    0 -0.81362921411E+01 -0.65766568288E+02  0.61180653939E+02  0.90288346815E+02  0.41800000000E+01 0. -1.
         -5    1    4    4    0  501 -0.52878286053E+02  0.47702954503E+02  0.32090519111E+02  0.78223774014E+02  0.41800000000E+01 0. -1.
</event>
<event>
11    1  0.8864208E-009  0.1435930E+03  0.7561462E-02  0.1103611E+00
         22   -1    0    0    0    0  0.00000000000E+00  0.00000000000E+00  0.89655167717E+03  0.89655167717E+03  0.00000000000E+00 0. -1.
         22   -1    0    0    0    0 -0.00000000000E+00 -0.00000000000E+00 -0.23500939923E+03  0.23500939923E+03  0.00000000000E+00 0. -1.
         24    2    1    2    0    0 -0.27258018445E+01  0.59656869087E+01 -0.18820953858E+03  0.20451891191E+03  0.79762995791E+02 0.  0.
         25    2    1    2    0    0 -0.18448351522E+02 -0.72722343138E+02  0.11764167644E+03  0.18739197188E+03  0.12508919308E+03 0.  0.
        -24    2    1    2    0    0  0.21174153367E+02  0.66756656230E+02  0.73211014008E+03  0.73965019261E+03  0.78691513498E+02 0.  0.
        -13    1    3    3    0    0 -0.19402166189E+02  0.30310709118E+02 -0.41768438636E+02  0.55134250754E+02  0.00000000000E+00 0.  1.
         14    1    3    3    0    0  0.16676364344E+02 -0.24345022209E+02 -0.14644109995E+03  0.14938466115E+03  0.00000000000E+00 0. -1.
         13    1    5    5    0    0  0.48746249469E+02  0.56110398260E+02  0.57500561948E+03  0.57978964812E+03  0.00000000000E+00 0. -1.
        -14    1    5    5    0    0 -0.27572096102E+02  0.10646257970E+02  0.15710452060E+03  0.15986054449E+03  0.00000000000E+00 0.  1.
          5    1    4    4  501    0  0.38783401729E+02 -0.76037691806E+02  0.51557761262E+02  0.99807604776E+02  0.41800000000E+01 0.  1.
         -5    1    4    4    0  501 -0.57231753251E+02  0.33153486674E+01  0.66083915175E+02  0.87584367109E+02  0.41800000000E+01 0.  1.
</event>
<event>
11    1  0.8864208E-009  0.1315495E+03  0.7561462E-02  0.1117380E+00
         22   -1    0    0    0    0  0.00000000000E+00  0.00000000000E+00  0.37208114861E+03  0.37208114861E+03  0.00000000000E+00 0.  1.
         22   -1    0    0    0    0 -0.00000000000E+00 -0.00000000000E+00 -0.16994685508E+04  0.16994685508E+04  0.00000000000E+00 0.  1.
        -24    2    1    2    0    0 -0.15301924770E+02  0.53620720604E+01 -0.16211998751E+04  0.16233430368E+04  0.81796571577E+02 0.  0.
         25    2    1    2    0    0  0.17621915237E+02 -0.45461242155E+02 -0.70768992449E+01  0.13444584389E+03  0.12509334915E+03 0.  0.
         24    2    1    2    0    0 -0.23199904670E+01  0.40099170094E+02  0.30088937216E+03  0.31376081880E+03  0.79360640990E+02 0.  0.
        -11    1    5    5    0    0 -0.29712554265E+02  0.30856179284E+02  0.26102770269E+03  0.26451918882E+03  0.00000000000E+00 0.  1.
         12    1    5    5    0    0  0.27392563798E+02  0.92429908106E+01  0.39861669467E+02  0.49241629982E+02  0.00000000000E+00 0. -1.
         11    1    3    3    0    0  0.28537641700E+02  0.18991883940E+02 -0.48139675501E+03  0.48261571087E+03  0.00000000000E+00 0. -1.
        -12    1    3    3    0    0 -0.43839566469E+02 -0.13629811879E+02 -0.11398031201E+04  0.11407273259E+04  0.00000000000E+00 0.  1.
          5    1    4    4  501    0 -0.23987589861E+02 -0.72056186631E+02 -0.27452286724E+02  0.80861603655E+02  0.41800000000E+01 0. -1.
         -5    1    4    4    0  501  0.41609505098E+02  0.26594944477E+02  0.20375387480E+02  0.53584240231E+02  0.41800000000E+01 0. -1.
</event>
<event>
11    1  0.8864208E-009  0.1861116E+03  0.7561462E-02  0.1064804E+00
         22   -1    0    0    0    0  0.00000000000E+00  0.00000000000E+00  0.17685547090E+04  0.17685547090E+04  0.00000000000E+00 0.  1.
         22   -1    0    0    0    0 -0.00000000000E+00 -0.00000000000E+00 -0.56647459517E+03  0.56647459517E+03  0.00000000000E+00 0. -1.
        -24    2    1    2    0    0 -0.40990456325E+02 -0.76099507718E+02 -0.51906939276E+03  0.53213597851E+03  0.79147410190E+02 0.  0.
         25    2    1    2    0    0  0.15808282148E+03  0.28958670406E+01  0.24134485707E+03  0.31447347732E+03  0.12509062078E+03 0.  0.
         24    2    1    2    0    0 -0.11709236516E+03  0.73203640678E+02  0.14798046495E+04  0.14884198484E+04  0.80637765607E+02 0.  0.
        -11    1    5    5    0    0 -0.64501081691E+01 -0.62685727102E+00  0.45169055488E+03  0.45173704100E+03  0.00000000000E+00 0.  1.
         12    1    5    5    0    0 -0.11064225699E+03  0.73830497949E+02  0.10281140946E+04  0.10366828074E+04  0.00000000000E+00 0. -1.
         11    1    3    3    0    0 -0.45381593129E+02 -0.46541189868E+02 -0.47149560841E+03  0.47595554425E+03  0.00000000000E+00 0. -1.
        -12    1    3    3    0    0  0.43911368039E+01 -0.29558317850E+02 -0.47573784346E+02  0.56180434260E+02  0.00000000000E+00 0.  1.
          5    1    4    4  501    0 -0.10469454001E+01  0.24818026851E+02  0.90990007939E+02  0.94412311147E+02  0.41800000000E+01 0.  1.
         -5    1    4    4    0  501  0.15912976688E+03 -0.21922159810E+02  0.15035484914E+03  0.22006116617E+03  0.41800000000E+01 0.  1.
</event>
<event>
11    1  0.8864208E-009  0.1563844E+03  0.7561462E-02  0.1090528E+00
         22   -1    0    0    0    0  0.00000000000E+00  0.00000000000E+00  0.57837089129E+03  0.57837089129E+03  0.00000000000E+00 0.  1.
         22   -1    0    0    0    0 -0.00000000000E+00 -0.00000000000E+00 -0.10167665491E+04  0.10167665491E+04  0.00000000000E+00 0. -1.
        -24    2    1    2    0    0  0.85909974233E+02  0.36250035715E+02 -0.82774100671E+03  0.83706976427E+03  0.82680271565E+02 0.  0.
         25    2    1    2    0    0 -0.68635349199E+02 -0.87582423201E+02 -0.14103381236E+03  0.21890482973E+03  0.12508915317E+03 0.  0.
         24    2    1    2    0    0 -0.17274625034E+02  0.51332387487E+02  0.53037916128E+03  0.53916284636E+03  0.80380927507E+02 0.  0.
        -13    1    5    5    0    0 -0.27662528881E+02  0.52704187506E+02  0.52293003520E+03  0.52630672483E+03  0.00000000000E+00 0.  1.
         14    1    5    5    0    0  0.10387903847E+02 -0.13718000196E+01  0.74491260758E+01  0.12856121535E+02  0.00000000000E+00 0. -1.
         13    1    3    3    0    0  0.19231868753E+02  0.65568096998E+01 -0.53433038402E+03  0.53471657522E+03  0.00000000000E+00 0. -1.
        -14    1    3    3    0    0  0.66678105480E+02  0.29693226015E+02 -0.29341062269E+03  0.30235318905E+03  0.00000000000E+00 0.  1.
          5    1    4    4  501    0 -0.10196853546E+03 -0.56304810903E+02 -0.12337306222E+03  0.16972389000E+03  0.41800000000E+01 0. -1.
         -5    1    4    4    0  501  0.33333186266E+02 -0.31277612298E+02 -0.17660750139E+02  0.49180939735E+02  0.41800000000E+01 0. -1.
</event>
<event>
11    1  0.8864208E-009  0.1276392E+03  0.7561462E-02  0.1122204E+00
         22   -1    0    0    0    0  0.00000000000E+00  0.00000000000E+00  0.83619645493E+02  0.83619645493E+02  0.00000000000E+00 0.  1.
         22   -1    0    0    0    0 -0.00000000000E+00 -0.00000000000E+00 -0.25082927927E+04  0.25082927927E+04  0.00000000000E+00 0.  1.
         24    2    1    2    0    0 -0.41546565706E+02 -0.89159603499E+01 -0.22444687089E+04  0.22462082020E+04  0.77497677488E+02 0.  0.
         25    2    1    2    0    0  0.49178953425E+02 -0.12658833917E+02 -0.18873947478E+03  0.23205052742E+03  0.12508414128E+03 0.  0.
        -24    2    1    2    0    0 -0.76323877189E+01  0.21574794267E+02  0.85350364546E+01  0.11365370879E+03  0.11099816929E+03 0.  0.
        -11    1    3    3    0    0 -0.52795217408E+02 -0.31674518776E+02 -0.17576781622E+04  0.17587561321E+04  0.00000000000E+00 0.  1.
         12    1    3    3    0    0  0.11248651703E+02  0.22758558426E+02 -0.48679054666E+03  0.48745206991E+03  0.00000000000E+00 0. -1.
         13    1    5    5    0    0  0.49202222728E+02 -0.34975410941E+01 -0.64674121810E+01  0.49748557119E+02  0.00000000000E+00 0. -1.
        -14    1    5    5    0    0 -0.56834610447E+02  0.25072335361E+02  0.15002448636E+02  0.63905151672E+02  0.00000000000E+00 0.  1.
          5    1    4    4  501    0  0.63647569138E+02  0.40613036662E+02 -0.80313347537E+02  0.11030928337E+03  0.41800000000E+01 0. -1.
         -5    1    4    4    0  501 -0.14468615713E+02 -0.53271870579E+02 -0.10842612724E+03  0.12174124406E+03  0.41800000000E+01 0. -1.
</event>
<event>
11    1  0.8864208E-009  0.1671371E+03  0.7561462E-02  0.1080550E+00
         22   -1    0    0    0    0  0.00000000000E+00  0.00000000000E+00  0.25770623614E+03  0.25770623614E+03  0.00000000000E+00 0.  1.
         22   -1    0    0    0    0 -0.00000000000E+00 -0.00000000000E+00 -0.19217229300E+03  0.19217229300E+03  0.00000000000E+00 0. -1.
        -24    2    1    2    0    0 -0.12685829037E+03  0.12455963237E+02 -0.67262239757E+02  0.16561036696E+03  0.81574554204E+02 0.  0.
         25    2    1    2    0    0  0.75493724932E+02 -0.18888180915E+02  0.45230610058E+02  0.15410572687E+03  0.12508677422E+03 0.  0.
         24    2    1    2    0    0  0.51364565435E+02  0.64322176783E+01  0.87565572836E+02  0.13016243531E+03  0.81208607999E+02 0.  0.
        -13    1    5    5    0    0  0.45988699219E+02  0.58263885230E+01  0.10346108970E+03  0.11337153233E+03  0.00000000000E+00 0.  1.
         14    1    5    5    0    0  0.53758662157E+01  0.60582915532E+00 -0.15895516868E+02  0.16790902985E+02  0.00000000000E+00 0. -1.
         11    1    3    3    0    0  0.87045105596E+00  0.23081414424E+02 -0.85021635557E+01  0.24612926726E+02  0.00000000000E+00 0. -1.
        -12    1    3    3    0    0 -0.12772874142E+03 -0.10625451187E+02 -0.58760076201E+02  0.14099744024E+03  0.00000000000E+00 0.  1.
          5    1    4    4  501    0  0.48320895216E+01  0.29647655152E+02 -0.28004319912E+02  0.41280102699E+02  0.41800000000E+01 0. -1.
         -5    1    4    4    0  501  0.70661635410E+02 -0.48535836067E+02  0.73234929970E+02  0.11282562417E+03  0.41800000000E+01 0. -1.
</event>
<event>
11    1  0.8864208E-009  0.1725794E+03  0.7561462E-02  0.1075808E+00
         22   -1    0    0    0    0  0.00000000000E+00  0.00000000000E+00  0.16306705730E+04  0.16306705730E+04  0.00000000000E+00 0. -1.
         22   -1    0    0    0    0 -0.00000000000E+00 -0.00000000000E+00 -0.14837209979E+03  0.14837209979E+03  0.00000000000E+00 0.  1.
         24    2    1    2    0    0  0.51520161910E+02  0.11515670288E+03 -0.92003668586E+02  0.17557933673E+03  0.80299658474E+02 0.  0.
         25    2    1    2    0    0 -0.13550316159E+02 -0.51698764598E+02  0.36847302370E+03  0.39278030100E+03  0.12509045659E+03 0.  0.
        -24    2    1    2    0    0 -0.37969845752E+02 -0.63457938283E+02  0.12058291181E+04  0.12106830350E+04  0.79126040110E+02 0.  0.
        -13    1    3    3    0    0  0.41133176461E+02  0.66301240171E+02 -0.98007066203E+02  0.12527241388E+03  0.00000000000E+00 0.  1.
         14    1    3    3    0    0  0.10386985449E+02  0.48855462710E+02  0.60033976174E+01  0.50306922846E+02  0.00000000000E+00 0. -1.
         11    1    5    5    0    0 -0.34890310814E+02 -0.47433510742E+02  0.11680161623E+04  0.11694994772E+04  0.00000000000E+00 0. -1.
        -12    1    5    5    0    0 -0.30795349377E+01 -0.16024427541E+02  0.37812955733E+02  0.41183557820E+02  0.00000000000E+00 0.  1.
          5    1    4    4  501    0 -0.65043706718E+01 -0.88339877004E+02  0.18065186901E+03  0.20124316357E+03  0.41800000000E+01 0. -1.
         -5    1    4    4    0  501 -0.70459454868E+01  0.36641112406E+02  0.18782115469E+03  0.19153713743E+03  0.41800000000E+01 0. -1.
</event>
<event>
11    1  0.8864208E-009  0.1342045E+03  0.7561462E-02  0.1114208E+00
         22   -1    0    0    0    0  0.00000000000E+00  0.00000000000E+00  0.73082691755E+03  0.73082691755E+03  0.00000000000E+00 0.  1.
         22   -1    0    0    0    0 -0.00000000000E+00 -0.00000000000E+00 -0.70725458256E+03  0.70725458256E+03  0.00000000000E+00 0.  1.
         24    2    1    2    0    0  0.19460469104E+02 -0.45471453120E+02 -0.65988950020E+03  0.66578489988E+03  0.73273579929E+02 0.  0.
         25    2    1    2    0    0  0.69455535941E+01  0.25120690311E+02  0.56578337862E+02  0.13974209296E+03  0.12508978549E+03 0.  0.
        -24    2    1    2    0    0 -0.26406022698E+02  0.20350762809E+02  0.62688349733E+03  0.63255450728E+03  0.77658572411E+02 0.  0.
        -11    1    3    3    0    0  0.12494366273E+02 -0.10241680198E+02 -0.54874279790E+03  0.54898056382E+03  0.00000000000E+00 0.  1.
         12    1    3    3    0    0  0.69661028318E+01 -0.35229772923E+02 -0.11114670230E+03  0.11680433605E+03  0.00000000000E+00 0. -1.
         11    1    5    5    0    0 -0.38617888944E+02  0.13490808297E+02  0.15035813044E+03  0.15582333152E+03  0.00000000000E+00 0. -1.
        -12    1    5    5    0    0  0.12211866245E+02  0.68599545119E+01  0.47652536689E+03  0.47673117576E+03  0.00000000000E+00 0.  1.
          5    1    4    4  501    0  0.46450384261E+02  0.57301722440E+02  0.18981995376E+02  0.76281807405E+02  0.41800000000E+01 0. -1.
         -5    1    4    4    0  501 -0.39504830667E+02 -0.32181032129E+02  0.37596342487E+02  0.63460285560E+02  0.41800000000E+01 0. -1.
</event>
<event>
11    1  0.8864208E-009  0.1588392E+03  0.7561462E-02  0.1088174E+00
         22   -1    0    0    0    0  0.00000000000E+00  0.00000000000E+00  0.10116532955E+03  0.10116532955E+03  0.00000000000E+00 0. -1.
         22   -1    0    0    0    0 -0.00000000000E+00 -0.00000000000E+00 -0.74743142302E+03  0.74743142302E+03  0.00000000000E+00 0. -1.
        -24    2    1    2    0    0  0.72185002778E+02 -0.74974001159E+02 -0.43970715199E+03  0.45897933373E+03  0.80547338929E+02 0.  0.
         25    2    1    2    0    0 -0.75211023589E+02  0.43175936599E+02 -0.25032800688E+03  0.29297162733E+03  0.12508958319E+03 0.  0.
         24    2    1    2    0    0  0.30260208106E+01  0.31798064559E+02  0.43769065403E+02  0.96645791507E+02  0.80027521629E+02 0.  0.
        -11    1    5    5    0    0 -0.18761917276E+02 -0.21486588191E+01 -0.15855693453E+02  0.24658249927E+02  0.00000000000E+00 0.  1.
         12    1    5    5    0    0  0.21787938086E+02  0.33946723378E+02  0.59624758856E+02  0.71987541580E+02  0.00000000000E+00 0. -1.
         11    1    3    3    0    0 -0.14178212398E+01 -0.26752774168E+02 -0.23006400198E+03  0.23161857902E+03  0.00000000000E+00 0. -1.
        -12    1    3    3    0    0  0.73602824018E+02 -0.48221226990E+02 -0.20964315001E+03  0.22736075471E+03  0.00000000000E+00 0.  1.
          5    1    4    4  501    0 -0.38560447545E+02 -0.14202488297E+02 -0.20937265115E+03  0.21340805570E+03  0.41800000000E+01 0. -1.
         -5    1    4    4    0  501 -0.36650576044E+02  0.57378424897E+02 -0.40955355730E+02  0.79563571632E+02  0.41800000000E+01 0. -1.
</event>
<event>
11    1  0.8864208E-009  0.1675596E+03  0.7561462E-02  0.1080175E+00
         22   -1    0    0    0    0  0.00000000000E+00  0.00000000000E+00  0.93259945937E+03  0.93259945937E+03  0.00000000000E+00 0. -1.
         22   -1    0    0    0    0 -0.00000000000E+00 -0.00000000000E+00 -0.12378047930E+03  0.12378047930E+03  0.00000000000E+00 0. -1.
        -24    2    1    2    0    0 -0.89858035427E+02 -0.71251467857E+02 -0.40746741167E+02  0.14515858184E+03  0.79116867765E+02 0.  0.
         25    2    1    2    0    0  0.52084304662E+02  0.88362436299E+02  0.21404915317E+03  0.26829528761E+03  0.12507848112E+03 0.  0.
         24    2    1    2    0    0  0.37773730765E+02 -0.17110968441E+02  0.63551656807E+03  0.64292606921E+03  0.88051020460E+02 0.  0.
        -11    1    5    5    0    0  0.53125059802E+02  0.51040590543E+01  0.21433053768E+03  0.22087531048E+03  0.00000000000E+00 0.  1.
         12    1    5    5    0    0 -0.15351329037E+02 -0.22215027496E+02  0.42118603039E+03  0.42205075873E+03  0.00000000000E+00 0. -1.
         11    1    3    3    0    0 -0.94864682475E+02 -0.34271469698E+02 -0.37834074595E+02  0.10772770682E+03  0.00000000000E+00 0. -1.
        -12    1    3    3    0    0  0.50066470482E+01 -0.36979998159E+02 -0.29126665720E+01  0.37430875024E+02  0.00000000000E+00 0.  1.
          5    1    4    4  501    0  0.52658658883E+02  0.10013333074E+03  0.22486873535E+03  0.25175988325E+03  0.41800000000E+01 0.  1.
         -5    1    4    4    0  501 -0.57435422077E+00 -0.11770894437E+02 -0.10819582177E+02  0.16535404353E+02  0.41800000000E+01 0.  1.
</event>
<event>
11    1  0.8864208E-009  0.1267879E+03  0.7561462E-02  0.1123280E+00
         22   -1    0    0    0    0  0.00000000000E+00  0.00000000000E+00  0.11878347921E+04  0.11878347921E+04  0.00000000000E+00 0. -1.
         22   -1    0    0    0    0 -0.00000000000E+00 -0.00000000000E+00 -0.57789721816E+03  0.57789721816E+03  0.00000000000E+00 0.  1.
        -24    2    1    2    0    0 -0.12793783684E+02  0.16055328847E+02 -0.53722160445E+03  0.54397733920E+03  0.82962875950E+02 0.  0.
         25    2    1    2    0    0  0.27569938630E+01 -0.30813616301E+02  0.80503630434E+02  0.15193828994E+03  0.12508928600E+03 0.  0.
         24    2    1    2    0    0  0.10036789821E+02  0.14758287454E+02  0.10666555479E+04  0.10698163811E+04  0.80215255013E+02 0.  0.
        -13    1    5    5    0    0  0.10161944931E+02 -0.28730603528E+02  0.22715045481E+03  0.22918560562E+03  0.00000000000E+00 0.  1.
         14    1    5    5    0    0 -0.12515511016E+00  0.43488890983E+02  0.83950509312E+03  0.84063077548E+03  0.00000000000E+00 0. -1.
         11    1    3    3    0    0  0.20140582630E+02  0.68374928433E+01 -0.37697898073E+02  0.43284245358E+02  0.00000000000E+00 0. -1.
        -12    1    3    3    0    0 -0.32934366314E+02  0.92178360037E+01 -0.49952370638E+03  0.50069309384E+03  0.00000000000E+00 0.  1.
          5    1    4    4  501    0  0.20393061955E+02 -0.23311082325E+02  0.11120058341E+03  0.11550898530E+03  0.41800000000E+01 0. -1.
         -5    1    4    4    0  501 -0.17636068092E+02 -0.75025339760E+01 -0.30696952977E+02  0.36429304631E+02  0.41800000000E+01 0. -1.
</event>
<event>
11    1  0.8864208E-009  0.1304254E+03  0.7561462E-02  0.1118747E+00
         22   -1    0    0    0    0  0.00000000000E+00  0.00000000000E+00  0.72877383049E+03  0.72877383049E+03  0.00000000000E+00 0. -1.
         22   -1    0    0    0    0 -0.00000000000E+00 -0.00000000000E+00 -0.50644658199E+03  0.50644658199E+03  0.00000000000E+00 0. -1.
         24    2    1    2    0    0 -0.15876528996E+02  0.24316499795E+02 -0.36973119646E+03  0.38384606565E+03  0.98961043569E+02 0.  0.
         25    2    1    2    0    0  0.45169146762E+02 -0.77274725562E+02 -0.78990055976E+02  0.17291023163E+03  0.12508750629E+03 0.  0.
        -24    2    1    2    0    0 -0.29292617766E+02  0.52958225767E+02  0.67104850094E+03  0.67846411520E+03  0.79654465481E+02 0.  0.
        -13    1    3    3    0    0  0.37327877931E+02  0.38191983987E+01 -0.77513356575E+02  0.86117809974E+02  0.00000000000E+00 0.  1.
         14    1    3    3    0    0 -0.53204406927E+02  0.20497301397E+02 -0.29221783988E+03  0.29772825567E+03  0.00000000000E+00 0. -1.
         11    1    5    5    0    0 -0.52847288953E+02  0.16742372561E+02  0.43210143885E+03  0.43564296901E+03  0.00000000000E+00 0. -1.
        -12    1    5    5    0    0  0.23554671187E+02  0.36215853206E+02  0.23894706209E+03  0.24282114619E+03  0.00000000000E+00 0.  1.
          5    1    4    4  501    0  0.28907973345E+02 -0.85282336830E+02  0.16418112407E+01  0.90160500455E+02  0.41800000000E+01 0.  1.
         -5    1    4    4    0  501  0.16261173418E+02  0.80076112678E+01 -0.80631867217E+02  0.82749731178E+02  0.41800000000E+01 0.  1.
</event>
<event>
11    1  0.8864208E-009  0.3411327E+03  0.7561462E-02  0.9841443E-01
         22   -1    0    0    0    0  0.00000000000E+00  0.00000000000E+00  0.14910747047E+04  0.14910747047E+04  0.00000000000E+00 0. -1.
         22   -1    0    0    0    0 -0.00000000000E+00 -0.00000000000E+00 -0.52288362419E+03  0.52288362419E+03  0.00000000000E+00 0.  1.
        -24    2    1    2    0    0  0.25244938321E+03  0.18467561304E+03 -0.39127186972E+03  0.50739090519E+03  0.80722249100E+02 0.  0.
         25    2    1    2    0    0 -0.33391844490E+03 -0.15198070591E+03  0.47151588852E+03  0.61038822517E+03  0.12508752730E+03 0.  0.
         24    2    1    2    0    0  0.81469061700E+02 -0.32694907123E+02  0.88794706170E+03  0.89617919853E+03  0.83552417866E+02 0.  0.
        -13    1    5    5    0    0  0.42798349859E+02 -0.60047256675E+02  0.52407176506E+03  0.52923396218E+03  0.00000000000E+00 0.  1.
         14    1    5    5    0    0  0.38670711841E+02  0.27352349552E+02  0.36387529664E+03  0.36694523636E+03  0.00000000000E+00 0. -1.
         11    1    3    3    0    0  0.16711567287E+03  0.15385068513E+03 -0.23602314650E+03  0.32757381934E+03  0.00000000000E+00 0. -1.
        -12    1    3    3    0    0  0.85333710335E+02  0.30824927904E+02 -0.15524872322E+03  0.17981708584E+03  0.00000000000E+00 0.  1.
          5    1    4    4  501    0 -0.15972500867E+03 -0.67713520800E+01  0.21534993487E+03  0.26823682904E+03  0.41800000000E+01 0.  1.
         -5    1    4    4    0  501 -0.17419343623E+03 -0.14520935383E+03  0.25616595364E+03  0.34215139613E+03  0.41800000000E+01 0.  1.
</event>
<event>
11    1  0.8864208E-009  0.1644573E+03  0.7561462E-02  0.1082958E+00
         22   -1    0    0    0    0  0.00000000000E+00  0.00000000000E+00  0.59228058841E+03  0.59228058841E+03  0.00000000000E+00 0.  1.
         22   -1    0    0    0    0 -0.00000000000E+00 -0.00000000000E+00 -0.44005711832E+03  0.44005711832E+03  0.00000000000E+00 0.  1.
         24    2    1    2    0    0  0.67078931653E+02  0.83215189290E+02 -0.39175357288E+03  0.41387949974E+03  0.80006422489E+02 0.  0.
         25    2    1    2    0    0 -0.95532626086E+02 -0.56793741483E+02  0.18884940090E+03  0.25231371282E+03  0.12508437847E+03 0.  0.
        -24    2    1    2    0    0  0.28453694433E+02 -0.26421447807E+02  0.35512764207E+03  0.36614449417E+03  0.80239907901E+02 0.  0.
        -11    1    3    3    0    0  0.79500666823E+02  0.88036252834E+02 -0.32910763929E+03  0.34983221132E+03  0.00000000000E+00 0.  1.
         12    1    3    3    0    0 -0.12421735170E+02 -0.48210635440E+01 -0.62645933595E+02  0.64047288422E+02  0.00000000000E+00 0. -1.
         13    1    5    5    0    0 -0.26005131988E+02 -0.32946883554E+00  0.69581863229E+02  0.74283316632E+02  0.00000000000E+00 0. -1.
        -14    1    5    5    0    0  0.54458826421E+02 -0.26091978971E+02  0.28554577884E+03  0.29186117754E+03  0.00000000000E+00 0.  1.
          5    1    4    4  501    0 -0.11504290809E+03 -0.69612224730E+02  0.18428166175E+03  0.22816208228E+03  0.41800000000E+01 0.  1.
         -5    1    4    4    0  501  0.19510282004E+02  0.12818483247E+02  0.45677391452E+01  0.24151630535E+02  0.41800000000E+01 0.  1.
</event>
<event>
11    1  0.8864208E-009  0.1280217E+03  0.7561462E-02  0.1121724E+00
         22   -1    0    0    0    0  0.00000000000E+00  0.00000000000E+00  0.11176262077E+03  0.11176262077E+03  0.00000000000E+00 0. -1.
         22   -1    0    0    0    0 -0.00000000000E+00 -0.00000000000E+00 -0.57979163488E+03  0.57979163488E+03  0.00000000000E+00 0. -1.
        -24    2    1    2    0    0  0.37589716927E+01  0.24409703312E+02 -0.45187919660E+03  0.46086111846E+03  0.87110267524E+02 0.  0.
         25    2    1    2    0    0  0.46438698392E+01 -0.63848769528E+02 -0.16483075769E+02  0.14148278780E+03  0.12508979398E+03 0.  0.
         24    2    1    2    0    0 -0.84028415319E+01  0.39439066216E+02  0.33325826189E+00  0.89210349394E+02  0.79575924048E+02 0.  0.
        -13    1    5    5    0    0 -0.31468552746E+01  0.40178124823E+02 -0.35062559198E+02  0.53418793228E+02  0.00000000000E+00 0.  1.
         14    1    5    5    0    0 -0.52559862573E+01 -0.73905860693E+00  0.35395817460E+02  0.35791556166E+02  0.00000000000E+00 0. -1.
         13    1    3    3    0    0  0.12245288684E+02  0.19010687109E+02 -0.45007462139E+03  0.45064233949E+03  0.00000000000E+00 0. -1.
        -14    1    3    3    0    0 -0.84863169915E+01  0.53990162037E+01 -0.18045752077E+01  0.10218778974E+02  0.00000000000E+00 0.  1.
          5    1    4    4  501    0 -0.56437908882E+02 -0.50739061146E+02 -0.20555223518E+02  0.78738043530E+02  0.41800000000E+01 0. -1.
         -5    1    4    4    0  501  0.61081778721E+02 -0.13109708382E+02  0.40721477488E+01  0.62744744265E+02  0.41800000000E+01 0. -1.
</event>
<event>
11    1  0.8864208E-009  0.1401667E+03  0.7561462E-02  0.1107372E+00
         22   -1    0    0    0    0  0.00000000000E+00  0.00000000000E+00  0.29265501203E+03  0.29265501203E+03  0.00000000000E+00 0. -1.
         22   -1    0    0    0    0 -0.00000000000E+00 -0.00000000000E+00 -0.15128823632E+04  0.15128823632E+04  0.00000000000E+00 0. -1.
         24    2    1    2    0    0  0.53906480305E+02  0.13190212160E+02 -0.13371142037E+04  0.13409189655E+04  0.84317187893E+02 0.  0.
         25    2    1    2    0    0  0.61626141276E+00 -0.49350756584E+02 -0.13589153353E+03  0.19118174494E+03  0.12509226100E+03 0.  0.
        -24    2    1    2    0    0 -0.54522741718E+02  0.36160544424E+02  0.25277838598E+03  0.27343666479E+03  0.81181173260E+02 0.  0.
        -13    1    3    3    0    0  0.45829696939E+02 -0.30776442761E+02 -0.83264596389E+03  0.83447399704E+03  0.00000000000E+00 0.  1.
         14    1    3    3    0    0  0.80767833660E+01  0.43966654921E+02 -0.50446823977E+03  0.50644496849E+03  0.00000000000E+00 0. -1.
         13    1    5    5    0    0 -0.70836263247E+02  0.42955847706E+02  0.23090513898E+03  0.24531645736E+03  0.00000000000E+00 0. -1.
        -14    1    5    5    0    0  0.16313521529E+02 -0.67953032820E+01  0.21873247001E+02  0.28120207427E+02  0.00000000000E+00 0.  1.
          5    1    4    4  501    0 -0.59786644451E+02 -0.79189947223E+01 -0.52059137778E+02  0.79779568551E+02  0.41800000000E+01 0. -1.
         -5    1    4    4    0  501  0.60402905863E+02 -0.41431761862E+02 -0.83832395751E+02  0.11140217639E+03  0.41800000000E+01 0. -1.
</event>
<event>
11    1  0.8864208E-009  0.1573202E+03  0.7561462E-02  0.1089625E+00
         22   -1    0    0    0    0  0.00000000000E+00  0.00000000000E+00  0.36734347787E+03  0.36734347787E+03  0.00000000000E+00 0. -1.
         22   -1    0    0    0    0 -0.00000000000E+00 -0.00000000000E+00 -0.45116705277E+03  0.45116705277E+03  0.00000000000E+00 0.  1.
         24    2    1    2    0    0  0.19437938252E+02 -0.86317162740E+01 -0.31969885293E+03  0.33074446587E+03  0.82050016247E+02 0.  0.
         25    2    1    2    0    0 -0.10366545923E+03  0.48680923676E+02 -0.49783817542E+02  0.17675549252E+03  0.12509083052E+03 0.  0.
        -24    2    1    2    0    0  0.84227520980E+02 -0.40049207401E+02  0.28565909558E+03  0.31101057225E+03  0.80176323579E+02 0.  0.
        -13    1    3    3    0    0 -0.28904891413E+02 -0.99578897348E+00 -0.61671638427E+02  0.68116630345E+02  0.00000000000E+00 0.  1.
         14    1    3    3    0    0  0.48342829664E+02 -0.76359273006E+01 -0.25802721451E+03  0.26262783552E+03  0.00000000000E+00 0. -1.
         11    1    5    5    0    0  0.89108024917E+02 -0.71086302069E+01  0.21744475352E+03  0.23510209178E+03  0.00000000000E+00 0. -1.
        -12    1    5    5    0    0 -0.48805039374E+01 -0.32940577195E+02  0.68214342061E+02  0.75908480471E+02  0.00000000000E+00 0.  1.
          5    1    4    4  501    0  0.12904198869E+02  0.13102879953E+02  0.26786609589E+02  0.32759711000E+02  0.41800000000E+01 0. -1.
         -5    1    4    4    0  501 -0.11656965810E+03  0.35578043723E+02 -0.76570427131E+02  0.14399578152E+03  0.41800000000E+01 0. -1.
</event>
<event>
11    1  0.1040537E-008  0.1577666E+03  0.7561462E-02  0.1089197E+00
         22   -1    0    0    0    0  0.00000000000E+00  0.00000000000E+00  0.52064177387E+03  0.52064177387E+03  0.00000000000E+00 0.  1.
         22   -1    0    0    0    0 -0.00000000000E+00 -0.00000000000E+00 -0.60520015430E+03  0.60520015430E+03  0.00000000000E+00 0. -1.
         24    2    1    2    0    0 -0.70149012888E+02  0.18383350515E+02 -0.34656996335E+03  0.36289939043E+03  0.79538647832E+02 0.  0.
         25    2    1    2    0    0  0.72394627433E+02 -0.11383868671E+03 -0.20768647519E+03  0.27745567833E+03  0.12509097803E+03 0.  0.
        -24    2    1    2    0    0 -0.22456145443E+01  0.95455336199E+02  0.46969805811E+03  0.48548685940E+03  0.77229922087E+02 0.  0.
        -13    1    3    3    0    0 -0.36865374582E+02  0.19134500278E+02 -0.52464771027E+02  0.66915896040E+02  0.00000000000E+00 0.  1.
         14    1    3    3    0    0 -0.33283638306E+02 -0.75114976308E+00 -0.29410519232E+03  0.29598349439E+03  0.00000000000E+00 0. -1.
         13    1    5    5    0    0 -0.21597358752E+02  0.50275034264E+01  0.38014462230E+02  0.44009328948E+02  0.00000000000E+00 0. -1.
        -14    1    5    5    0    0  0.19351744208E+02  0.90427832773E+02  0.43168359588E+03  0.44147753045E+03  0.00000000000E+00 0.  1.
          5    1    4    4  501    0 -0.90099771867E+01 -0.87868762565E+02 -0.60269487335E+02  0.10701393660E+03  0.41800000000E+01 0.  1.
         -5    1    4    4    0  501  0.81404604619E+02 -0.25969924149E+02 -0.14741698786E+03  0.17044174173E+03  0.41800000000E+01 0.  1.
</event>
<event>
11    1  0.8864208E-009  0.1446426E+03  0.7561462E-02  0.1102482E+00
         22   -1    0    0    0    0  0.00000000000E+00  0.00000000000E+00  0.53763692068E+03  0.53763692068E+03  0.00000000000E+00 0.  1.
         22   -1    0    0    0    0 -0.00000000000E+00 -0.00000000000E+00 -0.30096422303E+03  0.30096422303E+03  0.00000000000E+00 0. -1.
        -24    2    1    2    0    0 -0.70350453225E+02  0.13041947639E+02 -0.25551951625E+03  0.27703588641E+03  0.79620226735E+02 0.  0.
         25    2    1    2    0    0  0.88511942675E+02 -0.41124975759E+02  0.19269215398E+03  0.24960602786E+03  0.12508906950E+03 0.  0.
         24    2    1    2    0    0 -0.18161489450E+02  0.28083028120E+02  0.29950005992E+03  0.31195922946E+03  0.80621205551E+02 0.  0.
        -11    1    5    5    0    0 -0.38496931181E+02 -0.10058387322E+01  0.23679787529E+03  0.23990885595E+03  0.00000000000E+00 0.  1.
         12    1    5    5    0    0  0.20335441731E+02  0.29088866852E+02  0.62702184634E+02  0.72050373511E+02  0.00000000000E+00 0. -1.
         13    1    3    3    0    0 -0.32628906222E+02 -0.29626003360E+02 -0.15872349962E+03  0.16472854922E+03  0.00000000000E+00 0. -1.
        -14    1    3    3    0    0 -0.37721547003E+02  0.42667950998E+02 -0.96796016632E+02  0.11230733719E+03  0.00000000000E+00 0.  1.
          5    1    4    4  501    0  0.77634457543E+02  0.29210636347E+02  0.13211179499E+03  0.15604925200E+03  0.41800000000E+01 0. -1.
         -5    1    4    4    0  501  0.10877485132E+02 -0.70335612107E+02  0.60580358991E+02  0.93556775856E+02  0.41800000000E+01 0. -1.
</event>
<event>
11    1  0.8864208E-009  0.1359907E+03  0.7561462E-02  0.1112120E+00
         22   -1    0    0    0    0  0.00000000000E+00  0.00000000000E+00  0.50231783423E+02  0.50231783423E+02  0.00000000000E+00 0.  1.
         22   -1    0    0    0    0 -0.00000000000E+00 -0.00000000000E+00 -0.13845719706E+04  0.13845719706E+04  0.00000000000E+00 0.  1.
        -24    2    1    2    0    0  0.20430853500E+02  0.11735215931E+01 -0.69411533598E+03  0.69903663607E+03  0.80232923397E+02 0.  0.
         25    2    1    2    0    0  0.16116616143E+02  0.39377606833E+02 -0.62170199690E+03  0.63558713155E+03  0.12508911864E+03 0.  0.
         24    2    1    2    0    0 -0.36547469642E+02 -0.40551128426E+02 -0.18522854306E+02  0.10017998642E+03  0.81931813069E+02 0.  0.
        -13    1    5    5    0    0 -0.21826720649E+02 -0.20479595888E+02  0.32026182493E+02  0.43834871360E+02  0.00000000000E+00 0.  1.
         14    1    5    5    0    0 -0.14720748993E+02 -0.20071532538E+02 -0.50549036800E+02  0.56345115057E+02  0.00000000000E+00 0. -1.
         11    1    3    3    0    0  0.12515946923E+02  0.33512545625E+02 -0.54842713239E+03  0.54959263021E+03  0.00000000000E+00 0. -1.
        -12    1    3    3    0    0  0.79149065765E+01 -0.32339024032E+02 -0.14568820359E+03  0.14944400586E+03  0.00000000000E+00 0.  1.
          5    1    4    4  501    0  0.37094331687E+02 -0.29911202444E+02 -0.12911338525E+03  0.13768953528E+03  0.41800000000E+01 0. -1.
         -5    1    4    4    0  501 -0.20977715545E+02  0.69288809277E+02 -0.49258861165E+03  0.49789759627E+03  0.41800000000E+01 0. -1.
</event>
<event>
11    1  0.8864208E-009  0.1390373E+03  0.7561462E-02  0.1108638E+00
         22   -1    0    0    0    0  0.00000000000E+00  0.00000000000E+00  0.12275865008E+03  0.12275865008E+03  0.00000000000E+00 0. -1.
         22   -1    0    0    0    0 -0.00000000000E+00 -0.00000000000E+00 -0.27661572631E+04  0.27661572631E+04  0.00000000000E+00 0.  1.
         24    2    1    2    0    0 -0.58808876894E+02 -0.16025088062E+02 -0.26141219071E+04  0.26160712323E+04  0.80498819525E+02 0.  0.
         25    2    1    2    0    0  0.61969348435E+02 -0.38676659715E+02 -0.79344646214E+02  0.16515734369E+03  0.12508113822E+03 0.  0.
        -24    2    1    2    0    0 -0.31604715412E+01  0.54701747777E+02  0.50067940286E+02  0.10768733718E+03  0.78022395215E+02 0.  0.
        -13    1    3    3    0    0 -0.38397437597E+02 -0.57950100132E+01 -0.24562464582E+04  0.24565534003E+04  0.00000000000E+00 0.  1.
         14    1    3    3    0    0 -0.20411439297E+02 -0.10230078048E+02 -0.15787544896E+03  0.15951783203E+03  0.00000000000E+00 0. -1.
         13    1    5    5    0    0 -0.21983998130E+02  0.29949374007E+02  0.63693203261E+02  0.73736594164E+02  0.00000000000E+00 0. -1.
        -14    1    5    5    0    0  0.18823526589E+02  0.24752373770E+02 -0.13625262975E+02  0.33950743020E+02  0.00000000000E+00 0.  1.
          5    1    4    4  501    0 -0.96224452672E+01 -0.32582325912E+02 -0.86309086689E+02  0.92848964776E+02  0.41800000000E+01 0. -1.
         -5    1    4    4    0  501  0.71591793703E+02 -0.60943338027E+01  0.69644404751E+01  0.72308378914E+02  0.41800000000E+01 0. -1.
</event>
<event>
11    1  0.8864208E-009  0.1477895E+03  0.7561462E-02  0.1099159E+00
         22   -1    0    0    0    0  0.00000000000E+00  0.00000000000E+00  0.24547999456E+04  0.24547999456E+04  0.00000000000E+00 0. -1.
         22   -1    0    0    0    0 -0.00000000000E+00 -0.00000000000E+00 -0.61727579828E+03  0.61727579828E+03  0.00000000000E+00 0.  1.
        -24    2    1    2    0    0 -0.10336290563E+02  0.37063783860E+02 -0.30816327151E+03  0.32097916330E+03  0.81132351038E+02 0.  0.
         25    2    1    2    0    0 -0.65461322448E+02 -0.15587618434E+02 -0.28467527623E+03  0.31814600583E+03  0.12509480222E+03 0.  0.
         24    2    1    2    0    0  0.75797613011E+02 -0.21476165426E+02  0.24303626951E+04  0.24329505748E+04  0.79869680275E+02 0.  0.
        -13    1    5    5    0    0  0.23103474583E+02 -0.88253112483E+01  0.15649228518E+03  0.15843450375E+03  0.00000000000E+00 0.  1.
         14    1    5    5    0    0  0.52694138428E+02 -0.12650854178E+02  0.22738704099E+04  0.22745160710E+04  0.00000000000E+00 0. -1.
         11    1    3    3    0    0 -0.26835078839E+02  0.22258210673E+02 -0.45204345033E+02  0.57087496079E+02  0.00000000000E+00 0. -1.
        -12    1    3    3    0    0  0.16498788276E+02  0.14805573187E+02 -0.26295892648E+03  0.26389166722E+03  0.00000000000E+00 0.  1.
          5    1    4    4  501    0 -0.69223871999E+02 -0.50651968123E+02 -0.26270802787E+03  0.27638839815E+03  0.41800000000E+01 0. -1.
         -5    1    4    4    0  501  0.37625495503E+01  0.35064349689E+02 -0.21967248368E+02  0.41757607679E+02  0.41800000000E+01 0. -1.
</event>
<event>
11    1  0.8864208E-009  0.1528568E+03  0.7561462E-02  0.1093995E+00
         22   -1    0    0    0    0  0.00000000000E+00  0.00000000000E+00  0.73709557936E+03  0.73709557936E+03  0.00000000000E+00 0.  1.
         22   -1    0    0    0    0 -0.00000000000E+00 -0.00000000000E+00 -0.41121817805E+03  0.41121817805E+03  0.00000000000E+00 0.  1.
        -24    2    1    2    0    0  0.88417251875E+02  0.11159270795E+02 -0.36774183784E+03  0.38751273780E+03  0.83605758800E+02 0.  0.
         25    2    1    2    0    0 -0.66241157360E+02  0.67514986193E+02  0.20018260284E+03  0.25429777204E+03  0.12509243820E+03 0.  0.
         24    2    1    2    0    0 -0.22176094514E+02 -0.78674256988E+02  0.49343663631E+03  0.50650324757E+03  0.79902489749E+02 0.  0.
        -11    1    5    5    0    0 -0.38316382066E+02 -0.42261207423E+02  0.41109814325E+03  0.41503715276E+03  0.00000000000E+00 0.  1.
         12    1    5    5    0    0  0.16140287552E+02 -0.36413049566E+02  0.82338493062E+02  0.91466094814E+02  0.00000000000E+00 0. -1.
         13    1    3    3    0    0  0.88396702344E+01 -0.22193437824E+02 -0.17128313624E+03  0.17294103392E+03  0.00000000000E+00 0. -1.
        -14    1    3    3    0    0  0.79577581640E+02  0.33352708620E+02 -0.19645870160E+03  0.21457170388E+03  0.00000000000E+00 0.  1.
          5    1    4    4  501    0 -0.10264267802E+03  0.40410473466E+02  0.12912825927E+03  0.16988262259E+03  0.41800000000E+01 0.  1.
         -5    1    4    4    0  501  0.36401520657E+02  0.27104512727E+02  0.71054343570E+02  0.84415149449E+02  0.41800000000E+01 0.  1.
</event>
<event>
11    1  0.8864208E-009  0.1266099E+03  0.7561462E-02  0.1123506E+00
         22   -1    0    0    0    0  0.00000000000E+00  0.00000000000E+00  0.26507458217E+03  0.26507458217E+03  0.00000000000E+00 0. -1.
         22   -1    0    0    0    0 -0.00000000000E+00 -0.00000000000E+00 -0.73325076075E+03  0.73325076075E+03  0.00000000000E+00 0.  1.
        -24    2    1    2    0    0  0.34990396789E+01 -0.14738874345E+01 -0.66432917682E+03  0.66909081672E+03  0.79591772374E+02 0.  0.
         25    2    1    2    0    0  0.11135511700E+02  0.14755893041E+02  0.11408545462E+02  0.12696247471E+03  0.12509028369E+03 0.  0.
         24    2    1    2    0    0 -0.14634551379E+02 -0.13282005606E+02  0.18474445277E+03  0.20227205149E+03  0.79955538995E+02 0.  0.
        -11    1    5    5    0    0 -0.36900232752E+02 -0.49976406946E+01  0.36522780236E+02  0.52158576148E+02  0.00000000000E+00 0.  1.
         12    1    5    5    0    0  0.22265681373E+02 -0.82843649119E+01  0.14822167254E+03  0.15011347534E+03  0.00000000000E+00 0. -1.
         13    1    3    3    0    0  0.40368032200E+02 -0.21178251134E+01 -0.26537350110E+03  0.26843464436E+03  0.00000000000E+00 0. -1.
        -14    1    3    3    0    0 -0.36868992521E+02  0.64393767898E+00 -0.39895567572E+03  0.40065617237E+03  0.00000000000E+00 0.  1.
          5    1    4    4  501    0 -0.26554521157E+02  0.60850027626E+02  0.98947615150E+01  0.67255090227E+02  0.41800000000E+01 0.  1.
         -5    1    4    4    0  501  0.37690032857E+02 -0.46094134585E+02  0.15137839470E+01  0.59707384483E+02  0.41800000000E+01 0.  1.
</event>
<event>
11    1  0.8864208E-009  0.1351021E+03  0.7561462E-02  0.1113154E+00
         22   -1    0    0    0    0  0.00000000000E+00  0.00000000000E+00  0.72741298872E+03  0.72741298872E+03  0.00000000000E+00 0. -1.
         22   -1    0    0    0    0 -0.00000000000E+00 -0.00000000000E+00 -0.28343178133E+03  0.28343178133E+03  0.00000000000E+00 0.  1.
        -24    2    1    2    0    0 -0.29521319842E+02 -0.42323220506E+02 -0.25167030033E+03  0.26942113028E+03  0.81160594229E+02 0.  0.
         25    2    1    2    0    0  0.58173975293E+02  0.17992070693E+00  0.24765558850E+03  0.28348773912E+03  0.12509102263E+03 0.  0.
         24    2    1    2    0    0 -0.28652655451E+02  0.42143299799E+02  0.44799591921E+03  0.45793590065E+03  0.80049441575E+02 0.  0.
        -13    1    5    5    0    0  0.63470568190E+01  0.45880826872E+02  0.13013463167E+03  0.13813166822E+03  0.00000000000E+00 0.  1.
         14    1    5    5    0    0 -0.34999712270E+02 -0.37375270727E+01  0.31786128754E+03  0.31980423243E+03  0.00000000000E+00 0. -1.
         13    1    3    3    0    0 -0.35309946033E+02 -0.43208393425E+02 -0.79376042643E+02  0.97027386324E+02  0.00000000000E+00 0. -1.
        -14    1    3    3    0    0  0.57886261906E+01  0.88517291917E+00 -0.17229425769E+03  0.17239374396E+03  0.00000000000E+00 0.  1.
          5    1    4    4  501    0 -0.20677683685E+02 -0.26653759481E+02  0.16573641538E+02  0.37817290898E+02  0.41800000000E+01 0. -1.
         -5    1    4    4    0  501  0.78851658978E+02  0.26833680188E+02  0.23108194697E+03  0.24567044822E+03  0.41800000000E+01 0. -1.
</event>
<event>
11    1  0.8864208E-009  0.1352318E+03  0.7561462E-02  0.1113003E+00
         22   -1    0    0    0    0  0.00000000000E+00  0.00000000000E+00  0.59991007494E+03  0.59991007494E+03  0.00000000000E+00 0. -1.
         22   -1    0    0    0    0 -0.00000000000E+00 -0.00000000000E+00 -0.78207794087E+03  0.78207794087E+03  0.00000000000E+00 0. -1.
         24    2    1    2    0    0 -0.41228941283E+01 -0.30039103767E+02 -0.72330156181E+03  0.72826919325E+03  0.79319118156E+02 0.  0.
         25    2    1    2    0    0 -0.25325868597E+02 -0.14756795252E+02  0.28202523159E+02  0.13154105732E+03  0.12509398396E+03 0.  0.
        -24    2    1    2    0    0  0.29448762726E+02  0.44795899019E+02  0.51293117273E+03  0.52217776524E+03  0.81837206481E+02 0.  0.
        -13    1    3    3    0    0  0.62288714750E+01 -0.16717035834E+02 -0.31034841522E+02  0.35796920471E+02  0.00000000000E+00 0.  1.
         14    1    3    3    0    0 -0.10351765603E+02 -0.13322067933E+02 -0.69226672029E+03  0.69247227278E+03  0.00000000000E+00 0. -1.
         13    1    5    5    0    0  0.35869507784E+02  0.58781048923E+02  0.48832150987E+03  0.49315284680E+03  0.00000000000E+00 0. -1.
        -14    1    5    5    0    0 -0.64207450579E+01 -0.13985149903E+02  0.24609662852E+02  0.29024918443E+02  0.00000000000E+00 0.  1.
          5    1    4    4  501    0 -0.56498651485E+02  0.13692535566E+02  0.56004800813E+02  0.80830645575E+02  0.41800000000E+01 0. -1.
         -5    1    4    4    0  501  0.31172782888E+02 -0.28449330819E+02 -0.27802277654E+02  0.50710411749E+02  0.41800000000E+01 0. -1.
</event>
<event>
11    1  0.8864208E-009  0.1340353E+03  0.7561462E-02  0.1114408E+00
         22   -1    0    0    0    0  0.00000000000E+00  0.00000000000E+00  0.10764599180E+03  0.10764599180E+03  0.00000000000E+00 0.  1.
         22   -1    0    0    0    0 -0.00000000000E+00 -0.00000000000E+00 -0.96193799858E+03  0.96193799858E+03  0.00000000000E+00 0.  1.
         24    2    1    2    0    0 -0.47816193164E+02  0.23663647136E+02 -0.60515091993E+03  0.61268156569E+03  0.79528036092E+02 0.  0.
         25    2    1    2    0    0  0.86806319248E+01 -0.43218046271E+02 -0.31598257387E+03  0.34268692662E+03  0.12508473046E+03 0.  0.
        -24    2    1    2    0    0  0.39135561239E+02  0.19554399136E+02  0.66841487006E+02  0.11421549808E+03  0.81629828722E+02 0.  0.
        -13    1    3    3    0    0  0.62038234174E+01  0.52176011529E+01 -0.39008341419E+03  0.39016763169E+03  0.00000000000E+00 0.  1.
         14    1    3    3    0    0 -0.54020016581E+02  0.18446045983E+02 -0.21506750573E+03  0.22251393400E+03  0.00000000000E+00 0. -1.
         13    1    5    5    0    0 -0.15380363084E+02  0.95499870890E+00 -0.98592372613E+01  0.18294046859E+02  0.00000000000E+00 0. -1.
        -14    1    5    5    0    0  0.54515924323E+02  0.18599400427E+02  0.76700724267E+02  0.95921451220E+02  0.00000000000E+00 0.  1.
          5    1    4    4  501    0 -0.71534318534E+00  0.41697400545E+02 -0.63287260208E+02  0.75907408286E+02  0.41800000000E+01 0.  1.
         -5    1    4    4    0  501  0.93959751102E+01 -0.84915446816E+02 -0.25269531366E+03  0.26677951833E+03  0.41800000000E+01 0.  1.
</event>
<event>
11    1  0.8864208E-009  0.1522915E+03  0.7561462E-02  0.1094560E+00
         22   -1    0    0    0    0  0.00000000000E+00  0.00000000000E+00  0.23153979694E+03  0.23153979694E+03  0.00000000000E+00 0.  1.
         22   -1    0    0    0    0 -0.00000000000E+00 -0.00000000000E+00 -0.11459468765E+04  0.11459468765E+04  0.00000000000E+00 0. -1.
         24    2    1    2    0    0  0.15941654467E+02  0.94446642909E+02 -0.90186890831E+03  0.91159859474E+03  0.92033501736E+02 0.  0.
         25    2    1    2    0    0 -0.87352509545E+01 -0.49717530819E+02 -0.20902582680E+03  0.24876856394E+03  0.12508343078E+03 0.  0.
        -24    2    1    2    0    0 -0.72064035130E+01 -0.44729112090E+02  0.19648765551E+03  0.21711951480E+03  0.80503783893E+02 0.  0.
        -13    1    3    3    0    0  0.13449641965E+02  0.15542282174E+02 -0.31222342221E+02  0.37380343203E+02  0.00000000000E+00 0.  1.
         14    1    3    3    0    0  0.24920125023E+01  0.78904360735E+02 -0.87064656609E+03  0.87421825153E+03  0.00000000000E+00 0. -1.
         11    1    5    5    0    0 -0.36153133642E+02 -0.40244975105E+02  0.77071581621E+02  0.94163346303E+02  0.00000000000E+00 0. -1.
        -12    1    5    5    0    0  0.28946730129E+02 -0.44841369848E+01  0.11941607389E+03  0.12295616850E+03  0.00000000000E+00 0.  1.
          5    1    4    4  501    0 -0.11886520665E+02 -0.32198899928E+02 -0.22305716910E+03  0.22572113685E+03  0.41800000000E+01 0.  1.
         -5    1    4    4    0  501  0.31512697105E+01 -0.17518630891E+02  0.14031342302E+02  0.23047427099E+02  0.41800000000E+01 0.  1.
</event>
<event>
11    1  0.8864208E-009  0.1640634E+03  0.7561462E-02  0.1083317E+00
         22   -1    0    0    0    0  0.00000000000E+00  0.00000000000E+00  0.11679711497E+03  0.11679711497E+03  0.00000000000E+00 0.  1.
         22   -1    0    0    0    0 -0.00000000000E+00 -0.00000000000E+00 -0.13162671511E+04  0.13162671511E+04  0.00000000000E+00 0.  1.
        -24    2    1    2    0    0 -0.35333332530E+02  0.52147624162E+02 -0.73171541895E+03  0.73877182111E+03  0.80053296334E+02 0.  0.
         25    2    1    2    0    0  0.91454643043E+02  0.40240553199E+02 -0.52402043187E+03  0.54793067034E+03  0.12508937854E+03 0.  0.
         24    2    1    2    0    0 -0.56121310512E+02 -0.92388177361E+02  0.56265814649E+02  0.14636177465E+03  0.81060165138E+02 0.  0.
        -13    1    5    5    0    0 -0.84101386219E+01 -0.73824499226E+02  0.59317527332E+02  0.95075528746E+02  0.00000000000E+00 0.  1.
         14    1    5    5    0    0 -0.47711171891E+02 -0.18563678135E+02 -0.30517126826E+01  0.51286245908E+02  0.00000000000E+00 0. -1.
         13    1    3    3    0    0 -0.11603285242E+02  0.21897786088E+02 -0.48399897438E+02  0.54375539868E+02  0.00000000000E+00 0. -1.
        -14    1    3    3    0    0 -0.23730047288E+02  0.30249838074E+02 -0.68331552151E+03  0.68439628125E+03  0.00000000000E+00 0.  1.
          5    1    4    4  501    0  0.16177176154E+01  0.20013805907E+02 -0.35345626429E+03  0.35405080512E+03  0.41800000000E+01 0. -1.
         -5    1    4    4    0  501  0.89836925427E+02  0.20226747293E+02 -0.17056416758E+03  0.19387986522E+03  0.41800000000E+01 0. -1.
</event>
<event>
11    1  0.8864208E-009  0.1367624E+03  0.7561462E-02  0.1111229E+00
         22   -1    0    0    0    0  0.00000000000E+00  0.00000000000E+00  0.99852670989E+03  0.99852670989E+03  0.00000000000E+00 0.  1.
         22   -1    0    0    0    0 -0.00000000000E+00 -0.00000000000E+00 -0.66293524713E+03  0.66293524713E+03  0.00000000000E+00 0. -1.
        -24    2    1    2    0    0  0.30601262652E+02 -0.18574452694E+02 -0.55905120919E+03  0.56572409559E+03  0.78892650284E+02 0.  0.
         25    2    1    2    0    0 -0.72730637505E+02 -0.16767122602E+02 -0.43919945497E+02  0.15214272322E+03  0.12509022577E+03 0.  0.
         24    2    1    2    0    0  0.42129374854E+02  0.35341575296E+02  0.93856261745E+03  0.94359513822E+03  0.80299980252E+02 0.  0.
        -13    1    5    5    0    0  0.60038025613E+02  0.37457035136E+02  0.86358247720E+03  0.86647694080E+03  0.00000000000E+00 0.  1.
         14    1    5    5    0    0 -0.17908650759E+02 -0.21154598396E+01  0.74980140240E+02  0.77118197417E+02  0.00000000000E+00 0. -1.
         13    1    3    3    0    0  0.54373909598E+02 -0.27818258063E+02 -0.40306200111E+03  0.40766328540E+03  0.00000000000E+00 0. -1.
        -14    1    3    3    0    0 -0.23772646946E+02  0.92438053689E+01 -0.15598920808E+03  0.15806081019E+03  0.00000000000E+00 0.  1.
          5    1    4    4  501    0 -0.50952571573E+01 -0.46833923996E+02 -0.59883945143E+02  0.76308173666E+02  0.41800000000E+01 0. -1.
         -5    1    4    4    0  501 -0.67635380348E+02  0.30066801394E+02  0.15963999646E+02  0.75834549551E+02  0.41800000000E+01 0. -1.
</event>
<event>
11    1  0.8864208E-009  0.1409247E+03  0.7561462E-02  0.1106530E+00
         22   -1    0    0    0    0  0.00000000000E+00  0.00000000000E+00  0.36841286920E+03  0.36841286920E+03  0.00000000000E+00 0.  1.
         22   -1    0    0    0    0 -0.00000000000E+00 -0.00000000000E+00 -0.10265318425E+04  0.10265318425E+04  0.00000000000E+00 0. -1.
        -24    2    1    2    0    0  0.53046662820E+02 -0.29973336407E+02 -0.97074908071E+03  0.97623506709E+03  0.83479214145E+02 0.  0.
         25    2    1    2    0    0  0.22383102338E+02  0.37461690878E+02  0.66361800189E+02  0.14817551566E+03  0.12509082046E+03 0.  0.
         24    2    1    2    0    0 -0.75429765159E+02 -0.74883544713E+01  0.24626830717E+03  0.27053412899E+03  0.82431249583E+02 0.  0.
        -11    1    5    5    0    0 -0.65796348142E+02  0.28946936396E+02  0.18652996419E+03  0.19990125587E+03  0.00000000000E+00 0.  1.
         12    1    5    5    0    0 -0.96334170166E+01 -0.36435290868E+02  0.59738342977E+02  0.70632873123E+02  0.00000000000E+00 0. -1.
         13    1    3    3    0    0 -0.14192831831E+01 -0.46429665549E+02 -0.43483928591E+03  0.43731331191E+03  0.00000000000E+00 0. -1.
        -14    1    3    3    0    0  0.54465946004E+02  0.16456329142E+02 -0.53590979480E+03  0.53892175518E+03  0.00000000000E+00 0.  1.
          5    1    4    4  501    0 -0.12307335174E+02  0.47482534998E+02 -0.21024140209E+02  0.53530818231E+02  0.41800000000E+01 0.  1.
         -5    1    4    4    0  501  0.34690437512E+02 -0.10020844119E+02  0.87385940398E+02  0.94644697427E+02  0.41800000000E+01 0.  1.
</event>
<event>
11    1  0.8864208E-009  0.2156741E+03  0.7561462E-02  0.1043962E+00
         22   -1    0    0    0    0  0.00000000000E+00  0.00000000000E+00  0.26985732134E+04  0.26985732134E+04  0.00000000000E+00 0.  1.
         22   -1    0    0    0    0 -0.00000000000E+00 -0.00000000000E+00 -0.14843940774E+03  0.14843940774E+03  0.00000000000E+00 0. -1.
        -24    2    1    2    0    0  0.10860693337E+03 -0.37423112205E+02 -0.93103421530E+02  0.16826435921E+03  0.80303749468E+02 0.  0.
         25    2    1    2    0    0 -0.11636960308E+03  0.19326463282E+03  0.14529858899E+04  0.14757062634E+04  0.12509147362E+03 0.  0.
         24    2    1    2    0    0  0.77626697167E+01 -0.15584152062E+03  0.11902513373E+04  0.12030419986E+04  0.79151536390E+02 0.  0.
        -13    1    5    5    0    0  0.32977416439E+02 -0.14170935540E+03  0.10263303896E+04  0.10365920702E+04  0.00000000000E+00 0.  1.
         14    1    5    5    0    0 -0.25214746722E+02 -0.14132165214E+02  0.16392094769E+03  0.16644992832E+03  0.00000000000E+00 0. -1.
         13    1    3    3    0    0  0.11852436426E+03 -0.26299598456E+02 -0.68223997167E+02  0.13926308769E+03  0.00000000000E+00 0. -1.
        -14    1    3    3    0    0 -0.99174308932E+01 -0.11123513749E+02 -0.24879424363E+02  0.29001271528E+02  0.00000000000E+00 0.  1.
          5    1    4    4  501    0 -0.11504171142E+03  0.20763515032E+03  0.12624913420E+04  0.12846201041E+04  0.41800000000E+01 0.  1.
         -5    1    4    4    0  501 -0.13278916668E+01 -0.14370517502E+02  0.19049454795E+03  0.19108615928E+03  0.41800000000E+01 0.  1.
</event>
<event>
11    1  0.8864208E-009  0.2199048E+03  0.7561462E-02  0.1041277E+00
         22   -1    0    0    0    0  0.00000000000E+00  0.00000000000E+00  0.68308432088E+03  0.68308432088E+03  0.00000000000E+00 0. -1.
         22   -1    0    0    0    0 -0.00000000000E+00 -0.00000000000E+00 -0.18113644879E+03  0.18113644879E+03  0.00000000000E+00 0.  1.
         24    2    1    2    0    0 -0.18829277217E+03  0.26905721603E+02 -0.68603653557E+02  0.21478832324E+03  0.72453271929E+02 0.  0.
         25    2    1    2    0    0  0.13558636540E+03  0.20512408263E+02  0.35956009618E+03  0.40464207800E+03  0.12508927673E+03 0.  0.
        -24    2    1    2    0    0  0.52706406773E+02 -0.47418129866E+02  0.21099142947E+03  0.24479036842E+03  0.10187490764E+03 0.  0.
        -13    1    3    3    0    0 -0.15168846832E+03  0.27868438504E+02 -0.83355313739E+02  0.17531157867E+03  0.00000000000E+00 0.  1.
         14    1    3    3    0    0 -0.36604303851E+02 -0.96271690076E+00  0.14751660182E+02  0.39476744576E+02  0.00000000000E+00 0. -1.
         13    1    5    5    0    0  0.76311655873E+02 -0.50297848742E+02  0.12058039963E+03  0.15130424709E+03  0.00000000000E+00 0. -1.
        -14    1    5    5    0    0 -0.23605249100E+02  0.28797188768E+01  0.90411029837E+02  0.93486121334E+02  0.00000000000E+00 0.  1.
          5    1    4    4  501    0  0.13264321972E+03  0.98219603352E+01  0.17572567530E+03  0.22042613276E+03  0.41800000000E+01 0. -1.
         -5    1    4    4    0  501  0.29431456789E+01  0.10690447928E+02  0.18383442088E+03  0.18421594525E+03  0.41800000000E+01 0. -1.
</event>
<event>
11    1  0.8864208E-009  0.1272087E+03  0.7561462E-02  0.1122747E+00
         22   -1    0    0    0    0  0.00000000000E+00  0.00000000000E+00  0.62256209277E+03  0.62256209277E+03  0.00000000000E+00 0. -1.
         22   -1    0    0    0    0 -0.00000000000E+00 -0.00000000000E+00 -0.36238586399E+03  0.36238586399E+03  0.00000000000E+00 0. -1.
         24    2    1    2    0    0  0.53950170281E+01 -0.14982440330E+02 -0.26930474024E+03  0.28172362951E+03  0.81176231620E+02 0.  0.
         25    2    1    2    0    0 -0.24612203610E+02  0.26790017908E+02 -0.31828368906E+02  0.13410483252E+03  0.12509034899E+03 0.  0.
        -24    2    1    2    0    0  0.19217186582E+02 -0.11807577578E+02  0.56130933794E+03  0.56911949473E+03  0.91214622076E+02 0.  0.
        -13    1    3    3    0    0 -0.11858031765E+02 -0.44539919956E+02 -0.12001906400E+03  0.12856513178E+03  0.00000000000E+00 0.  1.
         14    1    3    3    0    0  0.17253048793E+02  0.29557479626E+02 -0.14928567625E+03  0.15315849773E+03  0.00000000000E+00 0. -1.
         11    1    5    5    0    0  0.35346610637E+01  0.19669392865E+02  0.48139287133E+03  0.48180750867E+03  0.00000000000E+00 0. -1.
        -12    1    5    5    0    0  0.15682525518E+02 -0.31476970444E+02  0.79916466605E+02  0.87311986059E+02  0.00000000000E+00 0.  1.
          5    1    4    4  501    0 -0.47514502413E+02  0.37778360181E+02  0.29479205466E+02  0.67611599540E+02  0.41800000000E+01 0. -1.
         -5    1    4    4    0  501  0.22902298803E+02 -0.10988342273E+02 -0.61307574373E+02  0.66493232978E+02  0.41800000000E+01 0. -1.
</event>
<event>
11    1  0.8864208E-009  0.1595946E+03  0.7561462E-02  0.1087459E+00
         22   -1    0    0    0    0  0.00000000000E+00  0.00000000000E+00  0.26511113089E+03  0.26511113089E+03  0.00000000000E+00 0. -1.
         22   -1    0    0    0    0 -0.00000000000E+00 -0.00000000000E+00 -0.13573308560E+04  0.13573308560E+04  0.00000000000E+00 0.  1.
         24    2    1    2    0    0  0.81676456271E+01  0.99422002817E+02 -0.11572183590E+04  0.11637550069E+04  0.72249155494E+02 0.  0.
         25    2    1    2    0    0 -0.65966087979E+02 -0.85296741330E+02 -0.14897295122E+03  0.22241345489E+03  0.12509095040E+03 0.  0.
        -24    2    1    2    0    0  0.57798442352E+02 -0.14125261487E+02  0.21397158519E+03  0.23627352508E+03  0.80629749059E+02 0.  0.
        -11    1    3    3    0    0  0.24676568656E+02  0.90277323437E+02 -0.10877498705E+04  0.10917686151E+04  0.00000000000E+00 0.  1.
         12    1    3    3    0    0 -0.16508923028E+02  0.91446793804E+01 -0.69468488530E+02  0.71986391764E+02  0.00000000000E+00 0. -1.
         11    1    5    5    0    0  0.72702786472E+02 -0.10460878759E+02  0.20655737082E+03  0.21922835717E+03  0.00000000000E+00 0. -1.
        -12    1    5    5    0    0 -0.14904344120E+02 -0.36643827276E+01  0.74142143699E+01  0.17045167912E+02  0.00000000000E+00 0.  1.
          5    1    4    4  501    0 -0.90408042694E+02 -0.16475605623E+02 -0.81986049632E+02  0.12322436650E+03  0.41800000000E+01 0.  1.
         -5    1    4    4    0  501  0.24441954715E+02 -0.68821135707E+02 -0.66986901592E+02  0.99189088388E+02  0.41800000000E+01 0.  1.
</event>
<event>
11    1  0.8864208E-009  0.2138748E+03  0.7561462E-02  0.1045124E+00
         22   -1    0    0    0    0  0.00000000000E+00  0.00000000000E+00  0.67679314927E+03  0.67679314927E+03  0.00000000000E+00 0.  1.
         22   -1    0    0    0    0 -0.00000000000E+00 -0.00000000000E+00 -0.14653730966E+03  0.14653730966E+03  0.00000000000E+00 0.  1.
        -24    2    1    2    0    0  0.22508406422E+02 -0.85186775726E+02  0.22141694680E+02  0.11022448562E+03  0.62416083421E+02 0.  0.
         25    2    1    2    0    0 -0.89118378580E+02  0.22660106717E+03  0.14558148766E+03  0.31005354289E+03  0.12509636632E+03 0.  0.
         24    2    1    2    0    0  0.66609972158E+02 -0.14141429145E+03  0.36253265727E+03  0.40305243042E+03  0.81156908906E+02 0.  0.
        -13    1    5    5    0    0  0.35467938809E+02 -0.13323450057E+03  0.32819809463E+03  0.35598229751E+03  0.00000000000E+00 0.  1.
         14    1    5    5    0    0  0.31142033349E+02 -0.81797908791E+01  0.34334562637E+02  0.47070132902E+02  0.00000000000E+00 0. -1.
         13    1    3    3    0    0  0.98181104288E+01  0.28569442681E+01 -0.11256786366E+02  0.15207651437E+02  0.00000000000E+00 0. -1.
        -14    1    3    3    0    0  0.12690295993E+02 -0.88043719994E+02  0.33398481047E+02  0.95016834187E+02  0.00000000000E+00 0.  1.
          5    1    4    4  501    0  0.27616970251E+02  0.14868939114E+02  0.12382432083E+02  0.33979102703E+02  0.41800000000E+01 0. -1.
         -5    1    4    4    0  501 -0.11673534883E+03  0.21173212806E+03  0.13319905558E+03  0.27607444019E+03  0.41800000000E+01 0. -1.
</event>
<event>
11    1  0.8864208E-009  0.2184565E+03  0.7561462E-02  0.1042189E+00
         22   -1    0    0    0    0  0.00000000000E+00  0.00000000000E+00  0.31126439114E+03  0.31126439114E+03  0.00000000000E+00 0. -1.
         22   -1    0    0    0    0 -0.00000000000E+00 -0.00000000000E+00 -0.40753748701E+03  0.40753748701E+03  0.00000000000E+00 0. -1.
         24    2    1    2    0    0 -0.15741062540E+03  0.14822622700E+03 -0.20645256859E+03  0.30741543133E+03  0.71641224060E+02 0.  0.
         25    2    1    2    0    0  0.14440677114E+03 -0.92902254491E+01 -0.36225669333E+02  0.19467894176E+03  0.12509183590E+03 0.  0.
        -24    2    1    2    0    0  0.13003854261E+02 -0.13893600155E+03  0.14640514205E+03  0.21670750505E+03  0.77816221786E+02 0.  0.
        -11    1    3    3    0    0 -0.21826849140E+02 -0.47142345448E+01 -0.29999738246E+02  0.37398123557E+02  0.00000000000E+00 0.  1.
         12    1    3    3    0    0 -0.13558377626E+03  0.15294046154E+03 -0.17645283034E+03  0.27001730777E+03  0.00000000000E+00 0. -1.
         13    1    5    5    0    0  0.21363370797E+02 -0.71116031508E+02  0.26772426457E+02  0.78934443481E+02  0.00000000000E+00 0. -1.
        -14    1    5    5    0    0 -0.83595165367E+01 -0.67819970043E+02  0.11963271560E+03  0.13777306157E+03  0.00000000000E+00 0.  1.
          5    1    4    4  501    0  0.21858150939E+01 -0.41830684829E+02  0.65074828052E+01  0.42595818027E+02  0.41800000000E+01 0.  1.
         -5    1    4    4    0  501  0.14222095604E+03  0.32540459380E+02 -0.42733152138E+02  0.15208312374E+03  0.41800000000E+01 0.  1.
</event>
<event>
11    1  0.8864208E-009  0.1375526E+03  0.7561462E-02  0.1110322E+00
         22   -1    0    0    0    0  0.00000000000E+00  0.00000000000E+00  0.23030202111E+03  0.23030202111E+03  0.00000000000E+00 0.  1.
         22   -1    0    0    0    0 -0.00000000000E+00 -0.00000000000E+00 -0.23725458286E+04  0.23725458286E+04  0.00000000000E+00 0.  1.
         24    2    1    2    0    0  0.52568658734E+02  0.37347548044E+02 -0.18864610409E+04  0.18893567527E+04  0.82312676180E+02 0.  0.
         25    2    1    2    0    0 -0.13401418321E+02 -0.73503192623E+01 -0.46523010195E+03  0.48199463649E+03  0.12508459793E+03 0.  0.
        -24    2    1    2    0    0 -0.39167240413E+02 -0.29997228781E+02  0.20944733545E+03  0.23149646050E+03  0.85372820269E+02 0.  0.
        -13    1    3    3    0    0  0.73763312212E+02  0.34887765875E+02 -0.13425767983E+04  0.13450541408E+04  0.00000000000E+00 0.  1.
         14    1    3    3    0    0 -0.21194653479E+02  0.24597821687E+01 -0.54388424268E+03  0.54430261188E+03  0.00000000000E+00 0. -1.
         13    1    5    5    0    0  0.19549106590E+02 -0.25024040229E+01  0.10667544798E+02  0.22410401745E+02  0.00000000000E+00 0. -1.
        -14    1    5    5    0    0 -0.58716347003E+02 -0.27494824758E+02  0.19877979065E+03  0.20908605875E+03  0.00000000000E+00 0.  1.
          5    1    4    4  501    0 -0.61322542567E+02  0.17552088567E+02 -0.33336031417E+03  0.33943350086E+03  0.41800000000E+01 0. -1.
         -5    1    4    4    0  501  0.47921124246E+02 -0.24902407829E+02 -0.13186978778E+03  0.14256113564E+03  0.41800000000E+01 0. -1.
</event>
<event>
11    1  0.8864208E-009  0.2271717E+03  0.7561462E-02  0.1036816E+00
         22   -1    0    0    0    0  0.00000000000E+00  0.00000000000E+00  0.45727658487E+03  0.45727658487E+03  0.00000000000E+00 0. -1.
         22   -1    0    0    0    0 -0.00000000000E+00 -0.00000000000E+00 -0.21209600550E+03  0.21209600550E+03  0.00000000000E+00 0. -1.
        -24    2    1    2    0    0 -0.15187386148E+02  0.30203532919E+02 -0.88066058945E+02  0.12132653730E+03  0.76299330383E+02 0.  0.
         25    2    1    2    0    0  0.17168276200E+03  0.79796340872E+02  0.16653204755E+03  0.28146720207E+03  0.12509370966E+03 0.  0.
         24    2    1    2    0    0 -0.15649537585E+03 -0.10999987379E+03  0.16671459077E+03  0.26657885099E+03  0.81729762781E+02 0.  0.
        -13    1    5    5    0    0 -0.17586459538E+02 -0.53847190880E+02  0.60767231723E+02  0.83075026187E+02  0.00000000000E+00 0.  1.
         14    1    5    5    0    0 -0.13890891631E+03 -0.56152682912E+02  0.10594735905E+03  0.18350382481E+03  0.00000000000E+00 0. -1.
         11    1    3    3    0    0 -0.25936871792E+02  0.50734438854E+02 -0.76604841976E+02  0.95472542746E+02  0.00000000000E+00 0. -1.
        -12    1    3    3    0    0  0.10749485644E+02 -0.20530905935E+02 -0.11461216969E+02  0.25853994557E+02  0.00000000000E+00 0.  1.
          5    1    4    4  501    0  0.79044072046E+02  0.53397195018E+01  0.31644432165E+01  0.79397506452E+02  0.41800000000E+01 0.  1.
         -5    1    4    4    0  501  0.92638689951E+02  0.74456621370E+02  0.16336760433E+03  0.20206969562E+03  0.41800000000E+01 0.  1.
</event>
<event>
11    1  0.8864208E-009  0.1505456E+03  0.7561462E-02  0.1096323E+00
         22   -1    0    0    0    0  0.00000000000E+00  0.00000000000E+00  0.32186568055E+03  0.32186568055E+03  0.00000000000E+00 0.  1.
         22   -1    0    0    0    0 -0.00000000000E+00 -0.00000000000E+00 -0.11643257720E+04  0.11643257720E+04  0.00000000000E+00 0. -1.
        -24    2    1    2    0    0 -0.61239787534E+02  0.53027028427E+02 -0.80583700746E+03  0.81399079815E+03  0.81520301480E+02 0.  0.
         25    2    1    2    0    0  0.82748791874E+02 -0.50397953476E+02 -0.33071057431E+03  0.36661502904E+03  0.12509907787E+03 0.  0.
         24    2    1    2    0    0 -0.21509004339E+02 -0.26290749511E+01  0.29408749036E+03  0.30558562531E+03  0.80159672574E+02 0.  0.
        -11    1    5    5    0    0 -0.47424489114E+02  0.10387722245E+02  0.12628603337E+03  0.13529652311E+03  0.00000000000E+00 0.  1.
         12    1    5    5    0    0  0.25915484775E+02 -0.13016797196E+02  0.16780145699E+03  0.17028910220E+03  0.00000000000E+00 0. -1.
         11    1    3    3    0    0 -0.47066978650E+02  0.16052745626E+02 -0.68560274828E+03  0.68740389843E+03  0.00000000000E+00 0. -1.
        -12    1    3    3    0    0 -0.14172808884E+02  0.36974282800E+02 -0.12023425918E+03  0.12658689972E+03  0.00000000000E+00 0.  1.
          5    1    4    4  501    0 -0.89641021794E+01  0.24235899139E+02 -0.16691108272E+02  0.31045119267E+02  0.41800000000E+01 0.  1.
         -5    1    4    4    0  501  0.91712894053E+02 -0.74633852615E+02 -0.31401946604E+03  0.33556990977E+03  0.41800000000E+01 0.  1.
</event>
<event>
11    1  0.8864208E-009  0.1704775E+03  0.7561462E-02  0.1077617E+00
         22   -1    0    0    0    0  0.00000000000E+00  0.00000000000E+00  0.10999437701E+04  0.10999437701E+04  0.00000000000E+00 0.  1.
         22   -1    0    0    0    0 -0.00000000000E+00 -0.00000000000E+00 -0.20498669558E+03  0.20498669558E+03  0.00000000000E+00 0.  1.
        -24    2    1    2    0    0  0.10696926255E+03 -0.33324290819E+02 -0.12998298122E+03  0.18746603409E+03  0.75465270432E+02 0.  0.
         25    2    1    2    0    0 -0.17064881679E+03 -0.43867237657E+02  0.24353052962E+03  0.32557643609E+03  0.12509014217E+03 0.  0.
         24    2    1    2    0    0  0.63679554243E+02  0.77191528476E+02  0.78140952611E+03  0.79188799550E+03  0.80449563212E+02 0.  0.
        -13    1    5    5    0    0  0.48485512898E+02  0.35189182164E+02  0.65658785118E+03  0.65931534930E+03  0.00000000000E+00 0.  1.
         14    1    5    5    0    0  0.15194041346E+02  0.42002346312E+02  0.12482167493E+03  0.13257264620E+03  0.00000000000E+00 0. -1.
         11    1    3    3    0    0  0.62726041833E+02 -0.11971784761E+02 -0.19848743870E+02  0.66871911798E+02  0.00000000000E+00 0. -1.
        -12    1    3    3    0    0  0.44243220714E+02 -0.21352506059E+02 -0.11013423735E+03  0.12059412229E+03  0.00000000000E+00 0.  1.
          5    1    4    4  501    0 -0.18135478049E+02  0.33804448738E+02  0.18421032335E+02  0.42760298769E+02  0.41800000000E+01 0.  1.
         -5    1    4    4    0  501 -0.15251333874E+03 -0.77671686395E+02  0.22510949729E+03  0.28281613732E+03  0.41800000000E+01 0.  1.
</event>
<event>
11    1  0.8864208E-009  0.4002332E+03  0.7561462E-02  0.9649070E-01
         22   -1    0    0    0    0  0.00000000000E+00  0.00000000000E+00  0.13292268173E+04  0.13292268173E+04  0.00000000000E+00 0.  1.
         22   -1    0    0    0    0 -0.00000000000E+00 -0.00000000000E+00 -0.26342263738E+03  0.26342263738E+03  0.00000000000E+00 0. -1.
        -24    2    1    2    0    0  0.36828896913E+01  0.86876956280E+02 -0.50242872323E+02  0.12857838617E+03  0.80292502526E+02 0.  0.
         25    2    1    2    0    0  0.21682635218E+03  0.24260546998E+03  0.88568294628E+02  0.35966961750E+03  0.12508720909E+03 0.  0.
         24    2    1    2    0    0 -0.22050924187E+03 -0.32948242626E+03  0.10274787577E+04  0.11044014511E+04  0.82504379952E+02 0.  0.
        -13    1    5    5    0    0 -0.23735647912E+02 -0.97284183311E+02  0.27760713568E+03  0.29511576557E+03  0.00000000000E+00 0.  1.
         14    1    5    5    0    0 -0.19677359395E+03 -0.23219824295E+03  0.74987162197E+03  0.80928568549E+03  0.00000000000E+00 0. -1.
         11    1    3    3    0    0  0.40353734052E+02  0.62028707362E+02 -0.29455475434E+02  0.79646779106E+02  0.00000000000E+00 0. -1.
        -12    1    3    3    0    0 -0.36670844361E+02  0.24848248918E+02 -0.20787396889E+02  0.48931607064E+02  0.00000000000E+00 0.  1.
          5    1    4    4  501    0  0.70446108315E+02  0.11930398222E+03 -0.19275209813E+02  0.13994677725E+03  0.41800000000E+01 0. -1.
         -5    1    4    4    0  501  0.14638024386E+03  0.12330148776E+03  0.10784350444E+03  0.21972284025E+03  0.41800000000E+01 0. -1.
</event>
<event>
11    1  0.8864208E-009  0.2005514E+03  0.7561462E-02  0.1054134E+00
         22   -1    0    0    0    0  0.00000000000E+00  0.00000000000E+00  0.63922305076E+03  0.63922305076E+03  0.00000000000E+00 0.  1.
         22   -1    0    0    0    0 -0.00000000000E+00 -0.00000000000E+00 -0.51871940286E+03  0.51871940286E+03  0.00000000000E+00 0.  1.
         24    2    1    2    0    0 -0.68125761582E+02 -0.13865053465E+03 -0.39226726011E+03  0.42897135925E+03  0.79232149768E+02 0.  0.
         25    2    1    2    0    0  0.71460529918E+02  0.15421274210E+03  0.14036548240E+01  0.21103963757E+03  0.12509029225E+03 0.  0.
        -24    2    1    2    0    0 -0.33347683357E+01 -0.15562207450E+02  0.51136725319E+03  0.51793145680E+03  0.80642565261E+02 0.  0.
        -11    1    3    3    0    0 -0.73309674256E+01 -0.10133651701E+03 -0.21147917279E+03  0.23461942223E+03  0.00000000000E+00 0.  1.
         12    1    3    3    0    0 -0.60794794156E+02 -0.37314017642E+02 -0.18078808732E+03  0.19435193702E+03  0.00000000000E+00 0. -1.
         13    1    5    5    0    0 -0.35422849196E+02  0.12183515516E+02  0.17972849104E+03  0.18359070452E+03  0.00000000000E+00 0. -1.
        -14    1    5    5    0    0  0.32088080860E+02 -0.27745722966E+02  0.33163876215E+03  0.33434075228E+03  0.00000000000E+00 0.  1.
          5    1    4    4  501    0  0.77894889226E+01  0.90577756344E+02  0.54857250349E+02  0.10626286462E+03  0.41800000000E+01 0. -1.
         -5    1    4    4    0  501  0.63671040995E+02  0.63634985758E+02 -0.53453595525E+02  0.10477677294E+03  0.41800000000E+01 0. -1.
</event>
<event>
11    1  0.8864208E-009  0.1454107E+03  0.7561462E-02  0.1101663E+00
         22   -1    0    0    0    0  0.00000000000E+00  0.00000000000E+00  0.69041310606E+03  0.69041310606E+03  0.00000000000E+00 0.  1.
         22   -1    0    0    0    0 -0.00000000000E+00 -0.00000000000E+00 -0.18481887943E+03  0.18481887943E+03  0.00000000000E+00 0.  1.
         24    2    1    2    0    0 -0.67501254301E+02 -0.33518025245E+02 -0.12258392289E+03  0.16484839598E+03  0.80425730695E+02 0.  0.
         25    2    1    2    0    0  0.61934926620E+02  0.24297565669E+02  0.97191006380E+02  0.17181560323E+03  0.12509277740E+03 0.  0.
        -24    2    1    2    0    0  0.55663276808E+01  0.92204595765E+01  0.53098714314E+03  0.53856798629E+03  0.89398706897E+02 0.  0.
        -13    1    3    3    0    0 -0.85447272180E+02 -0.24675402295E+02 -0.89432748883E+02  0.12612822196E+03  0.00000000000E+00 0.  1.
         14    1    3    3    0    0  0.17946017879E+02 -0.88426229495E+01 -0.33151174005E+02  0.38720174021E+02  0.00000000000E+00 0. -1.
         11    1    5    5    0    0  0.43160499313E+02  0.22932501990E+02  0.33403675655E+03  0.33759336942E+03  0.00000000000E+00 0. -1.
        -12    1    5    5    0    0 -0.37594171632E+02 -0.13712042414E+02  0.19695038659E+03  0.20097461687E+03  0.00000000000E+00 0.  1.
          5    1    4    4  501    0  0.43551870476E+02  0.71966402705E+02  0.34958809919E+02  0.91189469410E+02  0.41800000000E+01 0. -1.
         -5    1    4    4    0  501  0.18383056144E+02 -0.47668837037E+02  0.62232196461E+02  0.80626133815E+02  0.41800000000E+01 0. -1.
</event>
<event>
11    1  0.8864208E-009  0.1308365E+03  0.7561462E-02  0.1118245E+00
         22   -1    0    0    0    0  0.00000000000E+00  0.00000000000E+00  0.64759715790E+03  0.64759715790E+03  0.00000000000E+00 0. -1.
         22   -1    0    0    0    0 -0.00000000000E+00 -0.00000000000E+00 -0.40748943634E+03  0.40748943634E+03  0.00000000000E+00 0.  1.
        -24    2    1    2    0    0  0.19207123909E+02 -0.39878056926E+02 -0.19716401588E+03  0.22408438408E+03  0.96855505753E+02 0.  0.
         25    2    1    2    0    0 -0.44545171653E+02  0.12602016677E+01 -0.17056316801E+03  0.21615903878E+03  0.12508827019E+03 0.  0.
         24    2    1    2    0    0  0.25338047743E+02  0.38617855258E+02  0.60783490545E+03  0.61484317138E+03  0.80221553862E+02 0.  0.
        -13    1    5    5    0    0  0.39278636699E+02  0.54718076893E+02  0.37201334136E+03  0.37806190682E+03  0.00000000000E+00 0.  1.
         14    1    5    5    0    0 -0.13940588956E+02 -0.16100221635E+02  0.23582156409E+03  0.23678126456E+03  0.00000000000E+00 0. -1.
         13    1    3    3    0    0  0.45945736569E+02 -0.13166568850E+01 -0.43019702023E+02  0.62955850057E+02  0.00000000000E+00 0. -1.
        -14    1    3    3    0    0 -0.26738612659E+02 -0.38561400041E+02 -0.15414431386E+03  0.16112853402E+03  0.00000000000E+00 0.  1.
          5    1    4    4  501    0  0.32292755738E+02 -0.54791313716E+01 -0.11847842572E+03  0.12299371006E+03  0.41800000000E+01 0. -1.
         -5    1    4    4    0  501 -0.76837927391E+02  0.67393330393E+01 -0.52084742284E+02  0.93165328713E+02  0.41800000000E+01 0. -1.
</event>
<event>
11    1  0.8864208E-009  0.1819015E+03  0.7561462E-02  0.1068115E+00
         22   -1    0    0    0    0  0.00000000000E+00  0.00000000000E+00  0.42315653188E+03  0.42315653188E+03  0.00000000000E+00 0. -1.
         22   -1    0    0    0    0 -0.00000000000E+00 -0.00000000000E+00 -0.19214158827E+04  0.19214158827E+04  0.00000000000E+00 0.  1.
        -24    2    1    2    0    0 -0.42049318526E+02  0.12711947923E+03 -0.16405491409E+04  0.16479314227E+04  0.79680505235E+02 0.  0.
         25    2    1    2    0    0  0.92680605596E+02 -0.91178923831E+02 -0.24096955248E+03  0.30102857672E+03  0.12509431632E+03 0.  0.
         24    2    1    2    0    0 -0.50631287070E+02 -0.35940555398E+02  0.38325934261E+03  0.39561241515E+03  0.75935555373E+02 0.  0.
        -13    1    5    5    0    0 -0.17781817437E+01  0.16224174909E+02  0.22236282622E+02  0.27583292889E+02  0.00000000000E+00 0.  1.
         14    1    5    5    0    0 -0.48853105326E+02 -0.52164730307E+02  0.36102305998E+03  0.36802912226E+03  0.00000000000E+00 0. -1.
         13    1    3    3    0    0  0.16999267345E+02  0.29843881151E+01 -0.13006114359E+03  0.13120130615E+03  0.00000000000E+00 0. -1.
        -14    1    3    3    0    0 -0.59048585870E+02  0.12413509111E+03 -0.15104879973E+04  0.15167301165E+04  0.00000000000E+00 0.  1.
          5    1    4    4  501    0  0.22269727208E+02  0.21073502507E+02 -0.11153375303E+03  0.11574663591E+03  0.41800000000E+01 0. -1.
         -5    1    4    4    0  501  0.70410878388E+02 -0.11225242634E+03 -0.12943579944E+03  0.18528194081E+03  0.41800000000E+01 0. -1.
</event>
<event>
11    1  0.8864208E-009  0.1534544E+03  0.7561462E-02  0.1093400E+00
         22   -1    0    0    0    0  0.00000000000E+00  0.00000000000E+00  0.29547819615E+03  0.29547819615E+03  0.00000000000E+00 0. -1.
         22   -1    0    0    0    0 -0.00000000000E+00 -0.00000000000E+00 -0.68927480409E+03  0.68927480409E+03  0.00000000000E+00 0. -1.
         24    2    1    2    0    0  0.62642895449E+01 -0.52018273198E+02 -0.61541147780E+03  0.62290007430E+03  0.80796494253E+02 0.  0.
         25    2    1    2    0    0  0.18420472785E+02 -0.50734807837E+02  0.50289462659E+02  0.14522371988E+03  0.12509022430E+03 0.  0.
        -24    2    1    2    0    0 -0.24684762330E+02  0.10275308104E+03  0.17132540720E+03  0.21662920606E+03  0.80051762085E+02 0.  0.
        -13    1    3    3    0    0 -0.30499487587E+02 -0.51038255939E+02 -0.36911188404E+03  0.37386990418E+03  0.00000000000E+00 0.  1.
         14    1    3    3    0    0  0.36763777132E+02 -0.98001725906E+00 -0.24629959376E+03  0.24903017012E+03  0.00000000000E+00 0. -1.
         11    1    5    5    0    0 -0.47213075370E+02  0.67759165833E+02  0.14648470653E+03  0.16816107840E+03  0.00000000000E+00 0. -1.
        -12    1    5    5    0    0  0.22528313040E+02  0.34993915202E+02  0.24840700673E+02  0.48468127667E+02  0.00000000000E+00 0.  1.
          5    1    4    4  501    0  0.96832460035E+01  0.39548787973E+02 -0.98961371860E+00  0.40942931241E+02  0.41800000000E+01 0.  1.
         -5    1    4    4    0  501  0.87372267819E+01 -0.90283595810E+02  0.51279076377E+02  0.10428078864E+03  0.41800000000E+01 0.  1.
</event>
<event>
11    1  0.8864208E-009  0.2160307E+03  0.7561462E-02  0.1043733E+00
         22   -1    0    0    0    0  0.00000000000E+00  0.00000000000E+00  0.11653871971E+03  0.11653871971E+03  0.00000000000E+00 0.  1.
         22   -1    0    0    0    0 -0.00000000000E+00 -0.00000000000E+00 -0.67328621163E+03  0.67328621163E+03  0.00000000000E+00 0.  1.
        -24    2    1    2    0    0 -0.33654601102E+02 -0.81863849978E+02 -0.22223550879E+03  0.25230085284E+03  0.80204593792E+02 0.  0.
         25    2    1    2    0    0  0.10802189072E+02 -0.12922771992E+03 -0.21609615994E+03  0.28135828022E+03  0.12509372734E+03 0.  0.
         24    2    1    2    0    0  0.22852412031E+02  0.21109156990E+03 -0.11841582319E+03  0.25616579828E+03  0.80726237430E+02 0.  0.
        -11    1    5    5    0    0 -0.36594667198E+01  0.14096894864E+03 -0.37621198277E+02  0.14594858937E+03  0.00000000000E+00 0.  1.
         12    1    5    5    0    0  0.26511878751E+02  0.70122621258E+02 -0.80794624909E+02  0.11021720892E+03  0.00000000000E+00 0. -1.
         11    1    3    3    0    0 -0.35581571478E+01  0.12663504965E+02 -0.61270959249E+01  0.14510897449E+02  0.00000000000E+00 0. -1.
        -12    1    3    3    0    0 -0.30096443955E+02 -0.94527354944E+02 -0.21610841287E+03  0.23778995539E+03  0.00000000000E+00 0.  1.
          5    1    4    4  501    0  0.58574865163E+02 -0.86859342266E+02 -0.83162051880E+02  0.13382436042E+03  0.41800000000E+01 0.  1.
         -5    1    4    4    0  501 -0.47772676091E+02 -0.42368377656E+02 -0.13293410806E+03  0.14753391980E+03  0.41800000000E+01 0.  1.
</event>
<event>
11    1  0.8864208E-009  0.1423547E+03  0.7561462E-02  0.1104957E+00
         22   -1    0    0    0    0  0.00000000000E+00  0.00000000000E+00  0.26730951756E+03  0.26730951756E+03  0.00000000000E+00 0.  1.
         22   -1    0    0    0    0 -0.00000000000E+00 -0.00000000000E+00 -0.38720447111E+03  0.38720447111E+03  0.00000000000E+00 0.  1.
        -24    2    1    2    0    0 -0.53714127786E+01 -0.18981060189E+02 -0.23846353390E+03  0.25354679199E+03  0.83856937741E+02 0.  0.
         25    2    1    2    0    0 -0.21248889912E+02 -0.45601417401E+02 -0.91841633959E+02  0.16313606099E+03  0.12508990397E+03 0.  0.
         24    2    1    2    0    0  0.26620302691E+02  0.64582477590E+02  0.21041021431E+03  0.23783113568E+03  0.86090962871E+02 0.  0.
        -13    1    5    5    0    0  0.47178028579E+02  0.12042725816E+02  0.13598037928E+03  0.14443495829E+03  0.00000000000E+00 0.  1.
         14    1    5    5    0    0 -0.20557725889E+02  0.52539751774E+02  0.74429835026E+02  0.93396177396E+02  0.00000000000E+00 0. -1.
         13    1    3    3    0    0  0.20852938966E+02  0.17659948847E+02 -0.31346437124E+02  0.41585069161E+02  0.00000000000E+00 0. -1.
        -14    1    3    3    0    0 -0.26224351744E+02 -0.36641009035E+02 -0.20711709678E+03  0.21196172283E+03  0.00000000000E+00 0.  1.
          5    1    4    4  501    0 -0.54156307588E+01 -0.46643381948E+02  0.19189949170E+02  0.50898533233E+02  0.41800000000E+01 0.  1.
         -5    1    4    4    0  501 -0.15833259153E+02  0.10419645469E+01 -0.11103158313E+03  0.11223752776E+03  0.41800000000E+01 0.  1.
</event>
<event>
11    1  0.8864208E-009  0.4165995E+03  0.7561462E-02  0.9602011E-01
         22   -1    0    0    0    0  0.00000000000E+00  0.00000000000E+00  0.45458780433E+03  0.45458780433E+03  0.00000000000E+00 0. -1.
         22   -1    0    0    0    0 -0.00000000000E+00 -0.00000000000E+00 -0.62700631887E+03  0.62700631887E+03  0.00000000000E+00 0. -1.
         24    2    1    2    0    0  0.20455785251E+03  0.36628032262E+03 -0.30692337754E+03  0.52604155841E+03  0.80700506377E+02 0.  0.
         25    2    1    2    0    0 -0.21998061061E+03 -0.28612716602E+03  0.42133876930E+01  0.38200172375E+03  0.12508932863E+03 0.  0.
        -24    2    1    2    0    0  0.15422758096E+02 -0.80153156605E+02  0.13029147530E+03  0.17355084104E+03  0.80508607678E+02 0.  0.
        -13    1    3    3    0    0  0.84281128320E+02  0.16671600806E+03 -0.88682231616E+02  0.20678992756E+03  0.00000000000E+00 0.  1.
         14    1    3    3    0    0  0.12027672419E+03  0.19956431456E+03 -0.21824114592E+03  0.31925163085E+03  0.00000000000E+00 0. -1.
         13    1    5    5    0    0 -0.24102715471E+02 -0.66102482267E+02  0.97855772885E+02  0.12052481629E+03  0.00000000000E+00 0. -1.
        -14    1    5    5    0    0  0.39525473567E+02 -0.14050674338E+02  0.32435702416E+02  0.53026024754E+02  0.00000000000E+00 0.  1.
          5    1    4    4  501    0 -0.14821433139E+03 -0.17270513148E+03 -0.56652530570E+02  0.23456669007E+03  0.41800000000E+01 0.  1.
         -5    1    4    4    0  501 -0.71766279217E+02 -0.11342203454E+03  0.60865918264E+02  0.14743503369E+03  0.41800000000E+01 0.  1.
</event>
<event>
11    1  0.8864208E-009  0.2162425E+03  0.7561462E-02  0.1043597E+00
         22   -1    0    0    0    0  0.00000000000E+00  0.00000000000E+00  0.46185378196E+03  0.46185378196E+03  0.00000000000E+00 0.  1.
         22   -1    0    0    0    0 -0.00000000000E+00 -0.00000000000E+00 -0.98113341073E+03  0.98113341073E+03  0.00000000000E+00 0. -1.
         24    2    1    2    0    0 -0.12157013985E+03 -0.12366852554E+03 -0.87760274250E+03  0.89809550710E+03  0.79471775578E+02 0.  0.
         25    2    1    2    0    0  0.17099551229E+03  0.17679230528E+03  0.16032295123E+03  0.31913327452E+03  0.12509042245E+03 0.  0.
        -24    2    1    2    0    0 -0.49425372433E+02 -0.53123779740E+02  0.19800016251E+03  0.22575841107E+03  0.80608885367E+02 0.  0.
        -11    1    3    3    0    0 -0.56781350200E+02 -0.95530441606E+02 -0.39442366901E+03  0.40978069462E+03  0.00000000000E+00 0.  1.
         12    1    3    3    0    0 -0.64788789654E+02 -0.28138083938E+02 -0.48317907349E+03  0.48831481248E+03  0.00000000000E+00 0. -1.
         11    1    5    5    0    0  0.35964961648E+01  0.16030293742E+02  0.62761774971E+02  0.64876386302E+02  0.00000000000E+00 0. -1.
        -12    1    5    5    0    0 -0.53021868598E+02 -0.69154073482E+02  0.13523838754E+03  0.16088202477E+03  0.00000000000E+00 0.  1.
          5    1    4    4  501    0  0.63619152210E+02  0.87457091331E+02  0.14147466471E+03  0.17812549651E+03  0.41800000000E+01 0.  1.
         -5    1    4    4    0  501  0.10737636008E+03  0.89335213952E+02  0.18848286512E+02  0.14100777801E+03  0.41800000000E+01 0.  1.
</event>
<event>
11    1  0.8864208E-009  0.1632990E+03  0.7561462E-02  0.1084015E+00
         22   -1    0    0    0    0  0.00000000000E+00  0.00000000000E+00  0.20065141737E+04  0.20065141737E+04  0.00000000000E+00 0.  1.
         22   -1    0    0    0    0 -0.00000000000E+00 -0.00000000000E+00 -0.12857566875E+04  0.12857566875E+04  0.00000000000E+00 0. -1.
        -24    2    1    2    0    0 -0.83755979528E+01 -0.58086761419E+02 -0.12703381365E+04  0.12742565424E+04  0.80786955270E+02 0.  0.
         25    2    1    2    0    0  0.24732105784E+02 -0.60000556255E+02  0.48441883254E+03  0.50450022505E+03  0.12508848046E+03 0.  0.
         24    2    1    2    0    0 -0.16356507831E+02  0.11808731767E+03  0.15066767902E+04  0.15135140939E+04  0.80235978695E+02 0.  0.
        -11    1    5    5    0    0 -0.30477198084E+02  0.65414264854E+02  0.11892112132E+04  0.11913988398E+04  0.00000000000E+00 0.  1.
         12    1    5    5    0    0  0.14120690252E+02  0.52673052821E+02  0.31746557694E+03  0.32211525411E+03  0.00000000000E+00 0. -1.
         11    1    3    3    0    0  0.28158086023E+02 -0.42391391023E+02 -0.96489660282E+03  0.96623773575E+03  0.00000000000E+00 0. -1.
        -12    1    3    3    0    0 -0.36533683976E+02 -0.15695370396E+02 -0.30544153370E+03  0.30801880661E+03  0.00000000000E+00 0.  1.
          5    1    4    4  501    0  0.57059995321E+02 -0.24998186444E+01  0.10723331693E+03  0.12156705483E+03  0.41800000000E+01 0. -1.
         -5    1    4    4    0  501 -0.32327889537E+02 -0.57500737611E+02  0.37718551561E+03  0.38293317022E+03  0.41800000000E+01 0. -1.
</event>
<event>
11    1  0.8864208E-009  0.1425292E+03  0.7561462E-02  0.1104767E+00
         22   -1    0    0    0    0  0.00000000000E+00  0.00000000000E+00  0.12513324830E+04  0.12513324830E+04  0.00000000000E+00 0. -1.
         22   -1    0    0    0    0 -0.00000000000E+00 -0.00000000000E+00 -0.34337217864E+03  0.34337217864E+03  0.00000000000E+00 0.  1.
         24    2    1    2    0    0 -0.18331464187E+02  0.12413717862E+02 -0.30059733545E+03  0.31186218657E+03  0.80056994449E+02 0.  0.
         25    2    1    2    0    0  0.62849753020E+02 -0.62328219450E+02  0.13494285748E+03  0.20417687462E+03  0.12507486938E+03 0.  0.
        -24    2    1    2    0    0 -0.44518288832E+02  0.49914501588E+02  0.10736147823E+04  0.10786656004E+04  0.79984006261E+02 0.  0.
        -11    1    3    3    0    0 -0.31455441333E+02  0.27631168349E+02 -0.27990174693E+03  0.28301574901E+03  0.00000000000E+00 0.  1.
         12    1    3    3    0    0  0.13123977146E+02 -0.15217450487E+02 -0.20695588518E+02  0.28846437554E+02  0.00000000000E+00 0. -1.
         11    1    5    5    0    0 -0.34913119584E+02  0.71168664219E+02  0.90133326560E+03  0.90481244485E+03  0.00000000000E+00 0. -1.
        -12    1    5    5    0    0 -0.96051692483E+01 -0.21254162631E+02  0.17228151670E+03  0.17385315557E+03  0.00000000000E+00 0.  1.
          5    1    4    4  501    0  0.98119059132E+02 -0.45981075977E+02  0.12145015014E+03  0.16281652398E+03  0.41800000000E+01 0.  1.
         -5    1    4    4    0  501 -0.35269306112E+02 -0.16347143473E+02  0.13492707345E+02  0.41360350638E+02  0.41800000000E+01 0.  1.
</event>
<event>
11    1  0.8864208E-009  0.1829436E+03  0.7561462E-02  0.1067286E+00
         22   -1    0    0    0    0  0.00000000000E+00  0.00000000000E+00  0.15437457996E+03  0.15437457996E+03  0.00000000000E+00 0. -1.
         22   -1    0    0    0    0 -0.00000000000E+00 -0.00000000000E+00 -0.54724599128E+03  0.54724599128E+03  0.00000000000E+00 0. -1.
         24    2    1    2    0    0  0.36477414587E+01  0.22993210436E+02 -0.30774175890E+03  0.31886032004E+03  0.80155597342E+02 0.  0.
         25    2    1    2    0    0  0.89580556263E+02  0.79516073206E+02 -0.12906452608E+03  0.21599213279E+03  0.12508983802E+03 0.  0.
        -24    2    1    2    0    0 -0.93228297722E+02 -0.10250928364E+03  0.43934873648E+02  0.16676811841E+03  0.81741442784E+02 0.  0.
        -13    1    3    3    0    0  0.21017478572E+02 -0.23365362502E+02 -0.83488432143E+02  0.89207583042E+02  0.00000000000E+00 0.  1.
         14    1    3    3    0    0 -0.17369737114E+02  0.46358572938E+02 -0.22425332675E+03  0.22965273700E+03  0.00000000000E+00 0. -1.
         13    1    5    5    0    0 -0.88808902356E+02 -0.50807558015E+02  0.51132964726E+02  0.11438098256E+03  0.00000000000E+00 0. -1.
        -14    1    5    5    0    0 -0.44193953657E+01 -0.51701725627E+02 -0.71980910778E+01  0.52387135858E+02  0.00000000000E+00 0.  1.
          5    1    4    4  501    0  0.35018019782E+02  0.35728952967E+02 -0.13657184814E+03  0.14550656993E+03  0.41800000000E+01 0.  1.
         -5    1    4    4    0  501  0.54562536480E+02  0.43787120239E+02  0.75073220651E+01  0.70485562852E+02  0.41800000000E+01 0.  1.
</event>
<event>
11    1  0.8864208E-009  0.1359759E+03  0.7561462E-02  0.1112137E+00
         22   -1    0    0    0    0  0.00000000000E+00  0.00000000000E+00  0.86861597460E+03  0.86861597460E+03  0.00000000000E+00 0. -1.
         22   -1    0    0    0    0 -0.00000000000E+00 -0.00000000000E+00 -0.33539541085E+04  0.33539541085E+04  0.00000000000E+00 0.  1.
        -24    2    1    2    0    0  0.22349251330E+02  0.23064241226E+02 -0.16627885019E+04  0.16650604293E+04  0.80803359630E+02 0.  0.
         25    2    1    2    0    0 -0.53119035103E+02 -0.66528024305E+02 -0.16839737487E+04  0.16907582390E+04  0.12509287219E+03 0.  0.
         24    2    1    2    0    0  0.30769783773E+02  0.43463783080E+02  0.86142411674E+03  0.86675141472E+03  0.79816201254E+02 0.  0.
        -11    1    5    5    0    0 -0.12629987633E+02  0.38427666938E+02  0.20977725084E+03  0.21364151550E+03  0.00000000000E+00 0.  1.
         12    1    5    5    0    0  0.43399771406E+02  0.50361161413E+01  0.65164686589E+03  0.65310989922E+03  0.00000000000E+00 0. -1.
         13    1    3    3    0    0 -0.79781273853E+01  0.22184279598E+02 -0.14010168037E+03  0.14207136805E+03  0.00000000000E+00 0. -1.
        -14    1    3    3    0    0  0.30327378716E+02  0.87996162748E+00 -0.15226868215E+04  0.15229890613E+04  0.00000000000E+00 0.  1.
          5    1    4    4  501    0 -0.74162655129E+02 -0.55034027552E+02 -0.16144940224E+04  0.16171386039E+04  0.41800000000E+01 0.  1.
         -5    1    4    4    0  501  0.21043620026E+02 -0.11493996753E+02 -0.69479726295E+02  0.73619635093E+02  0.41800000000E+01 0.  1.
</event>
<event>
11    1  0.8864208E-009  0.1887558E+03  0.7561462E-02  0.1062773E+00
         22   -1    0    0    0    0  0.00000000000E+00  0.00000000000E+00  0.69520033730E+03  0.69520033730E+03  0.00000000000E+00 0.  1.
         22   -1    0    0    0    0 -0.00000000000E+00 -0.00000000000E+00 -0.57220149292E+03  0.57220149292E+03  0.00000000000E+00 0. -1.
        -24    2    1    2    0    0  0.43232974009E+01 -0.14316343383E+03 -0.50399995916E+03  0.53153296691E+03  0.89425255882E+02 0.  0.
         25    2    1    2    0    0  0.29037156886E+02  0.12099451997E+03  0.10332206103E+03  0.20446673626E+03  0.12509343548E+03 0.  0.
         24    2    1    2    0    0 -0.33360454287E+02  0.22168913857E+02  0.52367674251E+03  0.53140212704E+03  0.80910501963E+02 0.  0.
        -13    1    5    5    0    0  0.10421606695E+01  0.84933290645E+01  0.43782197898E+03  0.43790559258E+03  0.00000000000E+00 0.  1.
         14    1    5    5    0    0 -0.34402614957E+02  0.13675584792E+02  0.85854763533E+02  0.93496534463E+02  0.00000000000E+00 0. -1.
         11    1    3    3    0    0  0.14087128349E+02 -0.15363830461E+03 -0.46866860934E+03  0.49341001329E+03  0.00000000000E+00 0. -1.
        -12    1    3    3    0    0 -0.97638309481E+01  0.10474870784E+02 -0.35331349816E+02  0.38122953618E+02  0.00000000000E+00 0.  1.
          5    1    4    4  501    0  0.51148533640E+02  0.15096383956E+02  0.75774872105E+02  0.92754390433E+02  0.41800000000E+01 0.  1.
         -5    1    4    4    0  501 -0.22111376754E+02  0.10589813601E+03  0.27547188928E+02  0.11171234583E+03  0.41800000000E+01 0.  1.
</event>
<event>
11    1  0.8864208E-009  0.1840713E+03  0.7561462E-02  0.1066396E+00
         22   -1    0    0    0    0  0.00000000000E+00  0.00000000000E+00  0.16734361293E+04  0.16734361293E+04  0.00000000000E+00 0.  1.
         22   -1    0    0    0    0 -0.00000000000E+00 -0.00000000000E+00 -0.13650510027E+03  0.13650510027E+03  0.00000000000E+00 0. -1.
        -24    2    1    2    0    0 -0.34630603950E+02  0.10786228652E+03 -0.29412721663E+01  0.13985499995E+03  0.81958638015E+02 0.  0.
         25    2    1    2    0    0  0.37756034480E+02 -0.21324103906E+03  0.19055211518E+03  0.31441257542E+03  0.12509156688E+03 0.  0.
         24    2    1    2    0    0 -0.31254305299E+01  0.10537875254E+03  0.13493201860E+04  0.13556736542E+04  0.77920745116E+02 0.  0.
        -13    1    5    5    0    0  0.17844181483E+02  0.95846237864E+02  0.80750869657E+03  0.81337273815E+03  0.00000000000E+00 0.  1.
         14    1    5    5    0    0 -0.20969612013E+02  0.95325146788E+01  0.54181148945E+03  0.54230091606E+03  0.00000000000E+00 0. -1.
         13    1    3    3    0    0 -0.35372324898E+00  0.89568737879E+02 -0.27734759921E+02  0.93765136555E+02  0.00000000000E+00 0. -1.
        -14    1    3    3    0    0 -0.34276880701E+02  0.18293548639E+02  0.24793487754E+02  0.46089863391E+02  0.00000000000E+00 0.  1.
          5    1    4    4  501    0 -0.44101603094E+02 -0.78127174461E+02  0.89746985234E+02  0.12696771457E+03  0.41800000000E+01 0.  1.
         -5    1    4    4    0  501  0.81857637574E+02 -0.13511386460E+03  0.10080512995E+03  0.18744486085E+03  0.41800000000E+01 0.  1.
</event>
<event>
11    1  0.8864208E-009  0.1800556E+03  0.7561462E-02  0.1069598E+00
         22   -1    0    0    0    0  0.00000000000E+00  0.00000000000E+00  0.29671851152E+03  0.29671851152E+03  0.00000000000E+00 0. -1.
         22   -1    0    0    0    0 -0.00000000000E+00 -0.00000000000E+00 -0.43183216409E+03  0.43183216409E+03  0.00000000000E+00 0. -1.
        -24    2    1    2    0    0  0.11588483946E+03 -0.64357727700E+02 -0.31877775164E+03  0.35407478808E+03  0.78603355428E+02 0.  0.
         25    2    1    2    0    0 -0.76205976800E+02  0.94421404893E+02  0.76396864754E+01  0.17444052431E+03  0.12509348149E+03 0.  0.
         24    2    1    2    0    0 -0.39678862659E+02 -0.30063677192E+02  0.17602441259E+03  0.20003536321E+03  0.80940199409E+02 0.  0.
        -13    1    5    5    0    0  0.11564429130E+02 -0.31508809160E+02  0.29092856482E+02  0.44417737156E+02  0.00000000000E+00 0.  1.
         14    1    5    5    0    0 -0.51243291788E+02  0.14451319673E+01  0.14693155611E+03  0.15561762606E+03  0.00000000000E+00 0. -1.
         11    1    3    3    0    0  0.46429517604E+01 -0.14739113239E+02 -0.11967178630E+03  0.12066538400E+03  0.00000000000E+00 0. -1.
        -12    1    3    3    0    0  0.11124188770E+03 -0.49618614462E+02 -0.19910596534E+03  0.23340940408E+03  0.00000000000E+00 0.  1.
          5    1    4    4  501    0 -0.56253262958E+02  0.19544404941E+02 -0.49921399919E+02  0.77820510971E+02  0.41800000000E+01 0. -1.
         -5    1    4    4    0  501 -0.19952713842E+02  0.74876999952E+02  0.57561086395E+02  0.96620013343E+02  0.41800000000E+01 0. -1.
</event>
<event>
11    1  0.8864208E-009  0.1354687E+03  0.7561462E-02  0.1112727E+00
         22   -1    0    0    0    0  0.00000000000E+00  0.00000000000E+00  0.33679574509E+04  0.33679574509E+04  0.00000000000E+00 0. -1.
         22   -1    0    0    0    0 -0.00000000000E+00 -0.00000000000E+00 -0.38159478329E+03  0.38159478329E+03  0.00000000000E+00 0. -1.
        -24    2    1    2    0    0 -0.17623183405E+02  0.65891207146E+01 -0.34102256749E+03  0.35092883668E+03  0.80626693935E+02 0.  0.
         25    2    1    2    0    0 -0.31138286554E+02  0.12514334059E+02  0.85194042497E+02  0.15502323923E+03  0.12509187975E+03 0.  0.
         24    2    1    2    0    0  0.48761469959E+02 -0.19103454773E+02  0.32421911926E+04  0.32436001583E+04  0.79972710220E+02 0.  0.
        -11    1    5    5    0    0 -0.52693209008E+01 -0.24414995178E+02  0.34608738209E+03  0.34698751242E+03  0.00000000000E+00 0.  1.
         12    1    5    5    0    0  0.54030790860E+02  0.53115404049E+01  0.28961038105E+04  0.28966126459E+04  0.00000000000E+00 0. -1.
         11    1    3    3    0    0 -0.39264494586E+02 -0.18895217728E+02 -0.12598530953E+03  0.13330801928E+03  0.00000000000E+00 0. -1.
        -12    1    3    3    0    0  0.21641311181E+02  0.25484338443E+02 -0.21503725796E+03  0.21762081740E+03  0.00000000000E+00 0.  1.
          5    1    4    4  501    0 -0.33492783251E+02  0.34877591542E+02  0.11063468878E+03  0.12081274636E+03  0.41800000000E+01 0.  1.
         -5    1    4    4    0  501  0.23544966963E+01 -0.22363257483E+02 -0.25440646278E+02  0.34210492879E+02  0.41800000000E+01 0.  1.
</event>
<event>
11    1  0.8864208E-009  0.1911552E+03  0.7561462E-02  0.1060961E+00
         22   -1    0    0    0    0  0.00000000000E+00  0.00000000000E+00  0.60279417853E+03  0.60279417853E+03  0.00000000000E+00 0.  1.
         22   -1    0    0    0    0 -0.00000000000E+00 -0.00000000000E+00 -0.86691840540E+03  0.86691840540E+03  0.00000000000E+00 0.  1.
        -24    2    1    2    0    0 -0.33591732226E+02  0.47082187685E+02 -0.60277830324E+03  0.61089617994E+03  0.80667979606E+02 0.  0.
         25    2    1    2    0    0  0.10460863839E+03 -0.16988954480E+03 -0.19206736151E+03  0.30387969428E+03  0.12509025775E+03 0.  0.
         24    2    1    2    0    0 -0.71016906166E+02  0.12280735711E+03  0.53072143788E+03  0.55493670970E+03  0.78514070215E+02 0.  0.
        -13    1    5    5    0    0 -0.46385554569E+02  0.12838078908E+03  0.43314288460E+03  0.45414315491E+03  0.00000000000E+00 0.  1.
         14    1    5    5    0    0 -0.24631351597E+02 -0.55734319649E+01  0.97578553285E+02  0.10079355479E+03  0.00000000000E+00 0. -1.
         11    1    3    3    0    0 -0.26437360342E+02  0.55681946868E+02 -0.23505021553E+03  0.24299797746E+03  0.00000000000E+00 0. -1.
        -12    1    3    3    0    0 -0.71543718839E+01 -0.85997591834E+01 -0.36772808771E+03  0.36789820248E+03  0.00000000000E+00 0.  1.
          5    1    4    4  501    0  0.12856026568E+03 -0.16204944801E+03 -0.18456751073E+03  0.27725512426E+03  0.41800000000E+01 0. -1.
         -5    1    4    4    0  501 -0.23951627286E+02 -0.78400967840E+01 -0.74998507796E+01  0.26624570024E+02  0.41800000000E+01 0. -1.
</event>
<event>
11    1  0.8864208E-009  0.1400522E+03  0.7561462E-02  0.1107500E+00
         22   -1    0    0    0    0  0.00000000000E+00  0.00000000000E+00  0.28138607134E+04  0.28138607134E+04  0.00000000000E+00 0. -1.
         22   -1    0    0    0    0 -0.00000000000E+00 -0.00000000000E+00 -0.19179988731E+03  0.19179988731E+03  0.00000000000E+00 0. -1.
         24    2    1    2    0    0  0.22327052437E+02 -0.11293422986E+02 -0.88485060831E+02  0.12364782932E+03  0.82662815286E+02 0.  0.
         25    2    1    2    0    0 -0.46893692237E+02  0.69069013047E+02 -0.18096396984E+02  0.15147087876E+03  0.12508557308E+03 0.  0.
        -24    2    1    2    0    0  0.24566639800E+02 -0.57775590061E+02  0.27286422839E+04  0.27305418926E+04  0.80179643808E+02 0.  0.
        -13    1    3    3    0    0 -0.30369224830E+02 -0.78462822562E+01 -0.20132465335E+02  0.37271572578E+02  0.00000000000E+00 0.  1.
         14    1    3    3    0    0  0.52696277266E+02 -0.34471407295E+01 -0.68352595496E+02  0.86376256737E+02  0.00000000000E+00 0. -1.
         11    1    5    5    0    0  0.35623460906E+02 -0.53027194945E+02  0.26653742491E+04  0.26661396816E+04  0.00000000000E+00 0. -1.
        -12    1    5    5    0    0 -0.11056821106E+02 -0.47483951160E+01  0.63268034838E+02  0.64402210998E+02  0.00000000000E+00 0.  1.
          5    1    4    4  501    0  0.57236264186E+01  0.73407766003E+02  0.30296884086E+02  0.79729753507E+02  0.41800000000E+01 0.  1.
         -5    1    4    4    0  501 -0.52617318656E+02 -0.43387529563E+01 -0.48393281071E+02  0.71741125252E+02  0.41800000000E+01 0.  1.
</event>
<event>
11    1  0.1287278E-008  0.2474021E+03  0.7561462E-02  0.1025292E+00
         22   -1    0    0    0    0  0.00000000000E+00  0.00000000000E+00  0.81456661616E+03  0.81456661616E+03  0.00000000000E+00 0.  1.
         22   -1    0    0    0    0 -0.00000000000E+00 -0.00000000000E+00 -0.25093020421E+04  0.25093020421E+04  0.00000000000E+00 0.  1.
        -24    2    1    2    0    0  0.74693648941E+02 -0.80500706953E+02 -0.16801844326E+04  0.16857832138E+04  0.82376035872E+02 0.  0.
         25    2    1    2    0    0 -0.11955453888E+03  0.28724742262E+03 -0.77510166214E+03  0.84453222309E+03  0.12509084546E+03 0.  0.
         24    2    1    2    0    0  0.44860889937E+02 -0.20674671566E+03  0.76055066880E+03  0.79355322141E+03  0.80825067338E+02 0.  0.
        -11    1    5    5    0    0  0.19925244317E+02 -0.19868890615E+03  0.65256779104E+03  0.68243609128E+03  0.00000000000E+00 0.  1.
         12    1    5    5    0    0  0.24935645620E+02 -0.80578095098E+01  0.10798287776E+03  0.11111713012E+03  0.00000000000E+00 0. -1.
         11    1    3    3    0    0 -0.10498231834E+02 -0.80390565466E+01 -0.53207540749E+03  0.53223968150E+03  0.00000000000E+00 0. -1.
        -12    1    3    3    0    0  0.85191880775E+02 -0.72461650406E+02 -0.11481090251E+04  0.11535435323E+04  0.00000000000E+00 0.  1.
          5    1    4    4  501    0 -0.14527313636E+03  0.22499241187E+03 -0.62011287257E+03  0.67548746596E+03  0.41800000000E+01 0.  1.
         -5    1    4    4    0  501  0.25718597482E+02  0.62255010747E+02 -0.15498878958E+03  0.16904475713E+03  0.41800000000E+01 0.  1.
</event>
<event>
11    1  0.8864208E-009  0.1365657E+03  0.7561462E-02  0.1111455E+00
         22   -1    0    0    0    0  0.00000000000E+00  0.00000000000E+00  0.11031625363E+04  0.11031625363E+04  0.00000000000E+00 0.  1.
         22   -1    0    0    0    0 -0.00000000000E+00 -0.00000000000E+00 -0.26511522612E+03  0.26511522612E+03  0.00000000000E+00 0. -1.
         24    2    1    2    0    0 -0.47402538262E+02  0.30867100911E+02 -0.18581534097E+03  0.21026514437E+03  0.80525222417E+02 0.  0.
         25    2    1    2    0    0  0.46459527386E+02 -0.10201041934E+02  0.29910404858E+01  0.13386185951E+03  0.12508997628E+03 0.  0.
        -24    2    1    2    0    0  0.94301087633E+00 -0.20666058978E+02  0.10208716106E+04  0.10241507585E+04  0.79233550380E+02 0.  0.
        -11    1    3    3    0    0  0.10635828930E+02  0.15632813592E+02 -0.47205879241E+01  0.19488193046E+02  0.00000000000E+00 0.  1.
         12    1    3    3    0    0 -0.58038367192E+02  0.15234287319E+02 -0.18109475304E+03  0.19077695132E+03  0.00000000000E+00 0. -1.
         13    1    5    5    0    0  0.38555813001E+02 -0.17680480770E+02  0.43412376092E+03  0.43619100164E+03  0.00000000000E+00 0. -1.
        -14    1    5    5    0    0 -0.37612802125E+02 -0.29855782079E+01  0.58674784969E+03  0.58795975685E+03  0.00000000000E+00 0.  1.
          5    1    4    4  501    0 -0.42885778934E+02  0.16325377766E+01  0.63057117115E+01  0.43578545347E+02  0.41800000000E+01 0.  1.
         -5    1    4    4    0  501  0.89345306320E+02 -0.11833579710E+02 -0.33146712257E+01  0.90283314159E+02  0.41800000000E+01 0.  1.
</event>
<event>
11    1  0.8864208E-009  0.1946302E+03  0.7561462E-02  0.1058387E+00
         22   -1    0    0    0    0  0.00000000000E+00  0.00000000000E+00  0.65809263914E+03  0.65809263914E+03  0.00000000000E+00 0.  1.
         22   -1    0    0    0    0 -0.00000000000E+00 -0.00000000000E+00 -0.10567297333E+04  0.10567297333E+04  0.00000000000E+00 0.  1.
         24    2    1    2    0    0 -0.87355346326E+02  0.11500104481E+03 -0.79311452687E+03  0.81015809202E+03  0.80431862412E+02 0.  0.
         25    2    1    2    0    0  0.98090285843E+02 -0.14431922935E+03 -0.20639898045E+03  0.29781977091E+03  0.12508530161E+03 0.  0.
        -24    2    1    2    0    0 -0.10734939517E+02  0.29318184531E+02  0.60087641312E+03  0.60684450955E+03  0.78949351260E+02 0.  0.
        -13    1    3    3    0    0 -0.47462332911E+02  0.75607333786E+02 -0.65565919193E+03  0.66170848410E+03  0.00000000000E+00 0.  1.
         14    1    3    3    0    0 -0.39893013415E+02  0.39393711028E+02 -0.13745533495E+03  0.14844960792E+03  0.00000000000E+00 0. -1.
         11    1    5    5    0    0  0.89038887030E+01  0.45657892609E+02  0.20799671090E+03  0.21313506079E+03  0.00000000000E+00 0. -1.
        -12    1    5    5    0    0 -0.19638828220E+02 -0.16339708078E+02  0.39287970221E+03  0.39370944876E+03  0.00000000000E+00 0.  1.
          5    1    4    4  501    0 -0.15469686243E+02 -0.63617563029E+02 -0.27748198646E+02  0.71231597247E+02  0.41800000000E+01 0.  1.
         -5    1    4    4    0  501  0.11355997209E+03 -0.80701666316E+02 -0.17865078180E+03  0.22658817366E+03  0.41800000000E+01 0.  1.
</event>
<event>
11    1  0.8864208E-009  0.1545785E+03  0.7561462E-02  0.1092290E+00
         22   -1    0    0    0    0  0.00000000000E+00  0.00000000000E+00  0.75584046050E+03  0.75584046050E+03  0.00000000000E+00 0. -1.
         22   -1    0    0    0    0 -0.00000000000E+00 -0.00000000000E+00 -0.33673812945E+03  0.33673812945E+03  0.00000000000E+00 0. -1.
        -24    2    1    2    0    0 -0.47914798216E+02 -0.29200305993E+02 -0.26802701875E+03  0.28532733643E+03  0.80154353436E+02 0.  0.
         25    2    1    2    0    0  0.12482236308E+03  0.66156087378E+02  0.11018943461E+03  0.21850964576E+03  0.12508998189E+03 0.  0.
         24    2    1    2    0    0 -0.76907564862E+02 -0.36955781385E+02  0.57693991519E+03  0.58874160776E+03  0.80476777123E+02 0.  0.
        -13    1    5    5    0    0 -0.77185807854E+01 -0.11707083250E+02  0.10460895875E+02  0.17494645754E+02  0.00000000000E+00 0.  1.
         14    1    5    5    0    0 -0.69188984076E+02 -0.25248698135E+02  0.56647901931E+03  0.57124696200E+03  0.00000000000E+00 0. -1.
         11    1    3    3    0    0 -0.47333080969E+02 -0.51806579975E+02 -0.23534671908E+03  0.24558587187E+03  0.00000000000E+00 0. -1.
        -12    1    3    3    0    0 -0.58171724732E+00  0.22606273982E+02 -0.32680299672E+02  0.39741464555E+02  0.00000000000E+00 0.  1.
          5    1    4    4  501    0  0.78163656757E+02  0.29719857928E+02 -0.10141465980E+02  0.84339486156E+02  0.41800000000E+01 0. -1.
         -5    1    4    4    0  501  0.46658706321E+02  0.36436229449E+02  0.12033090059E+03  0.13417015961E+03  0.41800000000E+01 0. -1.
</event>
<event>
11    1  0.8864208E-009  0.2457922E+03  0.7561462E-02  0.1026165E+00
         22   -1    0    0    0    0  0.00000000000E+00  0.00000000000E+00  0.33629109113E+03  0.33629109113E+03  0.00000000000E+00 0. -1.
         22   -1    0    0    0    0 -0.00000000000E+00 -0.00000000000E+00 -0.36602211914E+03  0.36602211914E+03  0.00000000000E+00 0. -1.
        -24    2    1    2    0    0 -0.12556094123E+03  0.15337517334E+03 -0.10217940224E+03  0.23687484738E+03  0.79872206172E+02 0.  0.
         25    2    1    2    0    0  0.24189339097E+03 -0.93819335479E+02 -0.15291966885E+02  0.28843520801E+03  0.12508614898E+03 0.  0.
         24    2    1    2    0    0 -0.11633244974E+03 -0.59555837856E+02  0.87740341111E+02  0.17700315488E+03  0.80942032922E+02 0.  0.
        -11    1    5    5    0    0 -0.60093623622E+01 -0.41045841233E+02  0.29346121968E+02  0.50814057043E+02  0.00000000000E+00 0.  1.
         12    1    5    5    0    0 -0.11032308738E+03 -0.18509996622E+02  0.58394219143E+02  0.12618909784E+03  0.00000000000E+00 0. -1.
         11    1    3    3    0    0 -0.11409209383E+03  0.10714076322E+03 -0.45821402889E+02  0.16308203451E+03  0.00000000000E+00 0. -1.
        -12    1    3    3    0    0 -0.11468847401E+02  0.46234410119E+02 -0.56357999352E+02  0.73792812866E+02  0.00000000000E+00 0.  1.
          5    1    4    4  501    0  0.32572713705E+02 -0.68868729147E+02 -0.14089819043E+02  0.77587878777E+02  0.41800000000E+01 0. -1.
         -5    1    4    4    0  501  0.20932067727E+03 -0.24950606332E+02 -0.12021478423E+01  0.21084732924E+03  0.41800000000E+01 0. -1.
</event>
<event>
11    1  0.8864208E-009  0.1563677E+03  0.7561462E-02  0.1090544E+00
         22   -1    0    0    0    0  0.00000000000E+00  0.00000000000E+00  0.10713579170E+04  0.10713579170E+04  0.00000000000E+00 0.  1.
         22   -1    0    0    0    0 -0.00000000000E+00 -0.00000000000E+00 -0.27208767655E+03  0.27208767655E+03  0.00000000000E+00 0.  1.
        -24    2    1    2    0    0 -0.69341716187E-01 -0.91133908156E+02 -0.20447786896E+03  0.23955451027E+03  0.85262949006E+02 0.  0.
         25    2    1    2    0    0 -0.76846952539E+02  0.12143713060E+03  0.15036830564E+03  0.24271593323E+03  0.12509183066E+03 0.  0.
         24    2    1    2    0    0  0.76916294255E+02 -0.30303222448E+02  0.85337980377E+03  0.86117515005E+03  0.80815518153E+02 0.  0.
        -13    1    5    5    0    0  0.92592172926E+02 -0.20683861317E+02  0.63856836403E+03  0.64557779403E+03  0.00000000000E+00 0.  1.
         14    1    5    5    0    0 -0.15675878671E+02 -0.96193611310E+01  0.21481143974E+03  0.21559735602E+03  0.00000000000E+00 0. -1.
         13    1    3    3    0    0  0.18806736840E+02 -0.40122057948E+02 -0.22647918847E+02  0.49763451575E+02  0.00000000000E+00 0. -1.
        -14    1    3    3    0    0 -0.18876078557E+02 -0.51011850208E+02 -0.18182995011E+03  0.18979105870E+03  0.00000000000E+00 0.  1.
          5    1    4    4  501    0 -0.20003309574E+02  0.50511108129E+01  0.10238225837E+03  0.10452389843E+03  0.41800000000E+01 0.  1.
         -5    1    4    4    0  501 -0.56843642965E+02  0.11638601979E+03  0.47986047269E+02  0.13819203480E+03  0.41800000000E+01 0.  1.
</event>
<event>
11    1  0.8864208E-009  0.1333747E+03  0.7561462E-02  0.1115191E+00
         22   -1    0    0    0    0  0.00000000000E+00  0.00000000000E+00  0.46403037912E+03  0.46403037912E+03  0.00000000000E+00 0.  1.
         22   -1    0    0    0    0 -0.00000000000E+00 -0.00000000000E+00 -0.95645158332E+03  0.95645158332E+03  0.00000000000E+00 0.  1.
         24    2    1    2    0    0 -0.55559863001E+01  0.87901370642E+01 -0.90332447979E+03  0.90685036771E+03  0.79210719877E+02 0.  0.
         25    2    1    2    0    0 -0.33462546822E+02  0.18121850341E+02  0.49045838967E+02  0.13964694113E+03  0.12509048864E+03 0.  0.
        -24    2    1    2    0    0  0.39018533122E+02 -0.26911987405E+02  0.36185743662E+03  0.37398465360E+03  0.81713008145E+02 0.  0.
        -11    1    3    3    0    0 -0.35992259267E+02  0.23994015622E+02 -0.61636875111E+03  0.61788477312E+03  0.00000000000E+00 0.  1.
         12    1    3    3    0    0  0.30436272967E+02 -0.15203878558E+02 -0.28695572867E+03  0.28896559459E+03  0.00000000000E+00 0. -1.
         13    1    5    5    0    0  0.59205613541E+02 -0.34915254245E+02  0.22037043166E+03  0.23084086900E+03  0.00000000000E+00 0. -1.
        -14    1    5    5    0    0 -0.20187080419E+02  0.80032668398E+01  0.14148700496E+03  0.14314378459E+03  0.00000000000E+00 0.  1.
          5    1    4    4  501    0 -0.61095516819E+02  0.31656549878E+02 -0.13104301243E+02  0.70171179530E+02  0.41800000000E+01 0. -1.
         -5    1    4    4    0  501  0.27632969996E+02 -0.13534699537E+02  0.62150140209E+02  0.69475761604E+02  0.41800000000E+01 0. -1.
</event>
<event>
11    1  0.8864208E-009  0.1392379E+03  0.7561462E-02  0.1108412E+00
         22   -1    0    0    0    0  0.00000000000E+00  0.00000000000E+00  0.73229543225E+03  0.73229543225E+03  0.00000000000E+00 0.  1.
         22   -1    0    0    0    0 -0.00000000000E+00 -0.00000000000E+00 -0.73341037772E+02  0.73341037772E+02  0.00000000000E+00 0. -1.
        -24    2    1    2    0    0  0.37636705071E+02 -0.22471494658E+01  0.26955194092E+01  0.94093644940E+02  0.86167145385E+02 0.  0.
         25    2    1    2    0    0 -0.80310533959E+02 -0.32848802883E+02  0.24175000794E+03  0.28569181410E+03  0.12509164876E+03 0.  0.
         24    2    1    2    0    0  0.42673828888E+02  0.35095952349E+02  0.41450886713E+03  0.42585101099E+03  0.80490378823E+02 0.  0.
        -11    1    5    5    0    0  0.23342175345E+02  0.47732527523E+02  0.13046895934E+03  0.14087370473E+03  0.00000000000E+00 0.  1.
         12    1    5    5    0    0  0.19331653542E+02 -0.12636575175E+02  0.28403990780E+03  0.28497730626E+03  0.00000000000E+00 0. -1.
         11    1    3    3    0    0  0.91854821921E+00 -0.32280881829E+01 -0.38646128681E+02  0.38791591179E+02  0.00000000000E+00 0. -1.
        -12    1    3    3    0    0  0.36718156852E+02  0.98093871713E+00  0.41341648090E+02  0.55302053761E+02  0.00000000000E+00 0.  1.
          5    1    4    4  501    0  0.81273692216E+01 -0.35408806958E+02  0.16338613851E+03  0.16742861284E+03  0.41800000000E+01 0. -1.
         -5    1    4    4    0  501 -0.88437903180E+02  0.25600040752E+01  0.78363869430E+02  0.11826320126E+03  0.41800000000E+01 0. -1.
</event>
<event>
11    1  0.8864208E-009  0.1557293E+03  0.7561462E-02  0.1091164E+00
         22   -1    0    0    0    0  0.00000000000E+00  0.00000000000E+00  0.27510669715E+03  0.27510669715E+03  0.00000000000E+00 0. -1.
         22   -1    0    0    0    0 -0.00000000000E+00 -0.00000000000E+00 -0.17374248038E+04  0.17374248038E+04  0.00000000000E+00 0. -1.
        -24    2    1    2    0    0  0.20495390802E+02  0.27009755294E+02 -0.15954697840E+04  0.15985587441E+04  0.93362940143E+02 0.  0.
         25    2    1    2    0    0  0.24408858864E+02  0.58587413670E+02 -0.84336397530E+02  0.16367310813E+03  0.12509189000E+03 0.  0.
         24    2    1    2    0    0 -0.44904249665E+02 -0.85597168964E+02  0.21748807492E+03  0.25029964874E+03  0.77495706043E+02 0.  0.
        -13    1    5    5    0    0  0.20767624438E+02 -0.88043435633E+01  0.46628288021E+02  0.51797759933E+02  0.00000000000E+00 0.  1.
         14    1    5    5    0    0 -0.65671874103E+02 -0.76792825401E+02  0.17085978690E+03  0.19850188881E+03  0.00000000000E+00 0. -1.
         11    1    3    3    0    0  0.40333255877E+02  0.52595558211E+02 -0.11555037315E+04  0.11574031008E+04  0.00000000000E+00 0. -1.
        -12    1    3    3    0    0 -0.19837865075E+02 -0.25585802917E+02 -0.43996605250E+03  0.44115564323E+03  0.00000000000E+00 0.  1.
          5    1    4    4  501    0  0.62875762451E+02  0.72461634605E+02 -0.74147904845E+02  0.12132367529E+03  0.41800000000E+01 0.  1.
         -5    1    4    4    0  501 -0.38466903587E+02 -0.13874220935E+02 -0.10188492685E+02  0.42349432834E+02  0.41800000000E+01 0.  1.
</event>
<event>
11    1  0.8864208E-009  0.1852353E+03  0.7561462E-02  0.1065485E+00
         22   -1    0    0    0    0  0.00000000000E+00  0.00000000000E+00  0.14992326460E+03  0.14992326460E+03  0.00000000000E+00 0. -1.
         22   -1    0    0    0    0 -0.00000000000E+00 -0.00000000000E+00 -0.48366638267E+03  0.48366638267E+03  0.00000000000E+00 0.  1.
        -24    2    1    2    0    0  0.82768876158E+02  0.11412339228E+03 -0.26288962082E+03  0.30949835747E+03  0.82482998325E+02 0.  0.
         25    2    1    2    0    0 -0.10633910443E+03 -0.78049805157E+02 -0.12211960511E+03  0.21900097976E+03  0.12509378070E+03 0.  0.
         24    2    1    2    0    0  0.23570228267E+02 -0.36073587127E+02  0.51266107861E+02  0.10509031003E+03  0.80987036605E+02 0.  0.
        -13    1    5    5    0    0 -0.24551635628E+02 -0.23159280304E+01 -0.33066672881E+01  0.24881325994E+02  0.00000000000E+00 0.  1.
         14    1    5    5    0    0  0.48121863896E+02 -0.33757659097E+02  0.54572775149E+02  0.80208984036E+02  0.00000000000E+00 0. -1.
         13    1    3    3    0    0  0.79564245853E+02  0.57075707496E+02 -0.11549991308E+03  0.15142105377E+03  0.00000000000E+00 0. -1.
        -14    1    3    3    0    0  0.32046303052E+01  0.57047684789E+02 -0.14738970775E+03  0.15807730370E+03  0.00000000000E+00 0.  1.
          5    1    4    4  501    0  0.70829297274E+01  0.24744480505E+02 -0.58280186854E+01  0.26718821284E+02  0.41800000000E+01 0.  1.
         -5    1    4    4    0  501 -0.11342203415E+03 -0.10279428566E+03 -0.11629158642E+03  0.19228215848E+03  0.41800000000E+01 0.  1.
</event>
<event>
11    1  0.8864208E-009  0.1311151E+03  0.7561462E-02  0.1117906E+00
         22   -1    0    0    0    0  0.00000000000E+00  0.00000000000E+00  0.22417834255E+03  0.22417834255E+03  0.00000000000E+00 0.  1.
         22   -1    0    0    0    0 -0.00000000000E+00 -0.00000000000E+00 -0.45109324897E+03  0.45109324897E+03  0.00000000000E+00 0.  1.
        -24    2    1    2    0    0  0.32035165614E+02 -0.16894978120E+01 -0.38969609716E+03  0.39923438783E+03  0.80597407162E+02 0.  0.
         25    2    1    2    0    0 -0.92874725263E+01  0.39075236255E+02  0.93917861827E+02  0.16149057331E+03  0.12508201015E+03 0.  0.
         24    2    1    2    0    0 -0.22747693087E+02 -0.37385738443E+02  0.68863328924E+02  0.11454663038E+03  0.80396650938E+02 0.  0.
        -11    1    5    5    0    0 -0.45059248871E+02 -0.12071699559E+01  0.52003498788E+02  0.68819743201E+02  0.00000000000E+00 0.  1.
         12    1    5    5    0    0  0.22311555783E+02 -0.36178568487E+02  0.16859830137E+02  0.45726887183E+02  0.00000000000E+00 0. -1.
         11    1    3    3    0    0  0.13945560070E+02 -0.42598279260E+01 -0.71287148814E+01  0.16230938220E+02  0.00000000000E+00 0. -1.
        -12    1    3    3    0    0  0.18089605543E+02  0.25703301139E+01 -0.38256738228E+03  0.38300344961E+03  0.00000000000E+00 0.  1.
          5    1    4    4  501    0 -0.42488342082E+02 -0.28472330726E+02  0.59646908619E+02  0.78683917910E+02  0.41800000000E+01 0. -1.
         -5    1    4    4    0  501  0.33200869555E+02  0.67547566980E+02  0.34270953209E+02  0.82806655397E+02  0.41800000000E+01 0. -1.
</event>
<event>
11    1  0.8864208E-009  0.1340201E+03  0.7561462E-02  0.1114426E+00
         22   -1    0    0    0    0  0.00000000000E+00  0.00000000000E+00  0.73411837281E+02  0.73411837281E+02  0.00000000000E+00 0.  1.
         22   -1    0    0    0    0 -0.00000000000E+00 -0.00000000000E+00 -0.16777110892E+04  0.16777110892E+04  0.00000000000E+00 0.  1.
        -24    2    1    2    0    0  0.20099178676E+02  0.34298418439E+02 -0.12620571502E+04  0.12655351847E+04  0.84915810472E+02 0.  0.
         25    2    1    2    0    0 -0.55187118183E+02 -0.58793272039E+02 -0.33823979459E+03  0.36953646272E+03  0.12509505101E+03 0.  0.
         24    2    1    2    0    0  0.35087939508E+02  0.24494853599E+02 -0.40023071643E+01  0.11605127909E+03  0.10779944139E+03 0.  0.
        -11    1    5    5    0    0  0.22306198767E+01  0.97426658884E+01  0.50083182134E+02  0.51070738553E+02  0.00000000000E+00 0.  1.
         12    1    5    5    0    0  0.32857319631E+02  0.14752187711E+02 -0.54085489299E+02  0.64980540535E+02  0.00000000000E+00 0. -1.
         13    1    3    3    0    0 -0.29210044544E+02  0.24263683620E+01 -0.23830367635E+03  0.24009947132E+03  0.00000000000E+00 0. -1.
        -14    1    3    3    0    0  0.49309223220E+02  0.31872050078E+02 -0.10237534738E+04  0.10254357134E+04  0.00000000000E+00 0.  1.
          5    1    4    4  501    0 -0.65036710695E+02 -0.71750537813E+02 -0.13826418482E+03  0.16885606480E+03  0.41800000000E+01 0.  1.
         -5    1    4    4    0  501  0.98495925112E+01  0.12957265775E+02 -0.19997560977E+03  0.20068039792E+03  0.41800000000E+01 0.  1.
</event>
<event>
11    1  0.8864208E-009  0.1398019E+03  0.7561462E-02  0.1107780E+00
         22   -1    0    0    0    0  0.00000000000E+00  0.00000000000E+00  0.29007203931E+04  0.29007203931E+04  0.00000000000E+00 0. -1.
         22   -1    0    0    0    0 -0.00000000000E+00 -0.00000000000E+00 -0.67207685485E+02  0.67207685485E+02  0.00000000000E+00 0.  1.
        -24    2    1    2    0    0 -0.43943257053E+02  0.44626973538E+02 -0.17305371262E+02  0.10358444523E+03  0.80670222584E+02 0.  0.
         25    2    1    2    0    0  0.12214064990E+02 -0.68778262503E+02  0.88852801573E+03  0.90000524221E+03  0.12509104077E+03 0.  0.
         24    2    1    2    0    0  0.31729192064E+02  0.24151288965E+02  0.19622900631E+04  0.19643383911E+04  0.80330546077E+02 0.  0.
        -13    1    5    5    0    0 -0.22821309756E+02  0.23733377545E+02  0.96044633684E+03  0.96101053653E+03  0.00000000000E+00 0.  1.
         14    1    5    5    0    0  0.54550501820E+02  0.41791141973E+00  0.10018437263E+04  0.10033278546E+04  0.00000000000E+00 0. -1.
         11    1    3    3    0    0 -0.50953439144E+02 -0.12450183526E+01  0.65832205938E+01  0.51392040479E+02  0.00000000000E+00 0. -1.
        -12    1    3    3    0    0  0.70101820900E+01  0.45871991891E+02 -0.23888591855E+02  0.52192404752E+02  0.00000000000E+00 0.  1.
          5    1    4    4  501    0 -0.25627738655E+02 -0.89743984354E+02  0.46777093682E+03  0.47700931380E+03  0.41800000000E+01 0.  1.
         -5    1    4    4    0  501  0.37841803645E+02  0.20965721851E+02  0.42075707891E+03  0.42299592841E+03  0.41800000000E+01 0.  1.
</event>
<event>
11    1  0.8864208E-009  0.2096782E+03  0.7561462E-02  0.1047883E+00
         22   -1    0    0    0    0  0.00000000000E+00  0.00000000000E+00  0.13123143444E+04  0.13123143444E+04  0.00000000000E+00 0.  1.
         22   -1    0    0    0    0 -0.00000000000E+00 -0.00000000000E+00 -0.19987794570E+03  0.19987794570E+03  0.00000000000E+00 0.  1.
        -24    2    1    2    0    0  0.95009677024E+02  0.14103059404E+03 -0.92669994707E+02  0.20887446471E+03  0.78258206635E+02 0.  0.
         25    2    1    2    0    0 -0.13006793498E+03 -0.10501122856E+03  0.18572704363E+03  0.27943922368E+03  0.12508684648E+03 0.  0.
         24    2    1    2    0    0  0.35058257956E+02 -0.36019365480E+02  0.10193793498E+04  0.10238786017E+04  0.81649593579E+02 0.  0.
        -13    1    5    5    0    0  0.13669755304E+02 -0.19242473249E+02  0.93353047748E+03  0.93382883194E+03  0.00000000000E+00 0.  1.
         14    1    5    5    0    0  0.21388502652E+02 -0.16776892231E+02  0.85848872278E+02  0.90049769739E+02  0.00000000000E+00 0. -1.
         13    1    3    3    0    0 -0.82772194009E+01  0.19560883078E+01  0.51378397800E+01  0.99366010327E+01  0.00000000000E+00 0. -1.
        -14    1    3    3    0    0  0.10328689642E+03  0.13907450573E+03 -0.97807834487E+02  0.19893786368E+03  0.00000000000E+00 0.  1.
          5    1    4    4  501    0 -0.12422146969E+02 -0.24829485778E+02  0.11878783261E+03  0.12206078270E+03  0.41800000000E+01 0.  1.
         -5    1    4    4    0  501 -0.11764578801E+03 -0.80181742780E+02  0.66939211026E+02  0.15737844098E+03  0.41800000000E+01 0.  1.
</event>
<event>
11    1  0.2626439E-008  0.1779246E+03  0.7561462E-02  0.1071334E+00
         22   -1    0    0    0    0  0.00000000000E+00  0.00000000000E+00  0.11099427839E+04  0.11099427839E+04  0.00000000000E+00 0. -1.
         22   -1    0    0    0    0 -0.00000000000E+00 -0.00000000000E+00 -0.42003506294E+03  0.42003506294E+03  0.00000000000E+00 0. -1.
        -24    2    1    2    0    0 -0.19279998297E+02 -0.67227939040E+00 -0.28253176245E+03  0.29436305759E+03  0.80332076963E+02 0.  0.
         25    2    1    2    0    0  0.14011648781E+02  0.12709321065E+03 -0.62738556501E+02  0.18956009238E+03  0.12509153311E+03 0.  0.
         24    2    1    2    0    0  0.52683495165E+01 -0.12642093126E+03  0.10351780399E+04  0.10460546969E+04  0.81405449456E+02 0.  0.
        -11    1    5    5    0    0 -0.29342768383E+02 -0.24627700130E+02  0.17249788107E+03  0.17670042627E+03  0.00000000000E+00 0.  1.
         12    1    5    5    0    0  0.34611117900E+02 -0.10179323113E+03  0.86268015882E+03  0.86935427060E+03  0.00000000000E+00 0. -1.
         13    1    3    3    0    0  0.11661877269E+02 -0.33435616260E+02 -0.92130327533E+02  0.98701251600E+02  0.00000000000E+00 0. -1.
        -14    1    3    3    0    0 -0.30941875566E+02  0.32763336870E+02 -0.19040143491E+03  0.19566180599E+03  0.00000000000E+00 0.  1.
          5    1    4    4  501    0 -0.73028506409E+01  0.12963069189E+03 -0.87423700480E+02  0.15658168383E+03  0.41800000000E+01 0.  1.
         -5    1    4    4    0  501  0.21314499422E+02 -0.25374812376E+01  0.24685143979E+02  0.32978408541E+02  0.41800000000E+01 0.  1.
</event>
<event>
11    1  0.8864208E-009  0.2259400E+03  0.7561462E-02  0.1037559E+00
         22   -1    0    0    0    0  0.00000000000E+00  0.00000000000E+00  0.74834190841E+03  0.74834190841E+03  0.00000000000E+00 0.  1.
         22   -1    0    0    0    0 -0.00000000000E+00 -0.00000000000E+00 -0.62590191297E+03  0.62590191297E+03  0.00000000000E+00 0. -1.
        -24    2    1    2    0    0 -0.13610316399E+03 -0.13149610138E+03 -0.54545833230E+03  0.58293310209E+03  0.80441987267E+02 0.  0.
         25    2    1    2    0    0  0.40821525564E+02  0.20098795591E+03  0.23891295745E+03  0.33880756871E+03  0.12509441237E+03 0.  0.
         24    2    1    2    0    0  0.95281638426E+02 -0.69491854532E+02  0.42898537030E+03  0.45250315058E+03  0.82601119198E+02 0.  0.
        -11    1    5    5    0    0  0.65415104056E+02 -0.77254385987E+02  0.38922085721E+03  0.40216943156E+03  0.00000000000E+00 0.  1.
         12    1    5    5    0    0  0.29866534370E+02  0.77625314551E+01  0.39764513082E+02  0.50333719021E+02  0.00000000000E+00 0. -1.
         11    1    3    3    0    0 -0.12881037546E+03 -0.14261884991E+03 -0.50415027728E+03  0.53953660789E+03  0.00000000000E+00 0. -1.
        -12    1    3    3    0    0 -0.72927885317E+01  0.11122748529E+02 -0.41308055021E+02  0.43396494202E+02  0.00000000000E+00 0.  1.
          5    1    4    4  501    0  0.48011199388E+02  0.12274611845E+03  0.63092611489E+02  0.14618424979E+03  0.41800000000E+01 0.  1.
         -5    1    4    4    0  501 -0.71896738237E+01  0.78241837463E+02  0.17582034596E+03  0.19262331892E+03  0.41800000000E+01 0.  1.
</event>
<event>
11    1  0.8864208E-009  0.1946919E+03  0.7561462E-02  0.1058342E+00
         22   -1    0    0    0    0  0.00000000000E+00  0.00000000000E+00  0.14495149515E+04  0.14495149515E+04  0.00000000000E+00 0. -1.
         22   -1    0    0    0    0 -0.00000000000E+00 -0.00000000000E+00 -0.14172172505E+04  0.14172172505E+04  0.00000000000E+00 0. -1.
         24    2    1    2    0    0  0.68879655837E+02 -0.37032101778E+02 -0.13590928809E+04  0.13637150690E+04  0.80433493591E+02 0.  0.
         25    2    1    2    0    0  0.73091164985E+01  0.16544305566E+03  0.16530803691E+03  0.26532752744E+03  0.12508845631E+03 0.  0.
        -24    2    1    2    0    0 -0.76188772336E+02 -0.12841095388E+03  0.12260825450E+04  0.12376896055E+04  0.79391752658E+02 0.  0.
        -13    1    3    3    0    0  0.10245570004E+02  0.16574545822E+02 -0.87525717335E+02  0.89668492063E+02  0.00000000000E+00 0.  1.
         14    1    3    3    0    0  0.58634085833E+02 -0.53606647600E+02 -0.12715671636E+04  0.12740465769E+04  0.00000000000E+00 0. -1.
         11    1    5    5    0    0 -0.59255291527E+02 -0.38752121664E+02  0.36636977838E+03  0.37314840348E+03  0.00000000000E+00 0. -1.
        -12    1    5    5    0    0 -0.16933480809E+02 -0.89658832217E+02  0.85971276661E+03  0.86454120205E+03  0.00000000000E+00 0.  1.
          5    1    4    4  501    0  0.50021140471E+02  0.33165526123E+02  0.18114686474E+02  0.62830572838E+02  0.41800000000E+01 0.  1.
         -5    1    4    4    0  501 -0.42712023973E+02  0.13227752954E+03  0.14719335044E+03  0.20249695461E+03  0.41800000000E+01 0.  1.
</event>
<event>
11    1  0.8864208E-009  0.1522174E+03  0.7561462E-02  0.1094634E+00
         22   -1    0    0    0    0  0.00000000000E+00  0.00000000000E+00  0.89549018830E+03  0.89549018830E+03  0.00000000000E+00 0.  1.
         22   -1    0    0    0    0 -0.00000000000E+00 -0.00000000000E+00 -0.34746768891E+03  0.34746768891E+03  0.00000000000E+00 0. -1.
        -24    2    1    2    0    0  0.79946812780E+02  0.23291263175E+02 -0.18513015506E+03  0.21829692541E+03  0.80289460828E+02 0.  0.
         25    2    1    2    0    0 -0.80984230140E+02 -0.59211485441E+02 -0.98637681485E+02  0.18825240385E+03  0.12508049331E+03 0.  0.
         24    2    1    2    0    0  0.10374173602E+01  0.35920222266E+02  0.83179033593E+03  0.83640854794E+03  0.80079694832E+02 0.  0.
        -11    1    5    5    0    0  0.27526863043E+02 -0.41103947073E-04  0.58280386254E+03  0.58345357175E+03  0.00000000000E+00 0.  1.
         12    1    5    5    0    0 -0.26489445683E+02  0.35920263370E+02  0.24898647339E+03  0.25295497620E+03  0.00000000000E+00 0. -1.
         11    1    3    3    0    0  0.70822123515E+02 -0.17336494828E+02 -0.10275677818E+03  0.12599715352E+03  0.00000000000E+00 0. -1.
        -12    1    3    3    0    0  0.91246892650E+01  0.40627758003E+02 -0.82373376872E+02  0.92299771895E+02  0.00000000000E+00 0.  1.
          5    1    4    4  501    0  0.24907992842E+02 -0.44415812152E+02 -0.47074010033E+02  0.69473788562E+02  0.41800000000E+01 0. -1.
         -5    1    4    4    0  501 -0.10589222298E+03 -0.14795673290E+02 -0.51563671452E+02  0.11877861529E+03  0.41800000000E+01 0. -1.
</event>
<event>
11    1  0.1062921E-008  0.1733689E+03  0.7561462E-02  0.1075137E+00
         22   -1    0    0    0    0  0.00000000000E+00  0.00000000000E+00  0.89645138499E+03  0.89645138499E+03  0.00000000000E+00 0.  1.
         22   -1    0    0    0    0 -0.00000000000E+00 -0.00000000000E+00 -0.73121002756E+03  0.73121002756E+03  0.00000000000E+00 0. -1.
        -24    2    1    2    0    0 -0.78818016418E+02 -0.25094653868E+02 -0.63295475965E+03  0.64338700200E+03  0.80455485918E+02 0.  0.
         25    2    1    2    0    0  0.67717549817E+01  0.12330013191E+03  0.30784703981E+01  0.17580147889E+03  0.12509158167E+03 0.  0.
         24    2    1    2    0    0  0.72046261437E+02 -0.98205478043E+02  0.79511764667E+03  0.80847293166E+03  0.81126009878E+02 0.  0.
        -13    1    5    5    0    0  0.71800450892E+02 -0.34945735164E+02  0.52555888016E+03  0.53159067492E+03  0.00000000000E+00 0.  1.
         14    1    5    5    0    0  0.24581054460E+00 -0.63259742879E+02  0.26955876651E+03  0.27688225674E+03  0.00000000000E+00 0. -1.
         11    1    3    3    0    0 -0.41728043490E+02 -0.50705940198E+02 -0.45963197032E+03  0.46429933247E+03  0.00000000000E+00 0. -1.
        -12    1    3    3    0    0 -0.37089972928E+02  0.25611286330E+02 -0.17332278932E+03  0.17908766953E+03  0.00000000000E+00 0.  1.
          5    1    4    4  501    0 -0.81901904840E+01  0.34433377048E+02  0.59528105684E+02  0.69381585752E+02  0.41800000000E+01 0.  1.
         -5    1    4    4    0  501  0.14961945466E+02  0.88866754863E+02 -0.56449635286E+02  0.10641989314E+03  0.41800000000E+01 0.  1.
</event>
<event>
11    1  0.8864208E-009  0.1576123E+03  0.7561462E-02  0.1089345E+00
         22   -1    0    0    0    0  0.00000000000E+00  0.00000000000E+00  0.45258514039E+03  0.45258514039E+03  0.00000000000E+00 0.  1.
         22   -1    0    0    0    0 -0.00000000000E+00 -0.00000000000E+00 -0.22478965911E+03  0.22478965911E+03  0.00000000000E+00 0. -1.
         24    2    1    2    0    0  0.27312985697E+02 -0.17891868469E+02 -0.14624927261E+03  0.17063391557E+03  0.81614736760E+02 0.  0.
         25    2    1    2    0    0  0.36044708823E+02 -0.61617892728E+02  0.42292066927E+02  0.15011589282E+03  0.12510066592E+03 0.  0.
        -24    2    1    2    0    0 -0.63357694520E+02  0.79509761197E+02  0.33175268696E+03  0.35662499111E+03  0.82374385588E+02 0.  0.
        -13    1    3    3    0    0 -0.38019201418E+01 -0.35307330995E+02 -0.22949287584E+02  0.42281580142E+02  0.00000000000E+00 0.  1.
         14    1    3    3    0    0  0.31114905839E+02  0.17415462526E+02 -0.12329998503E+03  0.12835233542E+03  0.00000000000E+00 0. -1.
         11    1    5    5    0    0 -0.11612893847E+02 -0.40480919281E-01  0.15981825450E+03  0.16023961874E+03  0.00000000000E+00 0. -1.
        -12    1    5    5    0    0 -0.51744800673E+02  0.79550242116E+02  0.17193443246E+03  0.19638537238E+03  0.00000000000E+00 0.  1.
          5    1    4    4  501    0  0.79148444313E+01  0.32381334197E+02 -0.14587777416E+02  0.36626100212E+02  0.41800000000E+01 0.  1.
         -5    1    4    4    0  501  0.28129864392E+02 -0.93999226925E+02  0.56879844344E+02  0.11348979261E+03  0.41800000000E+01 0.  1.
</event>
<event>
11    1  0.8864208E-009  0.1260696E+03  0.7561462E-02  0.1124195E+00
         22   -1    0    0    0    0  0.00000000000E+00  0.00000000000E+00  0.18871289082E+04  0.18871289082E+04  0.00000000000E+00 0.  1.
         22   -1    0    0    0    0 -0.00000000000E+00 -0.00000000000E+00 -0.94994270958E+02  0.94994270958E+02  0.00000000000E+00 0. -1.
        -24    2    1    2    0    0  0.10519572160E+02 -0.10366012273E+02 -0.58420432054E+02  0.10296582975E+03  0.83491913415E+02 0.  0.
         25    2    1    2    0    0 -0.12903684716E+02  0.27151160139E+02  0.30158407071E+03  0.32787879872E+03  0.12509142403E+03 0.  0.
         24    2    1    2    0    0  0.23841125554E+01 -0.16785147865E+02  0.15489709985E+04  0.15512785507E+04  0.82864722232E+02 0.  0.
        -13    1    5    5    0    0 -0.34890148415E+02 -0.22803103107E+02  0.54216705982E+03  0.54376688454E+03  0.00000000000E+00 0.  1.
         14    1    5    5    0    0  0.37274260970E+02  0.60179552417E+01  0.10068039387E+04  0.10075116661E+04  0.00000000000E+00 0. -1.
         13    1    3    3    0    0  0.55324900816E+01 -0.40695798305E+01 -0.79816671348E+02  0.80111615585E+02  0.00000000000E+00 0. -1.
        -14    1    3    3    0    0  0.49870820785E+01 -0.62964324428E+01  0.21396239294E+02  0.22854214165E+02  0.00000000000E+00 0.  1.
          5    1    4    4  501    0  0.16313931042E+02  0.71835786235E+02  0.15115534935E+03  0.16820207063E+03  0.41800000000E+01 0. -1.
         -5    1    4    4    0  501 -0.29217615758E+02 -0.44684626096E+02  0.15042872137E+03  0.15967672808E+03  0.41800000000E+01 0. -1.
</event>
<event>
11    1  0.8864208E-009  0.1315110E+03  0.7561462E-02  0.1117426E+00
         22   -1    0    0    0    0  0.00000000000E+00  0.00000000000E+00  0.67733524128E+03  0.67733524128E+03  0.00000000000E+00 0. -1.
         22   -1    0    0    0    0 -0.00000000000E+00 -0.00000000000E+00 -0.83574889602E+02  0.83574889602E+02  0.00000000000E+00 0. -1.
         24    2    1    2    0    0 -0.82377960848E+01  0.24333352132E+02 -0.40779706839E+01  0.81374995057E+02  0.77105685039E+02 0.  0.
         25    2    1    2    0    0 -0.22604745266E+02 -0.49298349105E+02  0.88743666191E+02  0.16267836415E+03  0.12509000816E+03 0.  0.
        -24    2    1    2    0    0  0.30842541351E+02  0.24964996973E+02  0.50909465617E+03  0.51685677168E+03  0.79931470981E+02 0.  0.
        -11    1    3    3    0    0  0.83962679006E+01  0.29753211920E+02  0.29993843263E+02  0.43074140362E+02  0.00000000000E+00 0.  1.
         12    1    3    3    0    0 -0.16634063985E+02 -0.54198597877E+01 -0.34071813947E+02  0.38300854695E+02  0.00000000000E+00 0. -1.
         13    1    5    5    0    0 -0.15339473261E+02  0.23109358953E+02  0.35234334591E+03  0.35343341002E+03  0.00000000000E+00 0. -1.
        -14    1    5    5    0    0  0.46182014612E+02  0.18556380198E+01  0.15675131027E+03  0.16342336166E+03  0.00000000000E+00 0.  1.
          5    1    4    4  501    0 -0.56687952994E+02 -0.49219319262E+02  0.88391025540E+01  0.75707777257E+02  0.41800000000E+01 0. -1.
         -5    1    4    4    0  501  0.34083207728E+02 -0.79029842561E-01  0.79904563637E+02  0.86970586895E+02  0.41800000000E+01 0. -1.
</event>
<event>
11    1  0.8864208E-009  0.1386203E+03  0.7561462E-02  0.1109109E+00
         22   -1    0    0    0    0  0.00000000000E+00  0.00000000000E+00  0.43849462632E+03  0.43849462632E+03  0.00000000000E+00 0.  1.
         22   -1    0    0    0    0 -0.00000000000E+00 -0.00000000000E+00 -0.13186601642E+04  0.13186601642E+04  0.00000000000E+00 0.  1.
        -24    2    1    2    0    0  0.20298156258E+02 -0.23164115906E+02 -0.11887910211E+04  0.11919369463E+04  0.80876453236E+02 0.  0.
         25    2    1    2    0    0 -0.66877081382E+02 -0.14090413113E+02 -0.80336697450E+02  0.16362376137E+03  0.12509063343E+03 0.  0.
         24    2    1    2    0    0  0.46578925124E+02  0.37254529020E+02  0.38896218070E+03  0.40159408282E+03  0.80179381030E+02 0.  0.
        -13    1    5    5    0    0  0.12953367991E+02  0.10721336143E+02  0.31980442207E+03  0.32024616339E+03  0.00000000000E+00 0.  1.
         14    1    5    5    0    0  0.33625557133E+02  0.26533192877E+02  0.69157758635E+02  0.81347919433E+02  0.00000000000E+00 0. -1.
         13    1    3    3    0    0  0.22040790858E+02  0.20102923095E+02 -0.20144936581E+03  0.20364619065E+03  0.00000000000E+00 0. -1.
        -14    1    3    3    0    0 -0.17426345994E+01 -0.43267039002E+02 -0.98734165531E+03  0.98829075568E+03  0.00000000000E+00 0.  1.
          5    1    4    4  501    0 -0.59020192579E+02 -0.30337121430E+02  0.13607847429E+02  0.67870243703E+02  0.41800000000E+01 0.  1.
         -5    1    4    4    0  501 -0.78568888030E+01  0.16246708316E+02 -0.93944544879E+02  0.95753517665E+02  0.41800000000E+01 0.  1.
</event>
<event>
11    1  0.8864208E-009  0.1339781E+03  0.7561462E-02  0.1114476E+00
         22   -1    0    0    0    0  0.00000000000E+00  0.00000000000E+00  0.41247128015E+04  0.41247128015E+04  0.00000000000E+00 0. -1.
         22   -1    0    0    0    0 -0.00000000000E+00 -0.00000000000E+00 -0.30077983175E+02  0.30077983175E+02  0.00000000000E+00 0. -1.
        -24    2    1    2    0    0  0.37733067522E+02 -0.26077353352E+02  0.68453224900E+02  0.11470038016E+03  0.79790478545E+02 0.  0.
         25    2    1    2    0    0 -0.58834612648E+02  0.30820617392E+02  0.77370982967E+03  0.78656608294E+03  0.12509148734E+03 0.  0.
         24    2    1    2    0    0  0.21101545126E+02 -0.47432640408E+01  0.32524717638E+04  0.32535243216E+04  0.79875924434E+02 0.  0.
        -13    1    5    5    0    0  0.50460212668E+02 -0.75876756767E+01  0.16758940154E+04  0.16766706763E+04  0.00000000000E+00 0.  1.
         14    1    5    5    0    0 -0.29358667542E+02  0.28444116359E+01  0.15765777484E+04  0.15768536453E+04  0.00000000000E+00 0. -1.
         11    1    3    3    0    0  0.20119274885E+02  0.36299955488E+01 -0.14353782013E+02  0.24979854837E+02  0.00000000000E+00 0. -1.
        -12    1    3    3    0    0  0.17613792637E+02 -0.29707348900E+02  0.82807006913E+02  0.89720525320E+02  0.00000000000E+00 0.  1.
          5    1    4    4  501    0 -0.60215686252E+02 -0.38477353808E+02  0.35617619261E+03  0.36329793312E+03  0.41800000000E+01 0.  1.
         -5    1    4    4    0  501  0.13810736045E+01  0.69297971201E+02  0.41753363707E+03  0.42326814983E+03  0.41800000000E+01 0.  1.
</event>
<event>
11    1  0.8864208E-009  0.1379458E+03  0.7561462E-02  0.1109874E+00
         22   -1    0    0    0    0  0.00000000000E+00  0.00000000000E+00  0.11152971029E+04  0.11152971029E+04  0.00000000000E+00 0.  1.
         22   -1    0    0    0    0 -0.00000000000E+00 -0.00000000000E+00 -0.51077422597E+03  0.51077422597E+03  0.00000000000E+00 0. -1.
         24    2    1    2    0    0 -0.25028813346E+01 -0.58528404584E+02 -0.48571498351E+03  0.49754077072E+03  0.90531402115E+02 0.  0.
         25    2    1    2    0    0  0.76326464345E+01  0.39367775284E+02  0.23404968268E+03  0.26839397984E+03  0.12509194791E+03 0.  0.
        -24    2    1    2    0    0 -0.51297650999E+01  0.19160629300E+02  0.85618817775E+03  0.86013657831E+03  0.79895515651E+02 0.  0.
        -13    1    3    3    0    0  0.39346966731E+02 -0.18074900257E+02 -0.12810550952E+03  0.13522539473E+03  0.00000000000E+00 0.  1.
         14    1    3    3    0    0 -0.41849848066E+02 -0.40453504327E+02 -0.35760947398E+03  0.36231537599E+03  0.00000000000E+00 0. -1.
         11    1    5    5    0    0 -0.27613485148E+01  0.13082682647E+02  0.20825266898E+02  0.24748199373E+02  0.00000000000E+00 0. -1.
        -12    1    5    5    0    0 -0.23684165851E+01  0.60779466526E+01  0.83536291085E+03  0.83538837894E+03  0.00000000000E+00 0.  1.
          5    1    4    4  501    0 -0.35098145672E+02  0.34922802935E+02  0.21594279718E+03  0.22158575326E+03  0.41800000000E+01 0. -1.
         -5    1    4    4    0  501  0.42730792107E+02  0.44449723487E+01  0.18106885500E+02  0.46808226582E+02  0.41800000000E+01 0. -1.
</event>
<event>
11    1  0.8864208E-009  0.2434900E+03  0.7561462E-02  0.1027425E+00
         22   -1    0    0    0    0  0.00000000000E+00  0.00000000000E+00  0.29834293188E+03  0.29834293188E+03  0.00000000000E+00 0. -1.
         22   -1    0    0    0    0 -0.00000000000E+00 -0.00000000000E+00 -0.11105098821E+04  0.11105098821E+04  0.00000000000E+00 0. -1.
        -24    2    1    2    0    0  0.22412334006E+02 -0.50900891231E+02 -0.36169326684E+03  0.37441679219E+03  0.79200388580E+02 0.  0.
         25    2    1    2    0    0  0.16456788947E+03 -0.48196083328E+02 -0.67987951774E+03  0.71224237166E+03  0.12509030598E+03 0.  0.
         24    2    1    2    0    0 -0.18698022347E+03  0.99096974559E+02  0.22940583440E+03  0.32219365009E+03  0.79999356022E+02 0.  0.
        -13    1    5    5    0    0 -0.54746316269E+02 -0.72851900918E+01  0.42169076381E+02  0.69487150917E+02  0.00000000000E+00 0.  1.
         14    1    5    5    0    0 -0.13223390721E+03  0.10638216465E+03  0.18723675802E+03  0.25270649918E+03  0.00000000000E+00 0. -1.
         11    1    3    3    0    0  0.36610297767E+02 -0.60783946343E+02 -0.33621172698E+03  0.34361799632E+03  0.00000000000E+00 0. -1.
        -12    1    3    3    0    0 -0.14197963761E+02  0.98830551123E+01 -0.25481539858E+02  0.30798795867E+02  0.00000000000E+00 0.  1.
          5    1    4    4  501    0  0.17308187069E+03 -0.33470268352E+02 -0.47602214885E+03  0.50763387537E+03  0.41800000000E+01 0. -1.
         -5    1    4    4    0  501 -0.85139812217E+01 -0.14725814976E+02 -0.20385736889E+03  0.20460849629E+03  0.41800000000E+01 0. -1.
</event>
<event>
11    1  0.8864208E-009  0.1366278E+03  0.7561462E-02  0.1111384E+00
         22   -1    0    0    0    0  0.00000000000E+00  0.00000000000E+00  0.36815271583E+03  0.36815271583E+03  0.00000000000E+00 0. -1.
         22   -1    0    0    0    0 -0.00000000000E+00 -0.00000000000E+00 -0.25669536776E+04  0.25669536776E+04  0.00000000000E+00 0. -1.
        -24    2    1    2    0    0  0.48133878838E+01  0.54386286161E+02 -0.24627038132E+04  0.24643755996E+04  0.72498189158E+02 0.  0.
         25    2    1    2    0    0 -0.27524249993E+02 -0.76660598496E+02 -0.40351594223E+02  0.15463018599E+03  0.12509121298E+03 0.  0.
         24    2    1    2    0    0  0.22710862109E+02  0.22274312335E+02  0.30425444562E+03  0.31610060789E+03  0.79604637921E+02 0.  0.
        -11    1    5    5    0    0 -0.12227368288E+02 -0.20716713428E+02  0.45345064357E+02  0.51330942053E+02  0.00000000000E+00 0.  1.
         12    1    5    5    0    0  0.34938230397E+02  0.42991025763E+02  0.25890938126E+03  0.26476966583E+03  0.00000000000E+00 0. -1.
         13    1    3    3    0    0 -0.26759048431E+02  0.22056549853E+02 -0.16871902686E+04  0.16875466040E+04  0.00000000000E+00 0. -1.
        -14    1    3    3    0    0  0.31572436315E+02  0.32329736308E+02 -0.77551354457E+03  0.77682899559E+03  0.00000000000E+00 0.  1.
          5    1    4    4  501    0 -0.58801430907E+02 -0.63945598191E+02 -0.68313344454E+02  0.11059309759E+03  0.41800000000E+01 0. -1.
         -5    1    4    4    0  501  0.31277180914E+02 -0.12715000305E+02  0.27961750231E+02  0.44037088399E+02  0.41800000000E+01 0. -1.
</event>
<event>
11    1  0.8864208E-009  0.1500744E+03  0.7561462E-02  0.1096803E+00
         22   -1    0    0    0    0  0.00000000000E+00  0.00000000000E+00  0.12716341675E+04  0.12716341675E+04  0.00000000000E+00 0. -1.
         22   -1    0    0    0    0 -0.00000000000E+00 -0.00000000000E+00 -0.95741437012E+02  0.95741437012E+02  0.00000000000E+00 0.  1.
        -24    2    1    2    0    0 -0.52412292676E+02  0.77594322211E+02  0.16686957273E+02  0.12557269356E+03  0.81988533118E+02 0.  0.
         25    2    1    2    0    0  0.30765265335E+02 -0.56455325011E+02  0.85226657254E+02  0.16445485341E+03  0.12509240757E+03 0.  0.
         24    2    1    2    0    0  0.21647027341E+02 -0.21138997200E+02  0.10739791160E+04  0.10773480576E+04  0.79575401699E+02 0.  0.
        -13    1    5    5    0    0  0.76410046498E+01 -0.18654184436E+02  0.60517287203E+02  0.63786406071E+02  0.00000000000E+00 0.  1.
         14    1    5    5    0    0  0.14006022691E+02 -0.24848127643E+01  0.10134618288E+04  0.10135616515E+04  0.00000000000E+00 0. -1.
         13    1    3    3    0    0  0.32307765140E+00  0.34301858942E+02  0.40711865853E+02  0.53236997730E+02  0.00000000000E+00 0. -1.
        -14    1    3    3    0    0 -0.52735370327E+02  0.43292463269E+02 -0.24024908580E+02  0.72335695834E+02  0.00000000000E+00 0.  1.
          5    1    4    4  501    0  0.48060991700E+02 -0.38003159684E+02  0.11178476825E+03  0.12754374106E+03  0.41800000000E+01 0. -1.
         -5    1    4    4    0  501 -0.17295726365E+02 -0.18452165328E+02 -0.26558110999E+02  0.36911112359E+02  0.41800000000E+01 0. -1.
</event>
<event>
11    1  0.9577112E-009  0.1627048E+03  0.7561462E-02  0.1084561E+00
         22   -1    0    0    0    0  0.00000000000E+00  0.00000000000E+00  0.17981099393E+03  0.17981099393E+03  0.00000000000E+00 0.  1.
         22   -1    0    0    0    0 -0.00000000000E+00 -0.00000000000E+00 -0.20610792575E+04  0.20610792575E+04  0.00000000000E+00 0. -1.
         24    2    1    2    0    0  0.56317490224E+02 -0.21154164310E+02 -0.15987868956E+04  0.16020765703E+04  0.83130267459E+02 0.  0.
         25    2    1    2    0    0  0.46213688767E+02  0.51062513694E+02 -0.42230694980E+03  0.44579545402E+03  0.12508933463E+03 0.  0.
        -24    2    1    2    0    0 -0.10253117899E+03 -0.29908349384E+02  0.13982558185E+03  0.19301822704E+03  0.79357990150E+02 0.  0.
        -13    1    3    3    0    0  0.92317166977E+01  0.22950053969E+02 -0.16551041335E+03  0.16734881684E+03  0.00000000000E+00 0.  1.
         14    1    3    3    0    0  0.47085773527E+02 -0.44104218279E+02 -0.14332764822E+04  0.14347277535E+04  0.00000000000E+00 0. -1.
         11    1    5    5    0    0 -0.66838893707E+02 -0.26231883658E+02  0.30601150738E+02  0.78051136178E+02  0.00000000000E+00 0. -1.
        -12    1    5    5    0    0 -0.35692285285E+02 -0.36764657270E+01  0.10922443111E+03  0.11496709086E+03  0.00000000000E+00 0.  1.
          5    1    4    4  501    0  0.35752600373E+02 -0.16171309157E+02 -0.32264111085E+03  0.32504540988E+03  0.41800000000E+01 0.  1.
         -5    1    4    4    0  501  0.10461088395E+02  0.67233822851E+02 -0.99665838948E+02  0.12075004414E+03  0.41800000000E+01 0.  1.
</event>
<event>
11    1  0.8864208E-009  0.1415615E+03  0.7561462E-02  0.1105827E+00
         22   -1    0    0    0    0  0.00000000000E+00  0.00000000000E+00  0.18463716527E+04  0.18463716527E+04  0.00000000000E+00 0. -1.
         22   -1    0    0    0    0 -0.00000000000E+00 -0.00000000000E+00 -0.88901975923E+02  0.88901975923E+02  0.00000000000E+00 0. -1.
         24    2    1    2    0    0 -0.31327917919E+01  0.64564071100E+01 -0.54715773759E+02  0.96291500834E+02  0.78909680380E+02 0.  0.
         25    2    1    2    0    0 -0.11859835457E+02  0.59070125643E+02  0.40496585894E+03  0.42810712781E+03  0.12509368702E+03 0.  0.
        -24    2    1    2    0    0  0.14992627249E+02 -0.65526532753E+02  0.14072195916E+04  0.14108750000E+04  0.76044600274E+02 0.  0.
        -13    1    3    3    0    0 -0.40539053425E+02  0.35085797798E+01 -0.36141267569E+02  0.54423489471E+02  0.00000000000E+00 0.  1.
         14    1    3    3    0    0  0.37406261633E+02  0.29478273302E+01 -0.18574506190E+02  0.41868011364E+02  0.00000000000E+00 0. -1.
         11    1    5    5    0    0  0.34641429900E+02 -0.34989981919E+02  0.11556320496E+04  0.11566804924E+04  0.00000000000E+00 0. -1.
        -12    1    5    5    0    0 -0.19648802651E+02 -0.30536550834E+02  0.25158754206E+03  0.25419450762E+03  0.00000000000E+00 0.  1.
          5    1    4    4  501    0 -0.50472441511E+02  0.79968541660E+02  0.26914737394E+03  0.28530723143E+03  0.41800000000E+01 0. -1.
         -5    1    4    4    0  501  0.38612606053E+02 -0.20898416016E+02  0.13581848500E+03  0.14279989638E+03  0.41800000000E+01 0. -1.
</event>
<event>
11    1  0.8864208E-009  0.1974764E+03  0.7561462E-02  0.1056323E+00
         22   -1    0    0    0    0  0.00000000000E+00  0.00000000000E+00  0.27221647938E+04  0.27221647938E+04  0.00000000000E+00 0.  1.
         22   -1    0    0    0    0 -0.00000000000E+00 -0.00000000000E+00 -0.27788883470E+03  0.27788883470E+03  0.00000000000E+00 0. -1.
        -24    2    1    2    0    0 -0.20516784074E+02  0.39828906995E+02 -0.14931830833E+03  0.17530880476E+03  0.80186903944E+02 0.  0.
         25    2    1    2    0    0  0.57122491422E+02 -0.18710854380E+03  0.68737543298E+01  0.23228333734E+03  0.12504284912E+03 0.  0.
         24    2    1    2    0    0 -0.36605707348E+02  0.14727963681E+03  0.25867205131E+04  0.25924614864E+04  0.81867431521E+02 0.  0.
        -13    1    5    5    0    0 -0.60054059083E+02  0.12545184554E+03  0.19649888506E+04  0.19699050329E+04  0.00000000000E+00 0.  1.
         14    1    5    5    0    0  0.23448351735E+02  0.21827791267E+02  0.62173166249E+03  0.62255645352E+03  0.00000000000E+00 0. -1.
         13    1    3    3    0    0 -0.29035220675E+02  0.61727627122E+02 -0.11520174093E+03  0.13388347584E+03  0.00000000000E+00 0. -1.
        -14    1    3    3    0    0  0.85184366011E+01 -0.21898720126E+02 -0.34116567399E+02  0.41425328923E+02  0.00000000000E+00 0.  1.
          5    1    4    4  501    0  0.24734367930E+02 -0.14746174063E+03 -0.48026445923E+02  0.15710113244E+03  0.41800000000E+01 0.  1.
         -5    1    4    4    0  501  0.32388123491E+02 -0.39646803172E+02  0.54900200253E+02  0.75182204895E+02  0.41800000000E+01 0.  1.
</event>
<event>
11    1  0.8864208E-009  0.1300776E+03  0.7561462E-02  0.1119174E+00
         22   -1    0    0    0    0  0.00000000000E+00  0.00000000000E+00  0.34112343275E+03  0.34112343275E+03  0.00000000000E+00 0.  1.
         22   -1    0    0    0    0 -0.00000000000E+00 -0.00000000000E+00 -0.10215182074E+03  0.10215182074E+03  0.00000000000E+00 0.  1.
         24    2    1    2    0    0  0.14888407164E+02 -0.38117406127E+02 -0.17744925830E+02  0.90983469855E+02  0.79300113974E+02 0.  0.
         25    2    1    2    0    0 -0.14927905558E+02  0.16266990162E+02  0.64821722536E+02  0.14260698934E+03  0.12508972925E+03 0.  0.
        -24    2    1    2    0    0  0.39498393277E-01  0.21850415966E+02  0.19189481530E+03  0.20968479430E+03  0.81649559601E+02 0.  0.
        -13    1    3    3    0    0  0.28007670893E+02 -0.55939376789E+02  0.93291206430E-01  0.62559189634E+02  0.00000000000E+00 0.  1.
         14    1    3    3    0    0 -0.13119263729E+02  0.17821970661E+02 -0.17838217037E+02  0.28424280221E+02  0.00000000000E+00 0. -1.
         13    1    5    5    0    0  0.26634777284E+02  0.29173839587E+02  0.43551376167E+02  0.58798355787E+02  0.00000000000E+00 0. -1.
        -14    1    5    5    0    0 -0.26595278891E+02 -0.73234236214E+01  0.14834343914E+03  0.15088643851E+03  0.00000000000E+00 0.  1.
          5    1    4    4  501    0  0.44844348347E+02 -0.11203107006E+02  0.60908628218E+02  0.76575835462E+02  0.41800000000E+01 0.  1.
         -5    1    4    4    0  501 -0.59772253905E+02  0.27470097168E+02  0.39130943175E+01  0.66031153878E+02  0.41800000000E+01 0.  1.
</event>
<event>
11    1  0.8864208E-009  0.1312503E+03  0.7561462E-02  0.1117742E+00
         22   -1    0    0    0    0  0.00000000000E+00  0.00000000000E+00  0.38984528200E+03  0.38984528200E+03  0.00000000000E+00 0.  1.
         22   -1    0    0    0    0 -0.00000000000E+00 -0.00000000000E+00 -0.38175854151E+03  0.38175854151E+03  0.00000000000E+00 0.  1.
         24    2    1    2    0    0 -0.36789044064E+02  0.57124171969E+01 -0.27698017098E+03  0.28988995231E+03  0.77020152290E+02 0.  0.
         25    2    1    2    0    0  0.60528726573E+02 -0.67146363626E+00 -0.41059843767E+02  0.14490232431E+03  0.12508635104E+03 0.  0.
        -24    2    1    2    0    0 -0.23739682509E+02 -0.50409535606E+01  0.32612675524E+03  0.33681154689E+03  0.80587678310E+02 0.  0.
        -11    1    3    3    0    0  0.12616453905E+02 -0.13259443320E+02 -0.16524005798E+03  0.16625060754E+03  0.00000000000E+00 0.  1.
         12    1    3    3    0    0 -0.49405497969E+02  0.18971860517E+02 -0.11174011300E+03  0.12363934477E+03  0.00000000000E+00 0. -1.
         13    1    5    5    0    0 -0.39619777277E+02  0.30521459170E+01  0.73477106116E+02  0.83533989905E+02  0.00000000000E+00 0. -1.
        -14    1    5    5    0    0  0.15880094768E+02 -0.80930994776E+01  0.25264964913E+03  0.25327755699E+03  0.00000000000E+00 0.  1.
          5    1    4    4  501    0  0.64534564364E+01  0.48762535465E+02 -0.50846322243E+02  0.70867854847E+02  0.41800000000E+01 0. -1.
         -5    1    4    4    0  501  0.54075270137E+02 -0.49433999101E+02  0.97864784756E+01  0.74034469461E+02  0.41800000000E+01 0. -1.
</event>
<event>
11    1  0.8864208E-009  0.1462849E+03  0.7561462E-02  0.1100736E+00
         22   -1    0    0    0    0  0.00000000000E+00  0.00000000000E+00  0.26733377962E+04  0.26733377962E+04  0.00000000000E+00 0. -1.
         22   -1    0    0    0    0 -0.00000000000E+00 -0.00000000000E+00 -0.59573625307E+02  0.59573625307E+02  0.00000000000E+00 0. -1.
         24    2    1    2    0    0  0.19676011580E+02 -0.72833367672E+02  0.10567401518E+02  0.11073373977E+03  0.80364458998E+02 0.  0.
         25    2    1    2    0    0 -0.35500063836E+02  0.73218035858E+02  0.63357417961E+03  0.65091042187E+03  0.12508797271E+03 0.  0.
        -24    2    1    2    0    0  0.15824052256E+02 -0.38466818635E+00  0.19696225897E+04  0.19712672598E+04  0.78936145953E+02 0.  0.
        -11    1    3    3    0    0  0.26194288650E+01 -0.25215368884E+02  0.43520411940E+02  0.50365687635E+02  0.00000000000E+00 0.  1.
         12    1    3    3    0    0  0.17056582715E+02 -0.47617998788E+02 -0.32953010422E+02  0.60368052133E+02  0.00000000000E+00 0. -1.
         11    1    5    5    0    0  0.26618536877E+02 -0.10266815017E+02  0.18954486619E+04  0.18956633625E+04  0.00000000000E+00 0. -1.
        -12    1    5    5    0    0 -0.10794484621E+02  0.98821468307E+01  0.74173927806E+02  0.75603897323E+02  0.00000000000E+00 0.  1.
          5    1    4    4  501    0 -0.70586643787E+02  0.84624261020E+02  0.51431509659E+03  0.52600497223E+03  0.41800000000E+01 0. -1.
         -5    1    4    4    0  501  0.35086579951E+02 -0.11406225161E+02  0.11925908303E+03  0.12490544964E+03  0.41800000000E+01 0. -1.
</event>
<event>
11    1  0.8864208E-009  0.1883682E+03  0.7561462E-02  0.1063068E+00
         22   -1    0    0    0    0  0.00000000000E+00  0.00000000000E+00  0.67552906610E+03  0.67552906610E+03  0.00000000000E+00 0. -1.
         22   -1    0    0    0    0 -0.00000000000E+00 -0.00000000000E+00 -0.16012739321E+04  0.16012739321E+04  0.00000000000E+00 0. -1.
        -24    2    1    2    0    0  0.49469363450E+02  0.12292166128E+03 -0.14133571667E+04  0.14218504224E+04  0.80766269472E+02 0.  0.
         25    2    1    2    0    0 -0.15784019992E+03 -0.20176747712E+03 -0.54920496640E+02  0.29032230951E+03  0.12508852432E+03 0.  0.
         24    2    1    2    0    0  0.10837083647E+03  0.78845815837E+02  0.54253279725E+03  0.56463026638E+03  0.80651105081E+02 0.  0.
        -13    1    5    5    0    0  0.55254213634E+02  0.45157376812E+01  0.30766615346E+03  0.31262098777E+03  0.00000000000E+00 0.  1.
         14    1    5    5    0    0  0.53116622832E+02  0.74330078156E+02  0.23486664379E+03  0.25200927861E+03  0.00000000000E+00 0. -1.
         11    1    3    3    0    0  0.96141282323E+01  0.10425503167E+03 -0.11584935033E+04  0.11632148298E+04  0.00000000000E+00 0. -1.
        -12    1    3    3    0    0  0.39855235217E+02  0.18666629611E+02 -0.25486366340E+03  0.25863559260E+03  0.00000000000E+00 0.  1.
          5    1    4    4  501    0 -0.11392198010E+03 -0.47044084054E+02 -0.35061088330E+02  0.12821121522E+03  0.41800000000E+01 0.  1.
         -5    1    4    4    0  501 -0.43918219820E+02 -0.15472339306E+03 -0.19859408310E+02  0.16211109429E+03  0.41800000000E+01 0.  1.
</event>
<event>
11    1  0.8864208E-009  0.1362324E+03  0.7561462E-02  0.1111840E+00
         22   -1    0    0    0    0  0.00000000000E+00  0.00000000000E+00  0.48736647374E+03  0.48736647374E+03  0.00000000000E+00 0. -1.
         22   -1    0    0    0    0 -0.00000000000E+00 -0.00000000000E+00 -0.30615862421E+03  0.30615862421E+03  0.00000000000E+00 0. -1.
        -24    2    1    2    0    0  0.22339979504E+02  0.10921402703E+02 -0.17707215273E+03  0.19586418217E+03  0.79936717849E+02 0.  0.
         25    2    1    2    0    0 -0.30791776165E+02 -0.63553501703E+02 -0.69106020062E+02  0.15940482533E+03  0.12508826991E+03 0.  0.
         24    2    1    2    0    0  0.84517966603E+01  0.52632098999E+02  0.42738602232E+03  0.43825609046E+03  0.81043309625E+02 0.  0.
        -13    1    5    5    0    0 -0.23668460831E+02  0.36016152539E+02  0.10016845246E+03  0.10904622025E+03  0.00000000000E+00 0.  1.
         14    1    5    5    0    0  0.32120257491E+02  0.16615946460E+02  0.32721756986E+03  0.32920987021E+03  0.00000000000E+00 0. -1.
         13    1    3    3    0    0 -0.11195790909E+02  0.37511325149E+02 -0.10477229142E+03  0.11184667316E+03  0.00000000000E+00 0. -1.
        -14    1    3    3    0    0  0.33535770414E+02 -0.26589922446E+02 -0.72299861319E+02  0.84017509007E+02  0.00000000000E+00 0.  1.
          5    1    4    4  501    0  0.27534967464E+02 -0.12551599852E+02 -0.75601880393E+02  0.81540381475E+02  0.41800000000E+01 0.  1.
         -5    1    4    4    0  501 -0.58326743629E+02 -0.51001901850E+02  0.64958603315E+01  0.77864443850E+02  0.41800000000E+01 0.  1.
</event>
<event>
11    1  0.8864208E-009  0.1373125E+03  0.7561462E-02  0.1110597E+00
         22   -1    0    0    0    0  0.00000000000E+00  0.00000000000E+00  0.12209181600E+04  0.12209181600E+04  0.00000000000E+00 0.  1.
         22   -1    0    0    0    0 -0.00000000000E+00 -0.00000000000E+00 -0.55083677241E+02  0.55083677241E+02  0.00000000000E+00 0.  1.
         24    2    1    2    0    0 -0.29043187304E+02  0.21791798511E+02  0.37248803733E+02  0.95835262738E+02  0.80489347081E+02 0.  0.
         25    2    1    2    0    0 -0.28105109070E+02 -0.35943720662E+02  0.16794774919E+03  0.21432678708E+03  0.12509067507E+03 0.  0.
        -24    2    1    2    0    0  0.57148296374E+02  0.14151922151E+02  0.96063792986E+03  0.96583978745E+03  0.80963313025E+02 0.  0.
        -13    1    3    3    0    0  0.11986128989E+02  0.34638279189E+02 -0.32159821652E+01  0.36794295952E+02  0.00000000000E+00 0.  1.
         14    1    3    3    0    0 -0.41029316293E+02 -0.12846480678E+02  0.40464785898E+02  0.59040966786E+02  0.00000000000E+00 0. -1.
         13    1    5    5    0    0 -0.62541473189E+01 -0.14621364011E+02  0.48336439891E+02  0.50885263737E+02  0.00000000000E+00 0. -1.
        -14    1    5    5    0    0  0.63402443693E+02  0.28773286163E+02  0.91230148997E+03  0.91495452372E+03  0.00000000000E+00 0.  1.
          5    1    4    4  501    0  0.41111487333E+02 -0.19221181833E+02  0.19383558508E+02  0.49525780784E+02  0.41800000000E+01 0.  1.
         -5    1    4    4    0  501 -0.69216596403E+02 -0.16722538829E+02  0.14856419068E+03  0.16480100629E+03  0.41800000000E+01 0.  1.
</event>
<event>
11    1  0.8864208E-009  0.1385856E+03  0.7561462E-02  0.1109148E+00
         22   -1    0    0    0    0  0.00000000000E+00  0.00000000000E+00  0.84133775847E+03  0.84133775847E+03  0.00000000000E+00 0. -1.
         22   -1    0    0    0    0 -0.00000000000E+00 -0.00000000000E+00 -0.51324097485E+03  0.51324097485E+03  0.00000000000E+00 0. -1.
         24    2    1    2    0    0 -0.29683197708E+02 -0.29845433813E+01 -0.43536504281E+03  0.44624519172E+03  0.93284783930E+02 0.  0.
         25    2    1    2    0    0 -0.31284690947E+02  0.30697192512E+01 -0.89605063570E+01  0.12930755213E+03  0.12510794259E+03 0.  0.
        -24    2    1    2    0    0  0.60967888655E+02 -0.85175869830E-01  0.77242233278E+03  0.77902598946E+03  0.80796914471E+02 0.  0.
        -13    1    3    3    0    0 -0.51902342744E+02 -0.28606660540E+02 -0.20490806808E+03  0.21330614284E+03  0.00000000000E+00 0.  1.
         14    1    3    3    0    0  0.22219145037E+02  0.25622117159E+02 -0.23045697473E+03  0.23293904888E+03  0.00000000000E+00 0. -1.
         13    1    5    5    0    0  0.12440521026E+02 -0.31067839634E+02  0.46880417317E+03  0.46999715957E+03  0.00000000000E+00 0. -1.
        -14    1    5    5    0    0  0.48527367629E+02  0.30982663765E+02  0.30361815960E+03  0.30902882989E+03  0.00000000000E+00 0.  1.
          5    1    4    4  501    0 -0.49310540490E+02  0.54330912388E+02 -0.13111575444E+02  0.74650942760E+02  0.41800000000E+01 0. -1.
         -5    1    4    4    0  501  0.18025849542E+02 -0.51261193137E+02  0.41510690866E+01  0.54656609372E+02  0.41800000000E+01 0. -1.
</event>
<event>
11    1  0.8864208E-009  0.5281067E+03  0.7561462E-02  0.9332820E-01
         22   -1    0    0    0    0  0.00000000000E+00  0.00000000000E+00  0.25225019534E+03  0.25225019534E+03  0.00000000000E+00 0. -1.
         22   -1    0    0    0    0 -0.00000000000E+00 -0.00000000000E+00 -0.22164801863E+04  0.22164801863E+04  0.00000000000E+00 0. -1.
         24    2    1    2    0    0  0.64169853950E+02  0.98027656107E+02 -0.24675132714E+03  0.28463022005E+03  0.80005957308E+02 0.  0.
         25    2    1    2    0    0 -0.15243315318E+03 -0.58321521483E+03 -0.15323347449E+04  0.16513855047E+04  0.12509381075E+03 0.  0.
        -24    2    1    2    0    0  0.88263299234E+02  0.48518755873E+03 -0.18514391887E+03  0.53271465691E+03  0.79430836963E+02 0.  0.
        -11    1    3    3    0    0  0.11570839573E+01 -0.10361935756E+02 -0.35501080542E+01  0.11014164657E+02  0.00000000000E+00 0.  1.
         12    1    3    3    0    0  0.63012769993E+02  0.10838959186E+03 -0.24320121909E+03  0.27361605540E+03  0.00000000000E+00 0. -1.
         11    1    5    5    0    0  0.99496695768E+02  0.39533569716E+03 -0.16597651725E+03  0.44015691542E+03  0.00000000000E+00 0. -1.
        -12    1    5    5    0    0 -0.11233396534E+02  0.89851861571E+02 -0.19167401626E+02  0.92557741495E+02  0.00000000000E+00 0.  1.
          5    1    4    4  501    0 -0.15147502968E+00 -0.21866579611E+03 -0.48611734212E+03  0.53304999395E+03  0.41800000000E+01 0. -1.
         -5    1    4    4    0  501 -0.15228167815E+03 -0.36454941872E+03 -0.10462174028E+04  0.11183355107E+04  0.41800000000E+01 0. -1.
</event>
<event>
11    1  0.8864208E-009  0.1842803E+03  0.7561462E-02  0.1066232E+00
         22   -1    0    0    0    0  0.00000000000E+00  0.00000000000E+00  0.10775904758E+04  0.10775904758E+04  0.00000000000E+00 0.  1.
         22   -1    0    0    0    0 -0.00000000000E+00 -0.00000000000E+00 -0.17619089690E+03  0.17619089690E+03  0.00000000000E+00 0. -1.
         24    2    1    2    0    0  0.75352890908E+02 -0.10491885048E+03 -0.81708532813E+02  0.17311245585E+03  0.81274932685E+02 0.  0.
         25    2    1    2    0    0 -0.62060670667E+02  0.16221863372E+03  0.20542589407E+03  0.29667176774E+03  0.12509167779E+03 0.  0.
        -24    2    1    2    0    0 -0.13292220242E+02 -0.57299783238E+02  0.77768221761E+03  0.78399714906E+03  0.80012185823E+02 0.  0.
        -11    1    3    3    0    0  0.81801807058E+01  0.70661069223E+01  0.90389742771E+01  0.14090716071E+02  0.00000000000E+00 0.  1.
         12    1    3    3    0    0  0.67172710203E+02 -0.11198495740E+03 -0.90747507090E+02  0.15902173978E+03  0.00000000000E+00 0. -1.
         11    1    5    5    0    0 -0.33738744060E+02 -0.59813740640E+02  0.40780820637E+03  0.41354989977E+03  0.00000000000E+00 0. -1.
        -12    1    5    5    0    0  0.20446523819E+02  0.25139574022E+01  0.36987401124E+03  0.37044724929E+03  0.00000000000E+00 0.  1.
          5    1    4    4  501    0 -0.12867734706E+01  0.12333067199E+03  0.66775384922E+02  0.14031583970E+03  0.41800000000E+01 0. -1.
         -5    1    4    4    0  501 -0.60773897196E+02  0.38887961730E+02  0.13865050915E+03  0.15635592804E+03  0.41800000000E+01 0. -1.
</event>
<event>
11    1  0.8864208E-009  0.1443838E+03  0.7561462E-02  0.1102760E+00
         22   -1    0    0    0    0  0.00000000000E+00  0.00000000000E+00  0.50097652706E+03  0.50097652706E+03  0.00000000000E+00 0.  1.
         22   -1    0    0    0    0 -0.00000000000E+00 -0.00000000000E+00 -0.55181221468E+03  0.55181221468E+03  0.00000000000E+00 0. -1.
         24    2    1    2    0    0 -0.36813307495E+01  0.42991131114E+02 -0.32317464304E+03  0.33489621755E+03  0.76497301097E+02 0.  0.
         25    2    1    2    0    0 -0.52032359524E+02 -0.87666911308E+02 -0.18623486051E+03  0.24641856273E+03  0.12508329629E+03 0.  0.
        -24    2    1    2    0    0  0.55713690273E+02  0.44675780193E+02  0.45857381594E+03  0.47147396146E+03  0.83053061631E+02 0.  0.
        -11    1    3    3    0    0  0.10097656249E+02 -0.37818937169E+01 -0.32281989569E+01  0.11255516439E+02  0.00000000000E+00 0.  1.
         12    1    3    3    0    0 -0.13778986998E+02  0.46773024831E+02 -0.31994644409E+03  0.32364070111E+03  0.00000000000E+00 0. -1.
         13    1    5    5    0    0 -0.16109189489E+02  0.17338339084E+02  0.20901104255E+03  0.21034671354E+03  0.00000000000E+00 0. -1.
        -14    1    5    5    0    0  0.71822879763E+02  0.27337441109E+02  0.24956277339E+03  0.26112724792E+03  0.00000000000E+00 0.  1.
          5    1    4    4  501    0 -0.29171123081E+01  0.17345199702E+02 -0.10064453032E+03  0.10225536357E+03  0.41800000000E+01 0.  1.
         -5    1    4    4    0  501 -0.49115247216E+02 -0.10501211101E+03 -0.85590330197E+02  0.14416319916E+03  0.41800000000E+01 0.  1.
</event>
<event>
11    1  0.8864208E-009  0.1444140E+03  0.7561462E-02  0.1102727E+00
         22   -1    0    0    0    0  0.00000000000E+00  0.00000000000E+00  0.10102553252E+04  0.10102553252E+04  0.00000000000E+00 0. -1.
         22   -1    0    0    0    0 -0.00000000000E+00 -0.00000000000E+00 -0.74641936018E+02  0.74641936018E+02  0.00000000000E+00 0.  1.
         24    2    1    2    0    0 -0.15439443538E+02  0.21806412146E+02  0.14205890047E+02  0.84262946184E+02  0.78641851200E+02 0.  0.
         25    2    1    2    0    0  0.85646629732E+02 -0.21735161123E+02  0.13414552334E+03  0.20359546545E+03  0.12509328402E+03 0.  0.
        -24    2    1    2    0    0 -0.70207186194E+02 -0.71251022866E-01  0.78726197576E+03  0.79703884954E+03  0.10276407512E+03 0.  0.
        -13    1    3    3    0    0  0.30643389762E+02  0.13188483477E+02 -0.47433025934E+01  0.33696473881E+02  0.00000000000E+00 0.  1.
         14    1    3    3    0    0 -0.46082833300E+02  0.86179286692E+01  0.18949192640E+02  0.50566472303E+02  0.00000000000E+00 0. -1.
         11    1    5    5    0    0 -0.79787891433E+02  0.23902491125E+02  0.38293998960E+03  0.39189344513E+03  0.00000000000E+00 0. -1.
        -12    1    5    5    0    0  0.95807052395E+01 -0.23973742148E+02  0.40432198616E+03  0.40514540441E+03  0.00000000000E+00 0.  1.
          5    1    4    4  501    0  0.56809668695E+02 -0.71783029963E+02  0.60083310643E+02  0.10957927936E+03  0.41800000000E+01 0.  1.
         -5    1    4    4    0  501  0.28836961037E+02  0.50047868840E+02  0.74062212693E+02  0.94016186087E+02  0.41800000000E+01 0.  1.
</event>
<event>
11    1  0.8864208E-009  0.1513329E+03  0.7561462E-02  0.1095525E+00
         22   -1    0    0    0    0  0.00000000000E+00  0.00000000000E+00  0.43967420534E+02  0.43967420534E+02  0.00000000000E+00 0.  1.
         22   -1    0    0    0    0 -0.00000000000E+00 -0.00000000000E+00 -0.27925703935E+04  0.27925703935E+04  0.00000000000E+00 0.  1.
        -24    2    1    2    0    0 -0.55349196500E+02 -0.58882692067E+02 -0.23137576403E+04  0.23170896712E+04  0.94336742996E+02 0.  0.
         25    2    1    2    0    0  0.92387107867E+02 -0.25918475866E+02 -0.26493518197E+03  0.30829477702E+03  0.12509146174E+03 0.  0.
         24    2    1    2    0    0 -0.37037911366E+02  0.84801167933E+02 -0.16991015066E+03  0.21115336585E+03  0.84576826897E+02 0.  0.
        -11    1    5    5    0    0 -0.54491733246E+02  0.34979841017E+02 -0.56015577205E+02  0.85619408777E+02  0.00000000000E+00 0.  1.
         12    1    5    5    0    0  0.17453821879E+02  0.49821326916E+02 -0.11389457346E+03  0.12553395707E+03  0.00000000000E+00 0. -1.
         11    1    3    3    0    0 -0.74571838521E+01  0.24782179963E+02 -0.67802610749E+03  0.67851983646E+03  0.00000000000E+00 0. -1.
        -12    1    3    3    0    0 -0.47892012648E+02 -0.83664872030E+02 -0.16357315328E+04  0.16385698347E+04  0.00000000000E+00 0.  1.
          5    1    4    4  501    0  0.31016353466E+02  0.47542177581E+02 -0.63771202669E+02  0.85478134756E+02  0.41800000000E+01 0. -1.
         -5    1    4    4    0  501  0.61370754401E+02 -0.73460653447E+02 -0.20116397930E+03  0.22281664226E+03  0.41800000000E+01 0. -1.
</event>
<event>
11    1  0.8864208E-009  0.2767562E+03  0.7561462E-02  0.1010538E+00
         22   -1    0    0    0    0  0.00000000000E+00  0.00000000000E+00  0.23864137033E+04  0.23864137033E+04  0.00000000000E+00 0.  1.
         22   -1    0    0    0    0 -0.00000000000E+00 -0.00000000000E+00 -0.14253443998E+03  0.14253443998E+03  0.00000000000E+00 0.  1.
        -24    2    1    2    0    0 -0.24315382934E+03  0.21882530842E+02  0.78569314616E+02  0.26829780599E+03  0.78790517336E+02 0.  0.
         25    2    1    2    0    0  0.24773113363E+03 -0.66285088051E+02  0.39115892436E+03  0.48416662109E+03  0.12509030900E+03 0.  0.
         24    2    1    2    0    0 -0.45773042912E+01  0.44402557209E+02  0.17741510243E+04  0.17764837162E+04  0.79309507250E+02 0.  0.
        -11    1    5    5    0    0  0.21214895782E+02  0.34419948777E+02  0.15637681589E+04  0.15642907848E+04  0.00000000000E+00 0.  1.
         12    1    5    5    0    0 -0.25792200073E+02  0.99826084319E+01  0.21038286538E+03  0.21219293132E+03  0.00000000000E+00 0. -1.
         13    1    3    3    0    0 -0.15370998297E+03  0.90563435123E+00  0.85985831584E+02  0.17612819840E+03  0.00000000000E+00 0. -1.
        -14    1    3    3    0    0 -0.89443846367E+02  0.20976896491E+02 -0.74165169680E+01  0.92169607590E+02  0.00000000000E+00 0.  1.
          5    1    4    4  501    0  0.14872425195E+03 -0.91762789412E+02  0.29958354014E+03  0.34685311381E+03  0.41800000000E+01 0.  1.
         -5    1    4    4    0  501  0.99006881679E+02  0.25477701361E+02  0.91575384221E+02  0.13731350728E+03  0.41800000000E+01 0.  1.
</event>
<event>
11    1  0.8864208E-009  0.1915424E+03  0.7561462E-02  0.1060671E+00
         22   -1    0    0    0    0  0.00000000000E+00  0.00000000000E+00  0.18709607999E+04  0.18709607999E+04  0.00000000000E+00 0. -1.
         22   -1    0    0    0    0 -0.00000000000E+00 -0.00000000000E+00 -0.97181768919E+02  0.97181768919E+02  0.00000000000E+00 0. -1.
         24    2    1    2    0    0  0.12214249229E+03 -0.83446375310E+02  0.66554770000E+01  0.16627772450E+03  0.75643243681E+02 0.  0.
         25    2    1    2    0    0 -0.72102183052E+02  0.11603770730E+03  0.54446580537E+03  0.57511463434E+03  0.12510137928E+03 0.  0.
        -24    2    1    2    0    0 -0.50040309242E+02 -0.32591331990E+02  0.12226577486E+04  0.12267502100E+04  0.80360935646E+02 0.  0.
        -13    1    3    3    0    0 -0.89169149828E+00 -0.31161856504E+02 -0.68378442808E+01  0.31915709751E+02  0.00000000000E+00 0.  1.
         14    1    3    3    0    0  0.12303418379E+03 -0.52284518806E+02  0.13493321281E+02  0.13436201475E+03  0.00000000000E+00 0. -1.
         11    1    5    5    0    0  0.10788397510E+02 -0.37479340438E+02  0.50297499114E+03  0.50448481860E+03  0.00000000000E+00 0. -1.
        -12    1    5    5    0    0 -0.60828706752E+02  0.48880084481E+01  0.71968275750E+03  0.72226539141E+03  0.00000000000E+00 0.  1.
          5    1    4    4  501    0 -0.10092576021E+03  0.51773735990E+02  0.30348124281E+03  0.32401368173E+03  0.41800000000E+01 0. -1.
         -5    1    4    4    0  501  0.28823577154E+02  0.64263971310E+02  0.24098456257E+03  0.25110095261E+03  0.41800000000E+01 0. -1.
</event>
<event>
11    1  0.8864208E-009  0.1495994E+03  0.7561462E-02  0.1097289E+00
         22   -1    0    0    0    0  0.00000000000E+00  0.00000000000E+00  0.17309934886E+04  0.17309934886E+04  0.00000000000E+00 0.  1.
         22   -1    0    0    0    0 -0.00000000000E+00 -0.00000000000E+00 -0.58820494998E+03  0.58820494998E+03  0.00000000000E+00 0.  1.
        -24    2    1    2    0    0 -0.73717835026E+02 -0.35024263596E+02 -0.56761275736E+03  0.57884363134E+03  0.78833298719E+02 0.  0.
         25    2    1    2    0    0  0.11424554438E+03  0.68723117597E+02  0.63881904776E+03  0.66446387545E+03  0.12509018623E+03 0.  0.
         24    2    1    2    0    0 -0.40527709354E+02 -0.33698854002E+02  0.10715822482E+04  0.10758909318E+04  0.80465361808E+02 0.  0.
        -13    1    5    5    0    0  0.28596719866E+01 -0.47392300183E+02  0.68436554613E+03  0.68601050180E+03  0.00000000000E+00 0.  1.
         14    1    5    5    0    0 -0.43387381341E+02  0.13693446181E+02  0.38721670211E+03  0.38988043003E+03  0.00000000000E+00 0. -1.
         13    1    3    3    0    0 -0.14792415543E+02 -0.29581710414E+02 -0.66723981866E+02  0.74471356270E+02  0.00000000000E+00 0. -1.
        -14    1    3    3    0    0 -0.58925419483E+02 -0.54425531814E+01 -0.50088877549E+03  0.50437227507E+03  0.00000000000E+00 0.  1.
          5    1    4    4  501    0  0.13824072480E+02 -0.17998281394E+02  0.17076935819E+02  0.28707790755E+02  0.41800000000E+01 0. -1.
         -5    1    4    4    0  501  0.10042147190E+03  0.86721398991E+02  0.62174211194E+03  0.63575608469E+03  0.41800000000E+01 0. -1.
</event>
<event>
11    1  0.8864208E-009  0.1325118E+03  0.7561462E-02  0.1116221E+00
         22   -1    0    0    0    0  0.00000000000E+00  0.00000000000E+00  0.99054410177E+03  0.99054410177E+03  0.00000000000E+00 0.  1.
         22   -1    0    0    0    0 -0.00000000000E+00 -0.00000000000E+00 -0.38031353919E+03  0.38031353919E+03  0.00000000000E+00 0.  1.
        -24    2    1    2    0    0  0.23206950049E+02 -0.37872105020E+02 -0.33640652511E+03  0.34883519520E+03  0.80893661088E+02 0.  0.
         25    2    1    2    0    0 -0.36900432969E+02  0.10802801648E+02  0.85276674718E+02  0.15621784941E+03  0.12511419882E+03 0.  0.
         24    2    1    2    0    0  0.13693482920E+02  0.27069303371E+02  0.86136041298E+03  0.86580459635E+03  0.82192331450E+02 0.  0.
        -11    1    5    5    0    0  0.11776247438E+02  0.38624469589E+02  0.84337619408E+03  0.84434230878E+03  0.00000000000E+00 0.  1.
         12    1    5    5    0    0  0.19172354820E+01 -0.11555166218E+02  0.17984218899E+02  0.21462287567E+02  0.00000000000E+00 0. -1.
         11    1    3    3    0    0  0.25781509424E+02  0.19930515814E+02 -0.89738300444E+02  0.95471850592E+02  0.00000000000E+00 0. -1.
        -12    1    3    3    0    0 -0.25745593744E+01 -0.57802620833E+02 -0.24666822467E+03  0.25336334461E+03  0.00000000000E+00 0.  1.
          5    1    4    4  501    0 -0.44013838352E+02 -0.20846669066E+02 -0.14687334672E+02  0.51039120069E+02  0.41800000000E+01 0.  1.
         -5    1    4    4    0  501  0.71134053830E+01  0.31649470714E+02  0.99964009390E+02  0.10517872934E+03  0.41800000000E+01 0.  1.
</event>
<event>
11    1  0.8864208E-009  0.1487742E+03  0.7561462E-02  0.1098138E+00
         22   -1    0    0    0    0  0.00000000000E+00  0.00000000000E+00  0.12033406641E+03  0.12033406641E+03  0.00000000000E+00 0. -1.
         22   -1    0    0    0    0 -0.00000000000E+00 -0.00000000000E+00 -0.11996355011E+04  0.11996355011E+04  0.00000000000E+00 0. -1.
         24    2    1    2    0    0 -0.35088206915E+02 -0.58116315884E+02 -0.66189195403E+03  0.67037413424E+03  0.81803622232E+02 0.  0.
         25    2    1    2    0    0  0.45037573604E+02  0.13428307997E+03 -0.48388206769E+03  0.51947029020E+03  0.12508876197E+03 0.  0.
        -24    2    1    2    0    0 -0.99493666889E+01 -0.76166764082E+02  0.66472587071E+02  0.13012514303E+03  0.81323933544E+02 0.  0.
        -13    1    3    3    0    0 -0.44893005935E+02 -0.16281337605E+02 -0.16913519233E+03  0.17574748141E+03  0.00000000000E+00 0.  1.
         14    1    3    3    0    0  0.98047990198E+01 -0.41834978279E+02 -0.49275676170E+03  0.49462665283E+03  0.00000000000E+00 0. -1.
         11    1    5    5    0    0 -0.44591125835E+02 -0.51606732443E+02  0.50044201509E+02  0.84593412517E+02  0.00000000000E+00 0. -1.
        -12    1    5    5    0    0  0.34641759146E+02 -0.24560031640E+02  0.16428385561E+02  0.45531730508E+02  0.00000000000E+00 0.  1.
          5    1    4    4  501    0  0.78330458077E+02  0.11674663773E+03 -0.43775035000E+03  0.45979156083E+03  0.41800000000E+01 0.  1.
         -5    1    4    4    0  501 -0.33292884473E+02  0.17536442241E+02 -0.46131717683E+02  0.59678729372E+02  0.41800000000E+01 0.  1.
</event>
<event>
11    1  0.8864208E-009  0.2064699E+03  0.7561462E-02  0.1050040E+00
         22   -1    0    0    0    0  0.00000000000E+00  0.00000000000E+00  0.18131347242E+03  0.18131347242E+03  0.00000000000E+00 0.  1.
         22   -1    0    0    0    0 -0.00000000000E+00 -0.00000000000E+00 -0.65188242077E+03  0.65188242077E+03  0.00000000000E+00 0. -1.
        -24    2    1    2    0    0 -0.24069933086E+02  0.61298394811E+02 -0.21412688260E+03  0.23637771551E+03  0.75413842552E+02 0.  0.
         25    2    1    2    0    0  0.92682455312E+02  0.94948782661E+02 -0.34411523686E+03  0.38944585844E+03  0.12508985398E+03 0.  0.
         24    2    1    2    0    0 -0.68612522226E+02 -0.15624717747E+03  0.87673171111E+02  0.20737231924E+03  0.78713627672E+02 0.  0.
        -13    1    5    5    0    0 -0.82165400765E+02 -0.15329266318E+03  0.79112640198E+02  0.19107224682E+03  0.00000000000E+00 0.  1.
         14    1    5    5    0    0  0.13552878539E+02 -0.29545142973E+01  0.85605309131E+01  0.16300072422E+02  0.00000000000E+00 0. -1.
         13    1    3    3    0    0  0.24420449183E+02  0.27347623573E+02 -0.11723803941E+03  0.12283732632E+03  0.00000000000E+00 0. -1.
        -14    1    3    3    0    0 -0.48490382269E+02  0.33950771238E+02 -0.96888843199E+02  0.11354038919E+03  0.00000000000E+00 0.  1.
          5    1    4    4  501    0  0.91577187597E+02  0.30524824599E+02 -0.28842437422E+03  0.30417797134E+03  0.41800000000E+01 0. -1.
         -5    1    4    4    0  501  0.11052677156E+01  0.64423958062E+02 -0.55690862637E+02  0.85267887099E+02  0.41800000000E+01 0. -1.
</event>
<event>
11    1  0.8864208E-009  0.1368892E+03  0.7561462E-02  0.1111083E+00
         22   -1    0    0    0    0  0.00000000000E+00  0.00000000000E+00  0.15477370502E+04  0.15477370502E+04  0.00000000000E+00 0. -1.
         22   -1    0    0    0    0 -0.00000000000E+00 -0.00000000000E+00 -0.22612406541E+03  0.22612406541E+03  0.00000000000E+00 0.  1.
        -24    2    1    2    0    0 -0.10031621584E+02 -0.12796406977E+02 -0.19234418618E+03  0.20915542222E+03  0.80531504535E+02 0.  0.
         25    2    1    2    0    0  0.40543458896E+02 -0.34080665792E+02  0.17129142324E+03  0.21861981636E+03  0.12509439871E+03 0.  0.
         24    2    1    2    0    0 -0.30511837311E+02  0.46877072769E+02  0.13426657477E+04  0.13460858770E+04  0.77893812889E+02 0.  0.
        -11    1    5    5    0    0 -0.50934115628E+02  0.24116262345E+02  0.56129454299E+03  0.56411651477E+03  0.00000000000E+00 0.  1.
         12    1    5    5    0    0  0.20422278317E+02  0.22760810424E+02  0.78137120474E+03  0.78196936228E+03  0.00000000000E+00 0. -1.
         13    1    3    3    0    0 -0.33655946715E+00  0.26985435398E+02 -0.24703896226E+02  0.36587012513E+02  0.00000000000E+00 0. -1.
        -14    1    3    3    0    0 -0.96950621172E+01 -0.39781842374E+02 -0.16764028995E+03  0.17256840970E+03  0.00000000000E+00 0.  1.
          5    1    4    4  501    0 -0.35573714533E+02 -0.94899301524E+01  0.97586937366E+01  0.38317782339E+02  0.41800000000E+01 0.  1.
         -5    1    4    4    0  501  0.76117173428E+02 -0.24590735640E+02  0.16153272950E+03  0.18030203402E+03  0.41800000000E+01 0.  1.
</event>
<event>
11    1  0.8864208E-009  0.1515344E+03  0.7561462E-02  0.1095321E+00
         22   -1    0    0    0    0  0.00000000000E+00  0.00000000000E+00  0.50753126701E+03  0.50753126701E+03  0.00000000000E+00 0.  1.
         22   -1    0    0    0    0 -0.00000000000E+00 -0.00000000000E+00 -0.13086823495E+03  0.13086823495E+03  0.00000000000E+00 0. -1.
        -24    2    1    2    0    0  0.37494825773E+02 -0.39288934731E+02  0.29159055068E+02  0.11634429256E+03  0.98672496506E+02 0.  0.
         25    2    1    2    0    0 -0.96823474076E+02  0.87958830086E+02  0.27384450501E+02  0.18305348101E+03  0.12508848012E+03 0.  0.
         24    2    1    2    0    0  0.59328648303E+02 -0.48669895355E+02  0.32011952649E+03  0.33900172839E+03  0.80975387545E+02 0.  0.
        -13    1    5    5    0    0  0.45997260415E+02 -0.33685643591E+02  0.31232190152E+03  0.31748297705E+03  0.00000000000E+00 0.  1.
         14    1    5    5    0    0  0.13331387888E+02 -0.14984251764E+02  0.77976249713E+01  0.21518751338E+02  0.00000000000E+00 0. -1.
         13    1    3    3    0    0  0.15139553968E+02  0.18555639697E+02 -0.24556649372E+02  0.34300829251E+02  0.00000000000E+00 0. -1.
        -14    1    3    3    0    0  0.22355271805E+02 -0.57844574428E+02  0.53715704440E+02  0.82043463309E+02  0.00000000000E+00 0.  1.
          5    1    4    4  501    0 -0.84742734326E+00 -0.18019446104E+02 -0.24661550323E+02  0.30839634164E+02  0.41800000000E+01 0.  1.
         -5    1    4    4    0  501 -0.95976046733E+02  0.10597827619E+03  0.52046000825E+02  0.15221384685E+03  0.41800000000E+01 0.  1.
</event>
<event>
11    1  0.8864208E-009  0.1505620E+03  0.7561462E-02  0.1096306E+00
         22   -1    0    0    0    0  0.00000000000E+00  0.00000000000E+00  0.32589734879E+04  0.32589734879E+04  0.00000000000E+00 0.  1.
         22   -1    0    0    0    0 -0.00000000000E+00 -0.00000000000E+00 -0.29716786758E+03  0.29716786758E+03  0.00000000000E+00 0.  1.
         24    2    1    2    0    0 -0.46526649418E+02  0.67847633769E+02 -0.26500578174E+03  0.28912412831E+03  0.81219866441E+02 0.  0.
         25    2    1    2    0    0  0.63996353117E+02 -0.13236660174E+03  0.46764556309E+03  0.50592108113E+03  0.12508923691E+03 0.  0.
        -24    2    1    2    0    0 -0.17469703699E+02  0.64518967971E+02  0.27591658389E+04  0.27610961460E+04  0.78663288144E+02 0.  0.
        -13    1    3    3    0    0 -0.68390730662E+02  0.40451844864E+02 -0.20125705915E+03  0.21637478516E+03  0.00000000000E+00 0.  1.
         14    1    3    3    0    0  0.21864081244E+02  0.27395788905E+02 -0.63748722584E+02  0.72749343155E+02  0.00000000000E+00 0. -1.
         11    1    5    5    0    0  0.12318123072E+02 -0.13992641724E+02  0.39540675526E+03  0.39584597040E+03  0.00000000000E+00 0. -1.
        -12    1    5    5    0    0 -0.29787826771E+02  0.78511609696E+02  0.23637590837E+04  0.23652501756E+04  0.00000000000E+00 0.  1.
          5    1    4    4  501    0  0.39122069894E+02 -0.11444357269E+03  0.45768626730E+03  0.47341531382E+03  0.41800000000E+01 0. -1.
         -5    1    4    4    0  501  0.24874283222E+02 -0.17923029050E+02  0.99592957901E+01  0.32505767316E+02  0.41800000000E+01 0. -1.
</event>
<event>
11    1  0.8864208E-009  0.1810935E+03  0.7561462E-02  0.1068762E+00
         22   -1    0    0    0    0  0.00000000000E+00  0.00000000000E+00  0.55918662201E+03  0.55918662201E+03  0.00000000000E+00 0. -1.
         22   -1    0    0    0    0 -0.00000000000E+00 -0.00000000000E+00 -0.10315008743E+04  0.10315008743E+04  0.00000000000E+00 0. -1.
         24    2    1    2    0    0  0.13045421677E+03  0.52666860706E+01 -0.98645131524E+03  0.99828123313E+03  0.80207122044E+02 0.  0.
         25    2    1    2    0    0 -0.15269750761E+03 -0.45031401775E+02  0.36063878964E+03  0.41359328986E+03  0.12511881092E+03 0.  0.
        -24    2    1    2    0    0  0.22243290841E+02  0.39764715705E+02  0.15349827336E+03  0.17881297327E+03  0.79601274386E+02 0.  0.
        -11    1    3    3    0    0  0.23447462427E+02 -0.30398045029E+02 -0.18587329969E+03  0.18979649147E+03  0.00000000000E+00 0.  1.
         12    1    3    3    0    0  0.10700675434E+03  0.35664731099E+02 -0.80057801555E+03  0.80848474166E+03  0.00000000000E+00 0. -1.
         11    1    5    5    0    0  0.48210794953E+02  0.11354686537E+02  0.11056863730E+03  0.12115540934E+03  0.00000000000E+00 0. -1.
        -12    1    5    5    0    0 -0.25967504113E+02  0.28410029168E+02  0.42929636055E+02  0.57657563935E+02  0.00000000000E+00 0.  1.
          5    1    4    4  501    0  0.43165257268E+01 -0.45007340334E+02  0.79559563620E+02  0.91605074323E+02  0.41800000000E+01 0.  1.
         -5    1    4    4    0  501 -0.15701403334E+03 -0.24061441444E-01  0.28107922602E+03  0.32198821553E+03  0.41800000000E+01 0.  1.
</event>
<event>
11    1  0.8864208E-009  0.2134898E+03  0.7561462E-02  0.1045374E+00
         22   -1    0    0    0    0  0.00000000000E+00  0.00000000000E+00  0.18155806588E+03  0.18155806588E+03  0.00000000000E+00 0. -1.
         22   -1    0    0    0    0 -0.00000000000E+00 -0.00000000000E+00 -0.23450921997E+04  0.23450921997E+04  0.00000000000E+00 0.  1.
        -24    2    1    2    0    0  0.66358158764E+02 -0.16304944807E+03 -0.22299192368E+04  0.22383698794E+04  0.82288434081E+02 0.  0.
         25    2    1    2    0    0 -0.58009012372E+02  0.94857016400E+02  0.87455951753E+01  0.16759031393E+03  0.12508848393E+03 0.  0.
         24    2    1    2    0    0 -0.83491463915E+01  0.68192431673E+02  0.57639507766E+02  0.12069007233E+03  0.80770444600E+02 0.  0.
        -11    1    5    5    0    0  0.26636089758E+02  0.13183343656E+02 -0.51670463908E+01  0.30165878007E+02  0.00000000000E+00 0.  1.
         12    1    5    5    0    0 -0.34985236150E+02  0.55009088017E+02  0.62806554157E+02  0.90524194324E+02  0.00000000000E+00 0. -1.
         13    1    3    3    0    0 -0.19562435715E+02 -0.25557166914E+02 -0.36450857592E+03  0.36592671341E+03  0.00000000000E+00 0. -1.
        -14    1    3    3    0    0  0.85920594479E+02 -0.13749228116E+03 -0.18654106609E+04  0.18724431659E+04  0.00000000000E+00 0.  1.
          5    1    4    4  501    0 -0.87100820684E+02  0.93498552994E+02 -0.16384395500E+02  0.12889706433E+03  0.41800000000E+01 0.  1.
         -5    1    4    4    0  501  0.29091808311E+02  0.13584634059E+01  0.25129990676E+02  0.38693249605E+02  0.41800000000E+01 0.  1.
</event>
<event>
11    1  0.8864208E-009  0.2366495E+03  0.7561462E-02  0.1031262E+00
         22   -1    0    0    0    0  0.00000000000E+00  0.00000000000E+00  0.66803351654E+03  0.66803351654E+03  0.00000000000E+00 0.  1.
         22   -1    0    0    0    0 -0.00000000000E+00 -0.00000000000E+00 -0.67957379198E+03  0.67957379198E+03  0.00000000000E+00 0. -1.
         24    2    1    2    0    0  0.19377364345E+03  0.63532266268E+02 -0.59358566154E+03  0.63276980287E+03  0.80430790646E+02 0.  0.
         25    2    1    2    0    0 -0.17578457468E+03 -0.12501636182E+02  0.12951978499E+03  0.25194904154E+03  0.12508571953E+03 0.  0.
        -24    2    1    2    0    0 -0.17989068771E+02 -0.51030630085E+02  0.45252560111E+03  0.46288846410E+03  0.80985052568E+02 0.  0.
        -13    1    3    3    0    0  0.12263570512E+03  0.18645310911E+02 -0.25060098818E+03  0.27962120640E+03  0.00000000000E+00 0.  1.
         14    1    3    3    0    0  0.71137938325E+02  0.44886955357E+02 -0.34298467336E+03  0.35314859647E+03  0.00000000000E+00 0. -1.
         13    1    5    5    0    0  0.97603423227E+01  0.10774763283E+02  0.18118677099E+02  0.23230287684E+02  0.00000000000E+00 0. -1.
        -14    1    5    5    0    0 -0.27749411093E+02 -0.61805393368E+02  0.43440692401E+03  0.43965817642E+03  0.00000000000E+00 0.  1.
          5    1    4    4  501    0  0.13641087433E+00 -0.46826310735E+01 -0.19962023111E+02  0.20926070065E+02  0.41800000000E+01 0. -1.
         -5    1    4    4    0  501 -0.17592098555E+03 -0.78190051088E+01  0.14948180810E+03  0.23102297148E+03  0.41800000000E+01 0. -1.
</event>
<event>
11    1  0.8993381E-009  0.2221288E+03  0.7561462E-02  0.1039892E+00
         22   -1    0    0    0    0  0.00000000000E+00  0.00000000000E+00  0.39250180643E+03  0.39250180643E+03  0.00000000000E+00 0.  1.
         22   -1    0    0    0    0 -0.00000000000E+00 -0.00000000000E+00 -0.54010166519E+03  0.54010166519E+03  0.00000000000E+00 0.  1.
        -24    2    1    2    0    0  0.14514665038E+02  0.24404367741E+02 -0.19059382162E+03  0.20877343098E+03  0.80337363534E+02 0.  0.
         25    2    1    2    0    0 -0.61345045466E+01 -0.20573770649E+03 -0.26472952103E+03  0.35790339406E+03  0.12508990428E+03 0.  0.
         24    2    1    2    0    0 -0.83801604914E+01  0.18133333875E+03  0.30772348389E+03  0.36592664658E+03  0.79098428001E+02 0.  0.
        -13    1    5    5    0    0 -0.37968172808E+02  0.90937371905E+02  0.19460751118E+03  0.21813590068E+03  0.00000000000E+00 0.  1.
         14    1    5    5    0    0  0.29588012317E+02  0.90395966848E+02  0.11311597270E+03  0.14779074591E+03  0.00000000000E+00 0. -1.
         13    1    3    3    0    0  0.21818020700E+02 -0.25235931507E+02 -0.56680500487E+02  0.65768969900E+02  0.00000000000E+00 0. -1.
        -14    1    3    3    0    0 -0.73033556623E+01  0.49640299248E+02 -0.13391332113E+03  0.14300446108E+03  0.00000000000E+00 0.  1.
          5    1    4    4  501    0 -0.50012537944E+02 -0.14689434462E+03 -0.12231088549E+03  0.19762749693E+03  0.41800000000E+01 0. -1.
         -5    1    4    4    0  501  0.43878033397E+02 -0.58843361877E+02 -0.14241863554E+03  0.16027589713E+03  0.41800000000E+01 0. -1.
</event>
<event>
11    1  0.8864208E-009  0.2017411E+03  0.7561462E-02  0.1053299E+00
         22   -1    0    0    0    0  0.00000000000E+00  0.00000000000E+00  0.36753550660E+03  0.36753550660E+03  0.00000000000E+00 0. -1.
         22   -1    0    0    0    0 -0.00000000000E+00 -0.00000000000E+00 -0.53455648782E+03  0.53455648782E+03  0.00000000000E+00 0. -1.
        -24    2    1    2    0    0  0.16657349523E+01  0.94711181667E+02 -0.36040309465E+03  0.38226231051E+03  0.85212093060E+02 0.  0.
         25    2    1    2    0    0 -0.75392584325E+01  0.79519642795E+02 -0.94894940175E+02  0.17615980122E+03  0.12508801657E+03 0.  0.
         24    2    1    2    0    0  0.58735234802E+01 -0.17423082446E+03  0.28827705361E+03  0.34366988268E+03  0.67929744239E+02 0.  0.
        -11    1    5    5    0    0 -0.11195341254E+02  0.27966672847E+00  0.24404875650E+02  0.26851663538E+02  0.00000000000E+00 0.  1.
         12    1    5    5    0    0  0.17068864734E+02 -0.17451049119E+03  0.26387217796E+03  0.31681821914E+03  0.00000000000E+00 0. -1.
         13    1    3    3    0    0  0.22632092890E+02 -0.41499867205E+01 -0.38328587698E+02  0.44704749784E+02  0.00000000000E+00 0. -1.
        -14    1    3    3    0    0 -0.20966357938E+02  0.98861168387E+02 -0.32207450695E+03  0.33755756073E+03  0.00000000000E+00 0.  1.
          5    1    4    4  501    0  0.41001803326E+02  0.80972219899E+02 -0.88786691400E+02  0.12703620445E+03  0.41800000000E+01 0. -1.
         -5    1    4    4    0  501 -0.48541061758E+02 -0.14525771042E+01 -0.61082487747E+01  0.49123596773E+02  0.41800000000E+01 0. -1.
</event>
<event>
11    1  0.8864208E-009  0.2976705E+03  0.7561462E-02  0.1001182E+00
         22   -1    0    0    0    0  0.00000000000E+00  0.00000000000E+00  0.15938718852E+04  0.15938718852E+04  0.00000000000E+00 0.  1.
         22   -1    0    0    0    0 -0.00000000000E+00 -0.00000000000E+00 -0.17965790938E+04  0.17965790938E+04  0.00000000000E+00 0.  1.
         24    2    1    2    0    0 -0.14022906473E+03 -0.16811243627E+03 -0.15486522098E+04  0.15661426376E+04  0.80951297022E+02 0.  0.
         25    2    1    2    0    0  0.40118343177E+03  0.18230607577E+03  0.73945681911E+01  0.45813261769E+03  0.12508862685E+03 0.  0.
        -24    2    1    2    0    0 -0.26095436704E+03 -0.14193639507E+02  0.13385504330E+04  0.13661757238E+04  0.80126183666E+02 0.  0.
        -13    1    3    3    0    0 -0.24582829884E+02 -0.41148146825E+02 -0.61215369475E+03  0.61402738661E+03  0.00000000000E+00 0.  1.
         14    1    3    3    0    0 -0.11564623485E+03 -0.12696428944E+03 -0.93649851508E+03  0.95211525099E+03  0.00000000000E+00 0. -1.
         11    1    5    5    0    0 -0.97418176554E+02 -0.38809606780E+02  0.42267520884E+03  0.43548917193E+03  0.00000000000E+00 0. -1.
        -12    1    5    5    0    0 -0.16353619048E+03  0.24615967273E+02  0.91587522421E+03  0.93068655184E+03  0.00000000000E+00 0.  1.
          5    1    4    4  501    0  0.23360407818E+03  0.12083768292E+03  0.64212095860E+02  0.27076424544E+03  0.41800000000E+01 0. -1.
         -5    1    4    4    0  501  0.16757935359E+03  0.61468392855E+02 -0.56817527669E+02  0.18736837226E+03  0.41800000000E+01 0. -1.
</event>
<event>
11    1  0.8864208E-009  0.1950342E+03  0.7561462E-02  0.1058092E+00
         22   -1    0    0    0    0  0.00000000000E+00  0.00000000000E+00  0.23303452773E+03  0.23303452773E+03  0.00000000000E+00 0. -1.
         22   -1    0    0    0    0 -0.00000000000E+00 -0.00000000000E+00 -0.38386792860E+03  0.38386792860E+03  0.00000000000E+00 0.  1.
         24    2    1    2    0    0  0.15657564420E+03  0.28970061768E+02 -0.25048296839E+03  0.30743716407E+03  0.80129242860E+02 0.  0.
         25    2    1    2    0    0 -0.94900336718E+02 -0.82577866085E+02  0.45696275212E+02  0.18319580209E+03  0.12508946581E+03 0.  0.
        -24    2    1    2    0    0 -0.61675307482E+02  0.53607804318E+02  0.53953292313E+02  0.12626949018E+03  0.79720675872E+02 0.  0.
        -13    1    3    3    0    0  0.13058056123E+03  0.60465017832E+00 -0.22834998659E+03  0.26305011870E+03  0.00000000000E+00 0.  1.
         14    1    3    3    0    0  0.25995082969E+02  0.28365411590E+02 -0.22132981806E+02  0.44387045372E+02  0.00000000000E+00 0. -1.
         13    1    5    5    0    0  0.81616065149E+01  0.35752081756E+02  0.37257960225E+02  0.52277899450E+02  0.00000000000E+00 0. -1.
        -14    1    5    5    0    0 -0.69836913997E+02  0.17855722562E+02  0.16695332087E+02  0.73991590727E+02  0.00000000000E+00 0.  1.
          5    1    4    4  501    0  0.11070631828E+02  0.18984259395E+02  0.27164896582E+02  0.35190410628E+02  0.41800000000E+01 0. -1.
         -5    1    4    4    0  501 -0.10597096855E+03 -0.10156212548E+03  0.18531378630E+02  0.14800539146E+03  0.41800000000E+01 0. -1.
</event>
<event>
11    1  0.8864208E-009  0.1564685E+03  0.7561462E-02  0.1090447E+00
         22   -1    0    0    0    0  0.00000000000E+00  0.00000000000E+00  0.24071275074E+04  0.24071275074E+04  0.00000000000E+00 0.  1.
         22   -1    0    0    0    0 -0.00000000000E+00 -0.00000000000E+00 -0.60054085144E+02  0.60054085144E+02  0.00000000000E+00 0.  1.
        -24    2    1    2    0    0  0.12913961061E+02 -0.89136819744E+02  0.54269798416E+02  0.13526645931E+03  0.85086197298E+02 0.  0.
         25    2    1    2    0    0  0.65617733445E+02  0.26172677636E+02  0.27716989603E+03  0.31218952845E+03  0.12509378246E+03 0.  0.
         24    2    1    2    0    0 -0.78531694506E+02  0.62964142107E+02  0.20156337278E+04  0.20197256048E+04  0.79877930001E+02 0.  0.
        -11    1    5    5    0    0 -0.57108046869E+02  0.38763349700E+01  0.60771742241E+03  0.61040709407E+03  0.00000000000E+00 0.  1.
         12    1    5    5    0    0 -0.21423647637E+02  0.59087807137E+02  0.14079163054E+04  0.14093185107E+04  0.00000000000E+00 0. -1.
         11    1    3    3    0    0 -0.62721083233E+01  0.39281372801E+01  0.38181433552E+02  0.38892048974E+02  0.00000000000E+00 0. -1.
        -12    1    3    3    0    0  0.19186069384E+02 -0.93064957024E+02  0.16088364864E+02  0.96374410339E+02  0.00000000000E+00 0.  1.
          5    1    4    4  501    0 -0.12347491453E+01 -0.18938911775E+02  0.19849518864E+03  0.19944427617E+03  0.41800000000E+01 0.  1.
         -5    1    4    4    0  501  0.66852482590E+02  0.45111589411E+02  0.78674707389E+02  0.11274525227E+03  0.41800000000E+01 0.  1.
</event>
<event>
11    1  0.8864208E-009  0.1389615E+03  0.7561462E-02  0.1108724E+00
         22   -1    0    0    0    0  0.00000000000E+00  0.00000000000E+00  0.87431948624E+03  0.87431948624E+03  0.00000000000E+00 0. -1.
         22   -1    0    0    0    0 -0.00000000000E+00 -0.00000000000E+00 -0.13247108176E+04  0.13247108176E+04  0.00000000000E+00 0. -1.
        -24    2    1    2    0    0  0.41759516749E+02  0.28157249730E+02 -0.12736967382E+04  0.12772202567E+04  0.80321324712E+02 0.  0.
         25    2    1    2    0    0  0.13146412607E+02 -0.56967156190E+02  0.57471095494E+02  0.14956213673E+03  0.12509125021E+03 0.  0.
         24    2    1    2    0    0 -0.54905929357E+02  0.28809906461E+02  0.76583431136E+03  0.77224791043E+03  0.77588471612E+02 0.  0.
        -11    1    5    5    0    0 -0.23049225061E+01 -0.91320970081E+01  0.10385841741E+02  0.14020469756E+02  0.00000000000E+00 0.  1.
         12    1    5    5    0    0 -0.52601006850E+02  0.37942003469E+02  0.75544846961E+03  0.75822744067E+03  0.00000000000E+00 0. -1.
         13    1    3    3    0    0  0.10989467378E+02  0.43860928148E+02 -0.35415679702E+03  0.35703163205E+03  0.00000000000E+00 0. -1.
        -14    1    3    3    0    0  0.30770049371E+02 -0.15703678418E+02 -0.91953994120E+03  0.92018862464E+03  0.00000000000E+00 0.  1.
          5    1    4    4  501    0 -0.28279430152E+02 -0.50689259985E+02 -0.19877105360E+02  0.61495519878E+02  0.41800000000E+01 0. -1.
         -5    1    4    4    0  501  0.41425842759E+02 -0.62778962055E+01  0.77348200854E+02  0.88066616855E+02  0.41800000000E+01 0. -1.
</event>
<event>
11    1  0.8864208E-009  0.1453651E+03  0.7561462E-02  0.1101711E+00
         22   -1    0    0    0    0  0.00000000000E+00  0.00000000000E+00  0.10486355841E+04  0.10486355841E+04  0.00000000000E+00 0.  1.
         22   -1    0    0    0    0 -0.00000000000E+00 -0.00000000000E+00 -0.16243042283E+03  0.16243042283E+03  0.00000000000E+00 0. -1.
         24    2    1    2    0    0 -0.90946966061E+02 -0.27665533983E+02 -0.57394722953E+02  0.13709261640E+03  0.80395888216E+02 0.  0.
         25    2    1    2    0    0  0.41980732790E+02 -0.25212267655E+02  0.10601999934E+02  0.13470070210E+03  0.12503534052E+03 0.  0.
        -24    2    1    2    0    0  0.48966233271E+02  0.52877801638E+02  0.93299788424E+03  0.93927268838E+03  0.80959108328E+02 0.  0.
        -11    1    3    3    0    0 -0.39465407653E+02 -0.53796917116E+02 -0.28919026005E+02  0.72718201005E+02  0.00000000000E+00 0.  1.
         12    1    3    3    0    0 -0.51481558408E+02  0.26131383133E+02 -0.28475696948E+02  0.64374415393E+02  0.00000000000E+00 0. -1.
         13    1    5    5    0    0  0.28919753736E+02  0.20136172054E+02  0.11279043941E+03  0.11816725774E+03  0.00000000000E+00 0. -1.
        -14    1    5    5    0    0  0.20046479535E+02  0.32741629584E+02  0.82020744484E+03  0.82110543064E+03  0.00000000000E+00 0.  1.
          5    1    4    4  501    0 -0.39466051520E+02  0.15294832782E+02  0.97580054754E+01  0.43637050808E+02  0.41800000000E+01 0.  1.
         -5    1    4    4    0  501  0.81446784309E+02 -0.40507100437E+02  0.84399445836E+00  0.91063651293E+02  0.41800000000E+01 0.  1.
</event>
<event>
11    1  0.8864208E-009  0.1646757E+03  0.7561462E-02  0.1082760E+00
         22   -1    0    0    0    0  0.00000000000E+00  0.00000000000E+00  0.12632498866E+04  0.12632498866E+04  0.00000000000E+00 0. -1.
         22   -1    0    0    0    0 -0.00000000000E+00 -0.00000000000E+00 -0.18623924658E+04  0.18623924658E+04  0.00000000000E+00 0.  1.
         24    2    1    2    0    0  0.68515978987E+01 -0.10720545440E+03 -0.18210383628E+04  0.18271290262E+04  0.10334314669E+03 0.  0.
         25    2    1    2    0    0 -0.90193172954E+02  0.78013496079E+02  0.17995510816E+03  0.24950532417E+03  0.12509257300E+03 0.  0.
        -24    2    1    2    0    0  0.83341575056E+02  0.29191958321E+02  0.10419406754E+04  0.10490080020E+04  0.83542975412E+02 0.  0.
        -13    1    3    3    0    0 -0.11133001391E+02 -0.12396596961E+03 -0.15111651601E+04  0.15162821791E+04  0.00000000000E+00 0.  1.
         14    1    3    3    0    0  0.17984599290E+02  0.16760515215E+02 -0.30987320264E+03  0.31084684717E+03  0.00000000000E+00 0. -1.
         13    1    5    5    0    0  0.56696472095E+02 -0.66512309677E+01  0.85104342852E+03  0.85295582890E+03  0.00000000000E+00 0. -1.
        -14    1    5    5    0    0  0.26645102961E+02  0.35843189288E+02  0.19089724685E+03  0.19605217312E+03  0.00000000000E+00 0.  1.
          5    1    4    4  501    0 -0.13902993093E+02  0.39990581445E+02 -0.78099799970E+01  0.43255150085E+02  0.41800000000E+01 0. -1.
         -5    1    4    4    0  501 -0.76290179861E+02  0.38022914633E+02  0.18776508815E+03  0.20625017408E+03  0.41800000000E+01 0. -1.
</event>
<event>
11    1  0.8864208E-009  0.1308307E+03  0.7561462E-02  0.1118252E+00
         22   -1    0    0    0    0  0.00000000000E+00  0.00000000000E+00  0.52553727488E+02  0.52553727488E+02  0.00000000000E+00 0.  1.
         22   -1    0    0    0    0 -0.00000000000E+00 -0.00000000000E+00 -0.15429753174E+04  0.15429753174E+04  0.00000000000E+00 0.  1.
        -24    2    1    2    0    0 -0.38099201223E+02 -0.13811449578E+02 -0.92261426235E+03  0.92704582472E+03  0.80960352988E+02 0.  0.
         25    2    1    2    0    0  0.33480189987E+02 -0.27819217150E+01 -0.57225187107E+03  0.58672725801E+03  0.12509200270E+03 0.  0.
         24    2    1    2    0    0  0.46190112364E+01  0.16593371293E+02  0.44445434894E+01  0.81755962182E+02  0.79797294126E+02 0.  0.
        -13    1    5    5    0    0 -0.21245788958E+01 -0.78287993230E+01  0.38479950242E+02  0.39325697768E+02  0.00000000000E+00 0.  1.
         14    1    5    5    0    0  0.67435901322E+01  0.24422170616E+02 -0.34035406752E+02  0.42430264414E+02  0.00000000000E+00 0. -1.
         11    1    3    3    0    0  0.21719672926E+02 -0.20974814315E+02 -0.28819243295E+03  0.28976984908E+03  0.00000000000E+00 0. -1.
        -12    1    3    3    0    0 -0.59818874149E+02  0.71633647366E+01 -0.63442182940E+03  0.63727597563E+03  0.00000000000E+00 0.  1.
          5    1    4    4  501    0 -0.64786624475E+01  0.12742792295E+02 -0.22057455737E+01  0.15056212542E+02  0.41800000000E+01 0.  1.
         -5    1    4    4    0  501  0.39958852434E+02 -0.15524714010E+02 -0.57004612550E+03  0.57167104547E+03  0.41800000000E+01 0.  1.
</event>
<event>
11    1  0.8864208E-009  0.1472144E+03  0.7561462E-02  0.1099760E+00
         22   -1    0    0    0    0  0.00000000000E+00  0.00000000000E+00  0.28193561598E+03  0.28193561598E+03  0.00000000000E+00 0. -1.
         22   -1    0    0    0    0 -0.00000000000E+00 -0.00000000000E+00 -0.33065382863E+03  0.33065382863E+03  0.00000000000E+00 0.  1.
         24    2    1    2    0    0  0.34625920302E+02 -0.65517737830E+02 -0.24094948548E+03  0.26098594107E+03  0.67568325101E+02 0.  0.
         25    2    1    2    0    0 -0.28542848149E+02  0.12084414116E+03  0.59388423443E+02  0.18599029691E+03  0.12508958819E+03 0.  0.
        -24    2    1    2    0    0 -0.60830721528E+01 -0.55326403333E+02  0.13284284939E+03  0.16561320662E+03  0.81746540593E+02 0.  0.
        -11    1    3    3    0    0 -0.10521372806E+02 -0.51337241300E+01 -0.10397604940E+03  0.10463304095E+03  0.00000000000E+00 0.  1.
         12    1    3    3    0    0  0.45147293107E+02 -0.60384013700E+02 -0.13697343608E+03  0.15635290012E+03  0.00000000000E+00 0. -1.
         13    1    5    5    0    0  0.16400351447E+02 -0.57267397704E+02  0.12983271942E+03  0.14284628591E+03  0.00000000000E+00 0. -1.
        -14    1    5    5    0    0 -0.22483423600E+02  0.19409943709E+01  0.30101299730E+01  0.22766920705E+02  0.00000000000E+00 0.  1.
          5    1    4    4  501    0  0.37043311711E+02  0.15063488547E+02  0.45445973963E+02  0.60678864353E+02  0.41800000000E+01 0.  1.
         -5    1    4    4    0  501 -0.65586159860E+02  0.10578065262E+03  0.13942449480E+02  0.12531143256E+03  0.41800000000E+01 0.  1.
</event>
<event>
11    1  0.1798705E-008  0.1653284E+03  0.7561462E-02  0.1082170E+00
         22   -1    0    0    0    0  0.00000000000E+00  0.00000000000E+00  0.59166364760E+03  0.59166364760E+03  0.00000000000E+00 0.  1.
         22   -1    0    0    0    0 -0.00000000000E+00 -0.00000000000E+00 -0.10407831853E+04  0.10407831853E+04  0.00000000000E+00 0. -1.
        -24    2    1    2    0    0  0.91954917251E+01 -0.56800971519E+01 -0.72320867917E+03  0.72775366552E+03  0.80484678543E+02 0.  0.
         25    2    1    2    0    0  0.59335035569E+02  0.89327857426E+02 -0.28521525130E+03  0.32938693779E+03  0.12509157707E+03 0.  0.
         24    2    1    2    0    0 -0.68530527294E+02 -0.83647760274E+02  0.55930439280E+03  0.57530622955E+03  0.80389507918E+02 0.  0.
        -13    1    5    5    0    0 -0.28726883159E+02 -0.71695779625E+02  0.47583690449E+03  0.48206459972E+03  0.00000000000E+00 0.  1.
         14    1    5    5    0    0 -0.39803644135E+02 -0.11951980649E+02  0.83467488309E+02  0.93241629826E+02  0.00000000000E+00 0. -1.
         13    1    3    3    0    0 -0.10581661641E+02 -0.69406244907E+01 -0.68107106273E+03  0.68118862022E+03  0.00000000000E+00 0. -1.
        -14    1    3    3    0    0  0.19777153366E+02  0.12605273389E+01 -0.42137616440E+02  0.46565045299E+02  0.00000000000E+00 0.  1.
          5    1    4    4  501    0 -0.24893859300E+02  0.47613935918E+02 -0.41120884843E+02  0.67787835890E+02  0.41800000000E+01 0. -1.
         -5    1    4    4    0  501  0.84228894869E+02  0.41713921509E+02 -0.24409436646E+03  0.26159910190E+03  0.41800000000E+01 0. -1.
</event>
<event>
11    1  0.8864208E-009  0.1530874E+03  0.7561462E-02  0.1093765E+00
         22   -1    0    0    0    0  0.00000000000E+00  0.00000000000E+00  0.64529126098E+03  0.64529126098E+03  0.00000000000E+00 0.  1.
         22   -1    0    0    0    0 -0.00000000000E+00 -0.00000000000E+00 -0.16800492814E+04  0.16800492814E+04  0.00000000000E+00 0. -1.
        -24    2    1    2    0    0 -0.70686299125E+02  0.43633323761E+02 -0.13557794063E+04  0.13606627781E+04  0.79780808041E+02 0.  0.
         25    2    1    2    0    0  0.14014521183E+03 -0.66701790303E+02 -0.28581028795E+03  0.34846682179E+03  0.12510713795E+03 0.  0.
         24    2    1    2    0    0 -0.69458912710E+02  0.23068466542E+02  0.60683167377E+03  0.61621094255E+03  0.78195592746E+02 0.  0.
        -11    1    5    5    0    0 -0.57380506313E+02  0.33097531640E+02  0.23803345033E+03  0.24707871738E+03  0.00000000000E+00 0.  1.
         12    1    5    5    0    0 -0.12078406397E+02 -0.10029065099E+02  0.36879822344E+03  0.36913222517E+03  0.00000000000E+00 0. -1.
         11    1    3    3    0    0 -0.70024501178E+02  0.23249933687E+02 -0.12818573291E+04  0.12839790506E+04  0.00000000000E+00 0. -1.
        -12    1    3    3    0    0 -0.66179794623E+00  0.20383390074E+02 -0.73922077190E+02  0.76683727501E+02  0.00000000000E+00 0.  1.
          5    1    4    4  501    0 -0.31998543451E+01  0.14779046644E+02 -0.94843363342E+02  0.96132175974E+02  0.41800000000E+01 0.  1.
         -5    1    4    4    0  501  0.14334506618E+03 -0.81480836947E+02 -0.19096692461E+03  0.25233464582E+03  0.41800000000E+01 0.  1.
</event>
<event>
11    1  0.8864208E-009  0.1912990E+03  0.7561462E-02  0.1060853E+00
         22   -1    0    0    0    0  0.00000000000E+00  0.00000000000E+00  0.21066735642E+03  0.21066735642E+03  0.00000000000E+00 0.  1.
         22   -1    0    0    0    0 -0.00000000000E+00 -0.00000000000E+00 -0.13753522055E+04  0.13753522055E+04  0.00000000000E+00 0.  1.
         24    2    1    2    0    0  0.11718029520E+03  0.77014371307E+02 -0.10708975478E+04  0.10830479359E+04  0.80677373288E+02 0.  0.
         25    2    1    2    0    0 -0.14957470781E+03 -0.89975408762E+02 -0.24674520046E+03  0.32711469448E+03  0.12511059907E+03 0.  0.
        -24    2    1    2    0    0  0.32394412611E+02  0.12961037454E+02  0.15295789914E+03  0.17585693159E+03  0.79449071862E+02 0.  0.
        -11    1    3    3    0    0  0.12596876121E+03  0.74838105417E+02 -0.89474200504E+03  0.90665987361E+03  0.00000000000E+00 0.  1.
         12    1    3    3    0    0 -0.87884660129E+01  0.21762658904E+01 -0.17615554277E+03  0.17638806228E+03  0.00000000000E+00 0. -1.
         11    1    5    5    0    0  0.14427351823E+02 -0.30615967846E+02  0.34332919493E+02  0.48210323880E+02  0.00000000000E+00 0. -1.
        -12    1    5    5    0    0  0.17967060788E+02  0.43577005300E+02  0.11862497965E+03  0.12764660771E+03  0.00000000000E+00 0.  1.
          5    1    4    4  501    0 -0.11920146313E+03 -0.34308193585E+02 -0.77475067307E+02  0.14630755078E+03  0.41800000000E+01 0.  1.
         -5    1    4    4    0  501 -0.30373244674E+02 -0.55667215176E+02 -0.16927013315E+03  0.18080714370E+03  0.41800000000E+01 0.  1.
</event>
<event>
11    1  0.8864208E-009  0.1648439E+03  0.7561462E-02  0.1082608E+00
         22   -1    0    0    0    0  0.00000000000E+00  0.00000000000E+00  0.26157481717E+03  0.26157481717E+03  0.00000000000E+00 0.  1.
         22   -1    0    0    0    0 -0.00000000000E+00 -0.00000000000E+00 -0.97221211456E+03  0.97221211456E+03  0.00000000000E+00 0.  1.
        -24    2    1    2    0    0  0.42294090108E+02 -0.32087233147E+02 -0.87824508653E+03  0.88358170869E+03  0.81140762404E+02 0.  0.
         25    2    1    2    0    0 -0.10543051517E+03  0.93290035548E+02  0.96010852675E+02  0.21138644927E+03  0.12509005892E+03 0.  0.
         24    2    1    2    0    0  0.63136425059E+02 -0.61202802401E+02  0.71596936466E+02  0.13881877377E+03  0.80078333212E+02 0.  0.
        -11    1    5    5    0    0  0.22267367210E+02 -0.22990393465E+01  0.62698970275E+02  0.66575386577E+02  0.00000000000E+00 0.  1.
         12    1    5    5    0    0  0.40869057850E+02 -0.58903763054E+02  0.88979661916E+01  0.72243387198E+02  0.00000000000E+00 0. -1.
         11    1    3    3    0    0  0.10250463476E+02 -0.35005707815E+02 -0.14121957633E+03  0.14585417484E+03  0.00000000000E+00 0. -1.
        -12    1    3    3    0    0  0.32043626632E+02  0.29184746685E+01 -0.73702551020E+03  0.73772753384E+03  0.00000000000E+00 0.  1.
          5    1    4    4  501    0 -0.52767972796E+01 -0.26868390695E+02  0.31990669084E+02  0.42315840019E+02  0.41800000000E+01 0. -1.
         -5    1    4    4    0  501 -0.10015371789E+03  0.12015842624E+03  0.64020183591E+02  0.16907060925E+03  0.41800000000E+01 0. -1.
</event>
<event>
11    1  0.8864208E-009  0.1546768E+03  0.7561462E-02  0.1092194E+00
         22   -1    0    0    0    0  0.00000000000E+00  0.00000000000E+00  0.22880929145E+03  0.22880929145E+03  0.00000000000E+00 0. -1.
         22   -1    0    0    0    0 -0.00000000000E+00 -0.00000000000E+00 -0.48065744391E+03  0.48065744391E+03  0.00000000000E+00 0. -1.
         24    2    1    2    0    0 -0.79654220253E+02  0.35322242166E+02 -0.30560401638E+03  0.32724519703E+03  0.78122650713E+02 0.  0.
         25    2    1    2    0    0  0.72463100973E+02 -0.97503877335E+02 -0.97017736703E+02  0.19954405617E+03  0.12508989576E+03 0.  0.
        -24    2    1    2    0    0  0.71911192798E+01  0.62181635169E+02  0.15077360063E+03  0.18267748215E+03  0.81976312974E+02 0.  0.
        -11    1    3    3    0    0 -0.53933377152E+02  0.23728705637E+02 -0.77258912539E+02  0.97163780335E+02  0.00000000000E+00 0.  1.
         12    1    3    3    0    0 -0.25720843100E+02  0.11593536529E+02 -0.22834510385E+03  0.23008141670E+03  0.00000000000E+00 0. -1.
         11    1    5    5    0    0  0.20667305851E+02  0.19755108086E+02  0.13079701232E+03  0.13388525033E+03  0.00000000000E+00 0. -1.
        -12    1    5    5    0    0 -0.13476186571E+02  0.42426527084E+02  0.19976588317E+02  0.48792231817E+02  0.00000000000E+00 0.  1.
          5    1    4    4  501    0  0.64335694503E+01 -0.10581285305E+03 -0.46238286495E+02  0.11572900338E+03  0.41800000000E+01 0. -1.
         -5    1    4    4    0  501  0.66029531522E+02  0.83089757141E+01 -0.50779450208E+02  0.83815052789E+02  0.41800000000E+01 0. -1.
</event>
<event>
11    1  0.8864208E-009  0.1632538E+03  0.7561462E-02  0.1084056E+00
         22   -1    0    0    0    0  0.00000000000E+00  0.00000000000E+00  0.30134543478E+04  0.30134543478E+04  0.00000000000E+00 0. -1.
         22   -1    0    0    0    0 -0.00000000000E+00 -0.00000000000E+00 -0.19136275116E+03  0.19136275116E+03  0.00000000000E+00 0.  1.
        -24    2    1    2    0    0 -0.43820917982E+01 -0.10582842602E+03 -0.15404215033E+03  0.20455394406E+03  0.83032966169E+02 0.  0.
         25    2    1    2    0    0  0.61058547018E+02  0.78318735059E+02  0.57057238855E+03  0.59250533854E+03  0.12509098768E+03 0.  0.
         24    2    1    2    0    0 -0.56676455220E+02  0.27509690959E+02  0.24055613584E+04  0.24077578164E+04  0.81260380389E+02 0.  0.
        -11    1    5    5    0    0 -0.37987481701E+01  0.45359959614E+02  0.88074328359E+03  0.88191875363E+03  0.00000000000E+00 0.  1.
         12    1    5    5    0    0 -0.52877707049E+02 -0.17850268655E+02  0.15248180749E+04  0.15258390627E+04  0.00000000000E+00 0. -1.
         13    1    3    3    0    0 -0.15609333945E+02 -0.76014081413E+02 -0.42344068575E+02  0.88401425456E+02  0.00000000000E+00 0. -1.
        -14    1    3    3    0    0  0.11227242147E+02 -0.29814344606E+02 -0.11169808176E+03  0.11615251861E+03  0.00000000000E+00 0.  1.
          5    1    4    4  501    0  0.90667302208E+02  0.19165412958E+02  0.35914189281E+03  0.37092889388E+03  0.41800000000E+01 0. -1.
         -5    1    4    4    0  501 -0.29608755190E+02  0.59153322101E+02  0.21143049575E+03  0.22157644467E+03  0.41800000000E+01 0. -1.
</event>
<event>
11    1  0.8864208E-009  0.2716961E+03  0.7561462E-02  0.1012937E+00
         22   -1    0    0    0    0  0.00000000000E+00  0.00000000000E+00  0.49789354242E+03  0.49789354242E+03  0.00000000000E+00 0.  1.
         22   -1    0    0    0    0 -0.00000000000E+00 -0.00000000000E+00 -0.21971586778E+03  0.21971586778E+03  0.00000000000E+00 0.  1.
         24    2    1    2    0    0  0.66680339185E+01 -0.51786107864E+02  0.15791077355E+02  0.96174135604E+02  0.79207591751E+02 0.  0.
         25    2    1    2    0    0 -0.24170660379E+03  0.79928485799E+02  0.38457075327E+02  0.28624634121E+03  0.12508947219E+03 0.  0.
        -24    2    1    2    0    0  0.23503856987E+03 -0.28142377936E+02  0.22392952195E+03  0.33518893339E+03  0.78562506948E+02 0.  0.
        -11    1    3    3    0    0  0.25061555496E+02 -0.52137364010E+02 -0.15488548812E+02  0.59885569497E+02  0.00000000000E+00 0.  1.
         12    1    3    3    0    0 -0.18393521577E+02  0.35125614574E+00  0.31279626167E+02  0.36288566106E+02  0.00000000000E+00 0. -1.
         13    1    5    5    0    0  0.69043994678E+02 -0.45096888252E+02  0.78295588555E+02  0.11371456247E+03  0.00000000000E+00 0. -1.
        -14    1    5    5    0    0  0.16599457520E+03  0.16954510316E+02  0.14563393340E+03  0.22147437091E+03  0.00000000000E+00 0.  1.
          5    1    4    4  501    0 -0.84850210077E+02  0.44562829494E+02  0.74436194541E+02  0.12142332305E+03  0.41800000000E+01 0. -1.
         -5    1    4    4    0  501 -0.15685639371E+03  0.35365656306E+02 -0.35979119214E+02  0.16482301816E+03  0.41800000000E+01 0. -1.
</event>
<event>
11    1  0.8864208E-009  0.2100437E+03  0.7561462E-02  0.1047640E+00
         22   -1    0    0    0    0  0.00000000000E+00  0.00000000000E+00  0.59772492846E+03  0.59772492846E+03  0.00000000000E+00 0.  1.
         22   -1    0    0    0    0 -0.00000000000E+00 -0.00000000000E+00 -0.22207519399E+03  0.22207519399E+03  0.00000000000E+00 0. -1.
        -24    2    1    2    0    0 -0.74720136378E+02 -0.15105851285E+03 -0.12833633857E+03  0.22758584969E+03  0.83206550804E+02 0.  0.
         25    2    1    2    0    0  0.67433793317E+02  0.15615571518E+03  0.23348426154E+03  0.31478945913E+03  0.12508229022E+03 0.  0.
         24    2    1    2    0    0  0.72863430608E+01 -0.50972023392E+01  0.27050181150E+03  0.27742481363E+03  0.60944441313E+02 0.  0.
        -13    1    5    5    0    0 -0.18117149236E+02 -0.13558375328E+02  0.21058643751E+03  0.21179874481E+03  0.00000000000E+00 0.  1.
         14    1    5    5    0    0  0.25403492297E+02  0.84611729890E+01  0.59915373988E+02  0.65626068824E+02  0.00000000000E+00 0. -1.
         13    1    3    3    0    0 -0.14228199456E+02 -0.11817051975E+03 -0.84316470561E+02  0.14586288289E+03  0.00000000000E+00 0. -1.
        -14    1    3    3    0    0 -0.60491936921E+02 -0.32887993098E+02 -0.44019868010E+02  0.81722966797E+02  0.00000000000E+00 0.  1.
          5    1    4    4  501    0  0.38854587249E+02  0.81436135524E+01  0.11881261714E+03  0.12533917098E+03  0.41800000000E+01 0. -1.
         -5    1    4    4    0  501  0.28579206068E+02  0.14801210163E+03  0.11467164440E+03  0.18945028815E+03  0.41800000000E+01 0. -1.
</event>
<event>
11    1  0.8864208E-009  0.1842361E+03  0.7561462E-02  0.1066267E+00
         22   -1    0    0    0    0  0.00000000000E+00  0.00000000000E+00  0.77880515369E+03  0.77880515369E+03  0.00000000000E+00 0. -1.
         22   -1    0    0    0    0 -0.00000000000E+00 -0.00000000000E+00 -0.14306919112E+03  0.14306919112E+03  0.00000000000E+00 0.  1.
         24    2    1    2    0    0 -0.81709747666E+01  0.16522388995E+01 -0.45885689964E+02  0.92870982433E+02  0.80312067042E+02 0.  0.
         25    2    1    2    0    0  0.64627117807E+02  0.12098209457E+03  0.71161380302E+02  0.19880441307E+03  0.12508365620E+03 0.  0.
        -24    2    1    2    0    0 -0.56456143040E+02 -0.12263433347E+03  0.61046027223E+03  0.63019894931E+03  0.79135933069E+02 0.  0.
        -11    1    3    3    0    0 -0.24790983483E+02 -0.30725341100E+02 -0.39637589404E+02  0.55944418323E+02  0.00000000000E+00 0.  1.
         12    1    3    3    0    0  0.16620008716E+02  0.32377579999E+02 -0.62481005594E+01  0.36926564110E+02  0.00000000000E+00 0. -1.
         11    1    5    5    0    0 -0.30072645665E+02 -0.86618450702E+02  0.53270043253E+03  0.54053387575E+03  0.00000000000E+00 0. -1.
        -12    1    5    5    0    0 -0.26383497375E+02 -0.36015882763E+02  0.77759839704E+02  0.89665073556E+02  0.00000000000E+00 0.  1.
          5    1    4    4  501    0 -0.28189618761E+02  0.69927364589E+02  0.50373303902E+02  0.90771322951E+02  0.41800000000E+01 0.  1.
         -5    1    4    4    0  501  0.92816736568E+02  0.51054729976E+02  0.20788076399E+02  0.10803309012E+03  0.41800000000E+01 0.  1.
</event>
<event>
11    1  0.8864208E-009  0.2093837E+03  0.7561462E-02  0.1048079E+00
         22   -1    0    0    0    0  0.00000000000E+00  0.00000000000E+00  0.36669204880E+03  0.36669204880E+03  0.00000000000E+00 0.  1.
         22   -1    0    0    0    0 -0.00000000000E+00 -0.00000000000E+00 -0.36653488533E+04  0.36653488533E+04  0.00000000000E+00 0.  1.
         24    2    1    2    0    0  0.72305276969E+01  0.16606480922E+03 -0.33700290623E+04  0.33750694118E+04  0.79798822366E+02 0.  0.
         25    2    1    2    0    0 -0.55091491643E+02 -0.19994352725E+03 -0.23321622703E+03  0.33622814290E+03  0.12508824479E+03 0.  0.
        -24    2    1    2    0    0  0.47860963947E+02  0.33878718027E+02  0.30458848490E+03  0.32074334737E+03  0.81631552393E+02 0.  0.
        -13    1    3    3    0    0  0.85146956753E+01  0.17457619218E+03 -0.31196598079E+04  0.31245522342E+04  0.00000000000E+00 0.  1.
         14    1    3    3    0    0 -0.12841679783E+01 -0.85113829569E+01 -0.25036925443E+03  0.25051717764E+03  0.00000000000E+00 0. -1.
         11    1    5    5    0    0  0.31623154146E+02 -0.22572037492E+02  0.85436496448E+02  0.93855823900E+02  0.00000000000E+00 0. -1.
        -12    1    5    5    0    0  0.16237809800E+02  0.56450755519E+02  0.21915198845E+03  0.22688752347E+03  0.00000000000E+00 0.  1.
          5    1    4    4  501    0 -0.18828983879E+02 -0.70937599403E+02 -0.77615655131E+01  0.73921498512E+02  0.41800000000E+01 0. -1.
         -5    1    4    4    0  501 -0.36262507765E+02 -0.12900592785E+03 -0.22545466152E+03  0.26230664438E+03  0.41800000000E+01 0. -1.
</event>
<event>
11    1  0.8864208E-009  0.1564771E+03  0.7561462E-02  0.1090438E+00
         22   -1    0    0    0    0  0.00000000000E+00  0.00000000000E+00  0.80451195809E+03  0.80451195809E+03  0.00000000000E+00 0.  1.
         22   -1    0    0    0    0 -0.00000000000E+00 -0.00000000000E+00 -0.44035486319E+03  0.44035486319E+03  0.00000000000E+00 0.  1.
        -24    2    1    2    0    0 -0.84928312804E+02  0.34968322567E+02 -0.26583063227E+03  0.29274439425E+03  0.81226556084E+02 0.  0.
         25    2    1    2    0    0  0.10990903115E+03  0.10741199375E+02 -0.11400364079E+03  0.20210953016E+03  0.12512419260E+03 0.  0.
         24    2    1    2    0    0 -0.24980718344E+02 -0.45709521942E+02  0.74399136797E+03  0.75001289687E+03  0.79264072408E+02 0.  0.
        -11    1    5    5    0    0  0.28512401563E+02 -0.10617180603E+02  0.27503170451E+03  0.27670945060E+03  0.00000000000E+00 0.  1.
         12    1    5    5    0    0 -0.53493119907E+02 -0.35092341339E+02  0.46895966346E+03  0.47330344627E+03  0.00000000000E+00 0. -1.
         13    1    3    3    0    0 -0.84177317214E+02  0.25166287634E+02 -0.13207754371E+03  0.15863051510E+03  0.00000000000E+00 0. -1.
        -14    1    3    3    0    0 -0.75099558972E+00  0.98020349327E+01 -0.13375308856E+03  0.13411387915E+03  0.00000000000E+00 0.  1.
          5    1    4    4  501    0  0.52664475115E+02  0.16964176338E+02 -0.13071663281E+03  0.14200577703E+03  0.41800000000E+01 0.  1.
         -5    1    4    4    0  501  0.57244556032E+02 -0.62229769630E+01  0.16712992015E+02  0.60103753125E+02  0.41800000000E+01 0.  1.
</event>
<event>
11    1  0.8864208E-009  0.1276385E+03  0.7561462E-02  0.1122205E+00
         22   -1    0    0    0    0  0.00000000000E+00  0.00000000000E+00  0.26458420014E+03  0.26458420014E+03  0.00000000000E+00 0.  1.
         22   -1    0    0    0    0 -0.00000000000E+00 -0.00000000000E+00 -0.23452116655E+03  0.23452116655E+03  0.00000000000E+00 0.  1.
        -24    2    1    2    0    0  0.16182802405E+02  0.10217108070E+02 -0.13189370714E+03  0.15519398289E+03  0.79516978998E+02 0.  0.
         25    2    1    2    0    0 -0.27456531938E+02  0.12657045209E+02 -0.31732298102E+02  0.13254724808E+03  0.12509105600E+03 0.  0.
         24    2    1    2    0    0  0.11273729533E+02 -0.22874153278E+02  0.19368903884E+03  0.21136413572E+03  0.80678561198E+02 0.  0.
        -11    1    5    5    0    0  0.21235683553E+02 -0.49170402826E+02  0.15126018034E+03  0.16046284593E+03  0.00000000000E+00 0.  1.
         12    1    5    5    0    0 -0.99619540199E+01  0.26296249547E+02  0.42428858505E+02  0.50901289789E+02  0.00000000000E+00 0. -1.
         13    1    3    3    0    0  0.16584422226E+02 -0.33569027923E+02 -0.69881992017E+02  0.79280612412E+02  0.00000000000E+00 0. -1.
        -14    1    3    3    0    0 -0.40161982067E+00  0.43786135993E+02 -0.62011715126E+02  0.75913370473E+02  0.00000000000E+00 0.  1.
          5    1    4    4  501    0 -0.49379647134E+02 -0.44901028558E+02 -0.14067198871E+02  0.68336011010E+02  0.41800000000E+01 0. -1.
         -5    1    4    4    0  501  0.21923115196E+02  0.57558073766E+02 -0.17665099231E+02  0.64211237073E+02  0.41800000000E+01 0. -1.
</event>
<event>
11    1  0.8864208E-009  0.1459852E+03  0.7561462E-02  0.1101053E+00
         22   -1    0    0    0    0  0.00000000000E+00  0.00000000000E+00  0.50350490456E+02  0.50350490456E+02  0.00000000000E+00 0. -1.
         22   -1    0    0    0    0 -0.00000000000E+00 -0.00000000000E+00 -0.18530604942E+04  0.18530604942E+04  0.00000000000E+00 0. -1.
        -24    2    1    2    0    0  0.78072381150E+01 -0.76495313950E+02 -0.14421430450E+04  0.14463777007E+04  0.79494684422E+02 0.  0.
         25    2    1    2    0    0 -0.36698154453E+02  0.59795618730E+02 -0.33770556879E+03  0.36689935818E+03  0.12509123584E+03 0.  0.
         24    2    1    2    0    0  0.28890916338E+02  0.16699695220E+02 -0.22861389936E+02  0.90133925744E+02  0.80547604266E+02 0.  0.
        -11    1    5    5    0    0 -0.19329667622E+02  0.25427026266E+02 -0.25775708637E+02  0.41043353553E+02  0.00000000000E+00 0.  1.
         12    1    5    5    0    0  0.48220583960E+02 -0.87273310459E+01  0.29143187011E+01  0.49090572192E+02  0.00000000000E+00 0. -1.
         11    1    3    3    0    0  0.36614297384E+02 -0.24441929734E+02 -0.87879585197E+03  0.87989781460E+03  0.00000000000E+00 0. -1.
        -12    1    3    3    0    0 -0.28807059269E+02 -0.52053384217E+02 -0.56334719305E+03  0.56647988613E+03  0.00000000000E+00 0.  1.
          5    1    4    4  501    0 -0.18829963311E+02  0.70617457318E+02 -0.33775332320E+03  0.34559538847E+03  0.41800000000E+01 0.  1.
         -5    1    4    4    0  501 -0.17868191142E+02 -0.10821838587E+02  0.47754413130E-01  0.21303969714E+02  0.41800000000E+01 0.  1.
</event>
<event>
11    1  0.8864208E-009  0.1598055E+03  0.7561462E-02  0.1087260E+00
         22   -1    0    0    0    0  0.00000000000E+00  0.00000000000E+00  0.11981642629E+04  0.11981642629E+04  0.00000000000E+00 0. -1.
         22   -1    0    0    0    0 -0.00000000000E+00 -0.00000000000E+00 -0.17171966121E+03  0.17171966121E+03  0.00000000000E+00 0.  1.
        -24    2    1    2    0    0  0.54304912078E+02  0.32237664248E+02 -0.11445467982E+03  0.15368814774E+03  0.80820062798E+02 0.  0.
         25    2    1    2    0    0 -0.13974775948E+03  0.10379398403E+02  0.23008756045E+03  0.29702579324E+03  0.12508744214E+03 0.  0.
         24    2    1    2    0    0  0.85442847404E+02 -0.42617062651E+02  0.91081172110E+03  0.91916998318E+03  0.78605168268E+02 0.  0.
        -11    1    5    5    0    0  0.37332138913E+02 -0.17511809142E+02  0.12796813899E+03  0.13444774692E+03  0.00000000000E+00 0.  1.
         12    1    5    5    0    0  0.48110708491E+02 -0.25105253509E+02  0.78284358211E+03  0.78472223626E+03  0.00000000000E+00 0. -1.
         13    1    3    3    0    0  0.64094201964E+01 -0.14417568462E+02  0.52052423353E+01  0.16614496543E+02  0.00000000000E+00 0. -1.
        -14    1    3    3    0    0  0.47895491882E+02  0.46655232710E+02 -0.11965992216E+03  0.13707365120E+03  0.00000000000E+00 0.  1.
          5    1    4    4  501    0 -0.51354327309E+02  0.40948841160E+02  0.22930482613E+02  0.69694719733E+02  0.41800000000E+01 0. -1.
         -5    1    4    4    0  501 -0.88393432173E+02 -0.30569442757E+02  0.20715707784E+03  0.22733107350E+03  0.41800000000E+01 0. -1.
</event>
<event>
11    1  0.8864208E-009  0.1602484E+03  0.7561462E-02  0.1086844E+00
         22   -1    0    0    0    0  0.00000000000E+00  0.00000000000E+00  0.15381739250E+04  0.15381739250E+04  0.00000000000E+00 0.  1.
         22   -1    0    0    0    0 -0.00000000000E+00 -0.00000000000E+00 -0.67653345776E+02  0.67653345776E+02  0.00000000000E+00 0.  1.
         24    2    1    2    0    0  0.73022701865E+01 -0.17473936555E+02 -0.22241813299E+02  0.83764777390E+02  0.78505911012E+02 0.  0.
         25    2    1    2    0    0  0.94983696526E+02  0.19269561742E+02  0.62812756975E+03  0.64775363606E+03  0.12508921028E+03 0.  0.
        -24    2    1    2    0    0 -0.10228596671E+03 -0.17956251870E+01  0.86463482273E+03  0.87430885729E+03  0.79730533664E+02 0.  0.
        -13    1    3    3    0    0 -0.82222167073E+01 -0.37357840281E+02  0.13021154309E+02  0.40407468834E+02  0.00000000000E+00 0.  1.
         14    1    3    3    0    0  0.15524486894E+02  0.19883903726E+02 -0.35262967608E+02  0.43357308556E+02  0.00000000000E+00 0. -1.
         13    1    5    5    0    0 -0.58432388376E+02  0.24495954476E+02  0.26379077593E+03  0.27129314267E+03  0.00000000000E+00 0. -1.
        -14    1    5    5    0    0 -0.43853578336E+02 -0.26291579663E+02  0.60084404680E+03  0.60301571461E+03  0.00000000000E+00 0.  1.
          5    1    4    4  501    0  0.94682386261E+01 -0.20705216122E+02  0.40216093611E+03  0.40282656870E+03  0.41800000000E+01 0.  1.
         -5    1    4    4    0  501  0.85515457899E+02  0.39974777863E+02  0.22596663364E+03  0.24492706736E+03  0.41800000000E+01 0.  1.
</event>
<event>
11    1  0.8864208E-009  0.1565727E+03  0.7561462E-02  0.1090346E+00
         22   -1    0    0    0    0  0.00000000000E+00  0.00000000000E+00  0.12031968975E+04  0.12031968975E+04  0.00000000000E+00 0.  1.
         22   -1    0    0    0    0 -0.00000000000E+00 -0.00000000000E+00 -0.44712412077E+03  0.44712412077E+03  0.00000000000E+00 0.  1.
        -24    2    1    2    0    0 -0.12585305036E+02 -0.32458504565E+02 -0.42223449350E+03  0.43115930088E+03  0.80027687795E+02 0.  0.
         25    2    1    2    0    0  0.85063891655E+02 -0.31546000209E+02  0.36680013933E+03  0.39802115047E+03  0.12508988053E+03 0.  0.
         24    2    1    2    0    0 -0.72478586619E+02  0.64004504775E+02  0.81150713093E+03  0.82114056695E+03  0.79864165911E+02 0.  0.
        -11    1    5    5    0    0 -0.35847862189E+02  0.73733230709E+02  0.65493137610E+03  0.66004300310E+03  0.00000000000E+00 0.  1.
         12    1    5    5    0    0 -0.36630724430E+02 -0.97287259338E+01  0.15657575482E+03  0.16109756385E+03  0.00000000000E+00 0. -1.
         13    1    3    3    0    0 -0.64616510337E+01  0.26483639629E+02 -0.16064810102E+03  0.16294461778E+03  0.00000000000E+00 0. -1.
        -14    1    3    3    0    0 -0.61236540027E+01 -0.58942144194E+02 -0.26158639247E+03  0.26821468310E+03  0.00000000000E+00 0.  1.
          5    1    4    4  501    0  0.14369447757E+02 -0.58766660393E+02  0.74634520017E+02  0.96165406362E+02  0.41800000000E+01 0. -1.
         -5    1    4    4    0  501  0.70694443898E+02  0.27220660184E+02  0.29216561932E+03  0.30185574411E+03  0.41800000000E+01 0. -1.
</event>
<event>
11    1  0.8864208E-009  0.2380388E+03  0.7561462E-02  0.1030471E+00
         22   -1    0    0    0    0  0.00000000000E+00  0.00000000000E+00  0.15518681741E+03  0.15518681741E+03  0.00000000000E+00 0.  1.
         22   -1    0    0    0    0 -0.00000000000E+00 -0.00000000000E+00 -0.23917892449E+04  0.23917892449E+04  0.00000000000E+00 0. -1.
        -24    2    1    2    0    0 -0.77409015399E+02 -0.18326833529E+03 -0.21055814106E+04  0.21169951505E+04  0.92822153772E+02 0.  0.
         25    2    1    2    0    0  0.80140799116E+02  0.25905298432E+03 -0.99764846641E+02  0.31485129765E+03  0.12508924270E+03 0.  0.
         24    2    1    2    0    0 -0.27317837169E+01 -0.75784649025E+02 -0.31256170271E+02  0.11512961418E+03  0.80790495797E+02 0.  0.
        -13    1    5    5    0    0  0.88394436150E+01 -0.46159805422E+02  0.22934071860E+02  0.52295650413E+02  0.00000000000E+00 0.  1.
         14    1    5    5    0    0 -0.11571227332E+02 -0.29624843603E+02 -0.54190242131E+02  0.62833963767E+02  0.00000000000E+00 0. -1.
         11    1    3    3    0    0 -0.66214151750E+02 -0.18936580133E+03 -0.20573573520E+04  0.20671146544E+04  0.00000000000E+00 0. -1.
        -12    1    3    3    0    0 -0.11194863650E+02  0.60974660423E+01 -0.48224058598E+02  0.49880496108E+02  0.00000000000E+00 0.  1.
          5    1    4    4  501    0  0.25096570197E+02  0.24729789177E+02 -0.61627542123E+02  0.71111367984E+02  0.41800000000E+01 0. -1.
         -5    1    4    4    0  501  0.55044228919E+02  0.23432319514E+03 -0.38137304517E+02  0.24373992966E+03  0.41800000000E+01 0. -1.
</event>
<event>
11    1  0.8864208E-009  0.1402079E+03  0.7561462E-02  0.1107327E+00
         22   -1    0    0    0    0  0.00000000000E+00  0.00000000000E+00  0.11981545393E+03  0.11981545393E+03  0.00000000000E+00 0.  1.
         22   -1    0    0    0    0 -0.00000000000E+00 -0.00000000000E+00 -0.15220786583E+04  0.15220786583E+04  0.00000000000E+00 0. -1.
        -24    2    1    2    0    0  0.58506607220E+02  0.12082830523E+02 -0.11999946677E+04  0.12038568752E+04  0.75598647628E+02 0.  0.
         25    2    1    2    0    0 -0.11704976181E+03 -0.11954523229E+02 -0.26893941262E+03  0.31909262592E+03  0.12509252133E+03 0.  0.
         24    2    1    2    0    0  0.58543154591E+02 -0.12830729420E+00  0.66670875965E+02  0.11894461111E+03  0.79218037068E+02 0.  0.
        -13    1    5    5    0    0  0.36301032996E+02  0.54336240737E+01  0.83028766723E+02  0.90780313783E+02  0.00000000000E+00 0.  1.
         14    1    5    5    0    0  0.22242121595E+02 -0.55619313679E+01 -0.16357890758E+02  0.28164297322E+02  0.00000000000E+00 0. -1.
         13    1    3    3    0    0 -0.54713548636E+01  0.88012933073E+00 -0.65241666712E+03  0.65244020253E+03  0.00000000000E+00 0. -1.
        -14    1    3    3    0    0  0.63977962083E+02  0.11202701193E+02 -0.54757800057E+03  0.55141667263E+03  0.00000000000E+00 0.  1.
          5    1    4    4  501    0  0.11989316438E+02  0.14170745837E+02  0.65570039670E+00  0.19038279576E+02  0.41800000000E+01 0.  1.
         -5    1    4    4    0  501 -0.12903907825E+03 -0.26125269066E+02 -0.26959511302E+03  0.30005434635E+03  0.41800000000E+01 0.  1.
</event>
<event>
11    1  0.8864208E-009  0.1500818E+03  0.7561462E-02  0.1096795E+00
         22   -1    0    0    0    0  0.00000000000E+00  0.00000000000E+00  0.59116050082E+03  0.59116050082E+03  0.00000000000E+00 0.  1.
         22   -1    0    0    0    0 -0.00000000000E+00 -0.00000000000E+00 -0.42246644781E+03  0.42246644781E+03  0.00000000000E+00 0. -1.
         24    2    1    2    0    0  0.71401641858E+02  0.51021469033E+02 -0.29334880490E+03  0.31620627412E+03  0.78939861246E+02 0.  0.
         25    2    1    2    0    0 -0.28583952451E+02 -0.66467923784E+02 -0.67755875993E+02  0.15959689925E+03  0.12508111084E+03 0.  0.
        -24    2    1    2    0    0 -0.42817689407E+02  0.15446454751E+02  0.52979873391E+03  0.53782377527E+03  0.80596323140E+02 0.  0.
        -11    1    3    3    0    0  0.65231956997E+02  0.34418176992E+02 -0.11268575810E+03  0.13467701808E+03  0.00000000000E+00 0.  1.
         12    1    3    3    0    0  0.61696848605E+01  0.16603292041E+02 -0.18066304680E+03  0.18152925603E+03  0.00000000000E+00 0. -1.
         11    1    5    5    0    0 -0.33035493804E+02  0.21141872669E+02  0.93692961380E+02  0.10157112603E+03  0.00000000000E+00 0. -1.
        -12    1    5    5    0    0 -0.97821956028E+01 -0.56954179182E+01  0.43610577252E+03  0.43625264924E+03  0.00000000000E+00 0.  1.
          5    1    4    4  501    0 -0.55474711607E+02 -0.50067309784E+02 -0.92742365836E+02  0.11917549227E+03  0.41800000000E+01 0.  1.
         -5    1    4    4    0  501  0.26890759156E+02 -0.16400614000E+02  0.24986489843E+02  0.40421406980E+02  0.41800000000E+01 0.  1.
</event>
<event>
11    1  0.8864208E-009  0.1685701E+03  0.7561462E-02  0.1079283E+00
         22   -1    0    0    0    0  0.00000000000E+00  0.00000000000E+00  0.17269025450E+03  0.17269025450E+03  0.00000000000E+00 0.  1.
         22   -1    0    0    0    0 -0.00000000000E+00 -0.00000000000E+00 -0.13992986992E+04  0.13992986992E+04  0.00000000000E+00 0.  1.
        -24    2    1    2    0    0  0.53889456284E+01  0.10765002512E+03 -0.77726063873E+03  0.78877146819E+03  0.80054730385E+02 0.  0.
         25    2    1    2    0    0 -0.40425369212E+02 -0.20935339966E+03 -0.55784830722E+03  0.61016732760E+03  0.12508548027E+03 0.  0.
         24    2    1    2    0    0  0.35036423584E+02  0.10170337453E+03  0.10850050126E+03  0.17305015791E+03  0.81258051964E+02 0.  0.
        -13    1    5    5    0    0  0.58786763490E+02  0.89879810970E+02  0.94488476973E+02  0.14304662269E+03  0.00000000000E+00 0.  1.
         14    1    5    5    0    0 -0.23750339907E+02  0.11823563565E+02  0.14012024283E+02  0.30003535218E+02  0.00000000000E+00 0. -1.
         11    1    3    3    0    0 -0.16803858159E+02 -0.22954811913E+01 -0.47403020451E+02  0.50345657516E+02  0.00000000000E+00 0. -1.
        -12    1    3    3    0    0  0.22192803787E+02  0.10994550631E+03 -0.72985761828E+03  0.73842581067E+03  0.00000000000E+00 0.  1.
          5    1    4    4  501    0  0.28043309661E+02 -0.17164582853E+02 -0.15591265245E+03  0.15939660509E+03  0.41800000000E+01 0.  1.
         -5    1    4    4    0  501 -0.68468678873E+02 -0.19218881680E+03 -0.40193565477E+03  0.45077072250E+03  0.41800000000E+01 0.  1.
</event>
<event>
11    1  0.8864208E-009  0.1401756E+03  0.7561462E-02  0.1107363E+00
         22   -1    0    0    0    0  0.00000000000E+00  0.00000000000E+00  0.95320973739E+03  0.95320973739E+03  0.00000000000E+00 0. -1.
         22   -1    0    0    0    0 -0.00000000000E+00 -0.00000000000E+00 -0.35585073219E+03  0.35585073219E+03  0.00000000000E+00 0.  1.
        -24    2    1    2    0    0 -0.62617137019E+02 -0.75672626213E+01 -0.29308329881E+03  0.31009367097E+03  0.79259670851E+02 0.  0.
         25    2    1    2    0    0  0.67110002779E+02 -0.13184121902E+02  0.45174296471E+02  0.14955409397E+03  0.12509251144E+03 0.  0.
         24    2    1    2    0    0 -0.44928657605E+01  0.20751384523E+02  0.84526800753E+03  0.84941270464E+03  0.81074857027E+02 0.  0.
        -11    1    5    5    0    0  0.24392696490E+02  0.12247379882E+02  0.10364835550E+03  0.10718201134E+03  0.00000000000E+00 0.  1.
         12    1    5    5    0    0 -0.28885562250E+02  0.85040046412E+01  0.74161965203E+03  0.74223069330E+03  0.00000000000E+00 0. -1.
         11    1    3    3    0    0 -0.61564014972E+02  0.22040527636E+02 -0.14480890111E+03  0.15888842197E+03  0.00000000000E+00 0. -1.
        -12    1    3    3    0    0 -0.10531220465E+01 -0.29607790257E+02 -0.14827439770E+03  0.15120524899E+03  0.00000000000E+00 0.  1.
          5    1    4    4  501    0  0.29272046187E+02 -0.68712873333E+02  0.29620949370E+02  0.80456104127E+02  0.41800000000E+01 0.  1.
         -5    1    4    4    0  501  0.37837956592E+02  0.55528751432E+02  0.15553347101E+02  0.69097989845E+02  0.41800000000E+01 0.  1.
</event>
<event>
11    1  0.8864208E-009  0.1520094E+03  0.7561462E-02  0.1094843E+00
         22   -1    0    0    0    0  0.00000000000E+00  0.00000000000E+00  0.92993590285E+03  0.92993590285E+03  0.00000000000E+00 0.  1.
         22   -1    0    0    0    0 -0.00000000000E+00 -0.00000000000E+00 -0.84835946334E+02  0.84835946334E+02  0.00000000000E+00 0. -1.
         24    2    1    2    0    0 -0.36634868585E+02  0.43403899212E+02 -0.10839435990E+02  0.10069814866E+03  0.82441565414E+02 0.  0.
         25    2    1    2    0    0 -0.25970205737E+02 -0.10109199049E+03  0.26152491221E+03  0.30812056988E+03  0.12509581827E+03 0.  0.
        -24    2    1    2    0    0  0.62605074322E+02  0.57688091278E+02  0.59441448029E+03  0.60595313065E+03  0.81260758981E+02 0.  0.
        -11    1    3    3    0    0  0.32546956541E+01 -0.22372428953E+02 -0.70363092213E+01  0.23677590006E+02  0.00000000000E+00 0.  1.
         12    1    3    3    0    0 -0.39889564239E+02  0.65776328165E+02 -0.38031267683E+01  0.77020558653E+02  0.00000000000E+00 0. -1.
         13    1    5    5    0    0 -0.11545870100E+02 -0.63854511599E+01  0.26037482572E+02  0.29189580360E+02  0.00000000000E+00 0. -1.
        -14    1    5    5    0    0  0.74150944422E+02  0.64073542438E+02  0.56837699772E+03  0.57676355029E+03  0.00000000000E+00 0.  1.
          5    1    4    4  501    0  0.18981366721E+02  0.22327240644E+02  0.68318880966E+02  0.74456294924E+02  0.41800000000E+01 0. -1.
         -5    1    4    4    0  501 -0.44951572459E+02 -0.12341923113E+03  0.19320603124E+03  0.23366427495E+03  0.41800000000E+01 0. -1.
</event>
<event>
11    1  0.8864208E-009  0.1843552E+03  0.7561462E-02  0.1066173E+00
         22   -1    0    0    0    0  0.00000000000E+00  0.00000000000E+00  0.94134046644E+03  0.94134046644E+03  0.00000000000E+00 0. -1.
         22   -1    0    0    0    0 -0.00000000000E+00 -0.00000000000E+00 -0.53812231116E+03  0.53812231116E+03  0.00000000000E+00 0.  1.
        -24    2    1    2    0    0  0.26597560217E+02 -0.13032722464E+03 -0.46225237303E+03  0.48757217365E+03  0.79729244684E+02 0.  0.
         25    2    1    2    0    0 -0.39915187047E+02  0.16579745440E+03  0.12374235797E+03  0.24503665473E+03  0.12509505571E+03 0.  0.
         24    2    1    2    0    0  0.13317626830E+02 -0.35470229762E+02  0.74172817034E+03  0.74685394922E+03  0.78706076106E+02 0.  0.
        -11    1    5    5    0    0  0.75766798739E+01  0.22373983348E+02  0.11289578587E+03  0.11534062457E+03  0.00000000000E+00 0.  1.
         12    1    5    5    0    0  0.57409469560E+01 -0.57844213110E+02  0.62883238446E+03  0.63151332465E+03  0.00000000000E+00 0. -1.
         13    1    3    3    0    0  0.24241459770E+02 -0.12965525066E+03 -0.33123036183E+03  0.35652725701E+03  0.00000000000E+00 0. -1.
        -14    1    3    3    0    0  0.23561004468E+01 -0.67197397874E+00 -0.13102201120E+03  0.13104491664E+03  0.00000000000E+00 0.  1.
          5    1    4    4  501    0  0.31764037328E+02  0.12407899506E+03  0.68599836062E+02  0.14535460429E+03  0.41800000000E+01 0.  1.
         -5    1    4    4    0  501 -0.71679224375E+02  0.41718459343E+02  0.55142521903E+02  0.99682050434E+02  0.41800000000E+01 0.  1.
</event>
<event>
11    1  0.8864208E-009  0.1460177E+03  0.7561462E-02  0.1101019E+00
         22   -1    0    0    0    0  0.00000000000E+00  0.00000000000E+00  0.15495244598E+04  0.15495244598E+04  0.00000000000E+00 0.  1.
         22   -1    0    0    0    0 -0.00000000000E+00 -0.00000000000E+00 -0.46363698419E+03  0.46363698419E+03  0.00000000000E+00 0.  1.
        -24    2    1    2    0    0 -0.39295577517E+02 -0.65666545008E+02 -0.43407668363E+03  0.44805613545E+03  0.80470464763E+02 0.  0.
         25    2    1    2    0    0  0.58354298428E+02  0.59117693894E+01  0.21123779088E+03  0.25240640296E+03  0.12508962706E+03 0.  0.
         24    2    1    2    0    0 -0.19058720911E+02  0.59754775619E+02  0.13087263683E+04  0.13126989055E+04  0.80497462264E+02 0.  0.
        -11    1    5    5    0    0 -0.46397229746E+02  0.47945232391E+02  0.10773460034E+04  0.10794099588E+04  0.00000000000E+00 0.  1.
         12    1    5    5    0    0  0.27338508834E+02  0.11809543228E+02  0.23138036496E+03  0.23328894672E+03  0.00000000000E+00 0. -1.
         11    1    3    3    0    0 -0.17032139669E+02 -0.82840817074E+01 -0.14148298568E+02  0.23640942109E+02  0.00000000000E+00 0. -1.
        -12    1    3    3    0    0 -0.22263437848E+02 -0.57382463301E+02 -0.41992838506E+03  0.42441519334E+03  0.00000000000E+00 0.  1.
          5    1    4    4  501    0  0.95520532695E+02  0.63726640599E+01  0.17896613569E+03  0.20300525396E+03  0.41800000000E+01 0.  1.
         -5    1    4    4    0  501 -0.37166234267E+02 -0.46089467042E+00  0.32271655190E+02  0.49401148996E+02  0.41800000000E+01 0.  1.
</event>
<event>
11    1  0.8864208E-009  0.1699818E+03  0.7561462E-02  0.1078047E+00
         22   -1    0    0    0    0  0.00000000000E+00  0.00000000000E+00  0.50201433911E+03  0.50201433911E+03  0.00000000000E+00 0. -1.
         22   -1    0    0    0    0 -0.00000000000E+00 -0.00000000000E+00 -0.31478390825E+03  0.31478390825E+03  0.00000000000E+00 0. -1.
         24    2    1    2    0    0 -0.45671296493E+02  0.95470344672E+02 -0.13087541304E+03  0.18785218932E+03  0.83424320552E+02 0.  0.
         25    2    1    2    0    0  0.29807895410E+02 -0.13215562158E+03 -0.94492852785E+02  0.20719610037E+03  0.12509079039E+03 0.  0.
        -24    2    1    2    0    0  0.15863401083E+02  0.36685276904E+02  0.41259869668E+03  0.42174995766E+03  0.77703830290E+02 0.  0.
        -13    1    3    3    0    0  0.23847567404E+02  0.15836146301E+02 -0.22023935039E+02  0.36118467788E+02  0.00000000000E+00 0.  1.
         14    1    3    3    0    0 -0.69518863896E+02  0.79634198370E+02 -0.10885147800E+03  0.15173372154E+03  0.00000000000E+00 0. -1.
         13    1    5    5    0    0  0.47288662886E+02  0.23280637182E+02  0.27199264204E+03  0.27705270803E+03  0.00000000000E+00 0. -1.
        -14    1    5    5    0    0 -0.31425261803E+02  0.13404639722E+02  0.14060605465E+03  0.14469724963E+03  0.00000000000E+00 0.  1.
          5    1    4    4  501    0  0.43160966899E+02 -0.11353008541E+02 -0.70034284303E+02  0.83150665929E+02  0.41800000000E+01 0.  1.
         -5    1    4    4    0  501 -0.13353071490E+02 -0.12080261303E+03 -0.24458568482E+02  0.12404543444E+03  0.41800000000E+01 0.  1.
</event>
<event>
11    1  0.8864208E-009  0.1427079E+03  0.7561462E-02  0.1104572E+00
         22   -1    0    0    0    0  0.00000000000E+00  0.00000000000E+00  0.68589515641E+03  0.68589515641E+03  0.00000000000E+00 0. -1.
         22   -1    0    0    0    0 -0.00000000000E+00 -0.00000000000E+00 -0.15151092638E+04  0.15151092638E+04  0.00000000000E+00 0.  1.
         24    2    1    2    0    0 -0.72582284207E+02 -0.68709061710E+01 -0.14504122171E+04  0.14545418621E+04  0.81737578798E+02 0.  0.
         25    2    1    2    0    0 -0.17647501328E+01  0.11497254494E+02  0.10927940489E+02  0.12610026398E+03  0.12508619224E+03 0.  0.
        -24    2    1    2    0    0  0.74347034339E+02 -0.46263483225E+01  0.61027016917E+03  0.62036229416E+03  0.82890361503E+02 0.  0.
        -13    1    3    3    0    0 -0.72168525792E+02  0.25634270263E+02 -0.95665903684E+03  0.95971971153E+03  0.00000000000E+00 0.  1.
         14    1    3    3    0    0 -0.41375841417E+00 -0.32505176434E+02 -0.49375318024E+03  0.49482215056E+03  0.00000000000E+00 0. -1.
         11    1    5    5    0    0  0.73961182731E+02  0.17773637068E+02  0.56226162921E+03  0.56738373118E+03  0.00000000000E+00 0. -1.
        -12    1    5    5    0    0  0.38585160823E+00 -0.22399985391E+02  0.48008539959E+02  0.52978562985E+02  0.00000000000E+00 0.  1.
          5    1    4    4  501    0 -0.10169597832E+02 -0.31543572312E+02 -0.44282189560E+02  0.55468931723E+02  0.41800000000E+01 0.  1.
         -5    1    4    4    0  501  0.84048476987E+01  0.43040826805E+02  0.55210130049E+02  0.70631332261E+02  0.41800000000E+01 0.  1.
</event>
<event>
11    1  0.8864208E-009  0.2266693E+03  0.7561462E-02  0.1037118E+00
         22   -1    0    0    0    0  0.00000000000E+00  0.00000000000E+00  0.45054365391E+03  0.45054365391E+03  0.00000000000E+00 0.  1.
         22   -1    0    0    0    0 -0.00000000000E+00 -0.00000000000E+00 -0.18541248801E+04  0.18541248801E+04  0.00000000000E+00 0.  1.
        -24    2    1    2    0    0  0.33250621550E+02 -0.25819030297E+02 -0.16424824050E+04  0.16449094343E+04  0.78780518780E+02 0.  0.
         25    2    1    2    0    0  0.15231376209E+03  0.76264479995E+02 -0.12172706401E+03  0.24388661055E+03  0.12508975841E+03 0.  0.
         24    2    1    2    0    0 -0.18556438364E+03 -0.50445449698E+02  0.36062824276E+03  0.41587248923E+03  0.76930578771E+02 0.  0.
        -13    1    5    5    0    0 -0.13806025276E+03 -0.30722388181E+02  0.32153021416E+03  0.35126368606E+03  0.00000000000E+00 0.  1.
         14    1    5    5    0    0 -0.47504130884E+02 -0.19723061517E+02  0.39098028603E+02  0.64608803172E+02  0.00000000000E+00 0. -1.
         11    1    3    3    0    0  0.27271977100E+02 -0.36471027276E+02 -0.43724920907E+03  0.43961433939E+03  0.00000000000E+00 0. -1.
        -12    1    3    3    0    0  0.59786444496E+01  0.10651996979E+02 -0.12052331959E+04  0.12052950949E+04  0.00000000000E+00 0.  1.
          5    1    4    4  501    0  0.84772979409E+02  0.35676147791E+02  0.76050878125E+01  0.92382657029E+02  0.41800000000E+01 0. -1.
         -5    1    4    4    0  501  0.67540782686E+02  0.40588332204E+02 -0.12933215182E+03  0.15150395352E+03  0.41800000000E+01 0. -1.
</event>
<event>
11    1  0.8864208E-009  0.2020662E+03  0.7561462E-02  0.1053072E+00
         22   -1    0    0    0    0  0.00000000000E+00  0.00000000000E+00  0.13519604449E+04  0.13519604449E+04  0.00000000000E+00 0. -1.
         22   -1    0    0    0    0 -0.00000000000E+00 -0.00000000000E+00 -0.74424153290E+03  0.74424153290E+03  0.00000000000E+00 0.  1.
        -24    2    1    2    0    0  0.49899873367E+02 -0.66985520464E+02 -0.65324285542E+03  0.66328489237E+03  0.79016219683E+02 0.  0.
         25    2    1    2    0    0  0.39345220771E+02  0.19557011022E+03  0.95382694655E+02  0.25404920355E+03  0.12508966774E+03 0.  0.
         24    2    1    2    0    0 -0.89245094138E+02 -0.12858458975E+03  0.11655790728E+04  0.11788678819E+04  0.81585688053E+02 0.  0.
        -13    1    5    5    0    0 -0.49817351231E+02 -0.10690074549E+02  0.40579381953E+03  0.40898003637E+03  0.00000000000E+00 0.  1.
         14    1    5    5    0    0 -0.39427742907E+02 -0.11789451520E+03  0.75978525327E+03  0.76988784555E+03  0.00000000000E+00 0. -1.
         11    1    3    3    0    0  0.54952935411E+00 -0.93159688020E+01 -0.49498613431E+01  0.10563635006E+02  0.00000000000E+00 0. -1.
        -12    1    3    3    0    0  0.49350344013E+02 -0.57669551662E+02 -0.64829299408E+03  0.65272125737E+03  0.00000000000E+00 0.  1.
          5    1    4    4  501    0  0.37172492397E+02  0.25084870198E+02  0.67631298008E+02  0.81255829170E+02  0.41800000000E+01 0. -1.
         -5    1    4    4    0  501  0.21727283743E+01  0.17048524002E+03  0.27751396647E+02  0.17279337438E+03  0.41800000000E+01 0. -1.
</event>
<event>
11    1  0.8864208E-009  0.1654356E+03  0.7561462E-02  0.1082074E+00
         22   -1    0    0    0    0  0.00000000000E+00  0.00000000000E+00  0.95277618583E+03  0.95277618583E+03  0.00000000000E+00 0.  1.
         22   -1    0    0    0    0 -0.00000000000E+00 -0.00000000000E+00 -0.57691672587E+03  0.57691672587E+03  0.00000000000E+00 0.  1.
        -24    2    1    2    0    0  0.10681046861E+03  0.16758783233E+02 -0.49851567759E+03  0.51688011652E+03  0.83413674112E+02 0.  0.
         25    2    1    2    0    0 -0.12343555670E+03  0.92515625213E+02  0.92333364380E+02  0.21901783297E+03  0.12509150018E+03 0.  0.
         24    2    1    2    0    0  0.16625088085E+02 -0.10927440845E+03  0.78204177317E+03  0.79379496221E+03  0.79396581445E+02 0.  0.
        -11    1    5    5    0    0  0.22435925008E+02 -0.84125692263E+02  0.73498616165E+03  0.74012509798E+03  0.00000000000E+00 0.  1.
         12    1    5    5    0    0 -0.58108369229E+01 -0.25148716184E+02  0.47055611520E+02  0.53669864235E+02  0.00000000000E+00 0. -1.
         13    1    3    3    0    0  0.45409229372E+02 -0.14683580812E+02 -0.83549633524E+02  0.96219264805E+02  0.00000000000E+00 0. -1.
        -14    1    3    3    0    0  0.61401239241E+02  0.31442364045E+02 -0.41496604406E+03  0.42066085171E+03  0.00000000000E+00 0.  1.
          5    1    4    4  501    0  0.51334999182E+00  0.26814133609E+02  0.72325678605E+02  0.77251132516E+02  0.41800000000E+01 0. -1.
         -5    1    4    4    0  501 -0.12394890669E+03  0.65701491605E+02  0.20007685775E+02  0.14176670046E+03  0.41800000000E+01 0. -1.
</event>
<event>
11    1  0.8864208E-009  0.1420878E+03  0.7561462E-02  0.1105249E+00
         22   -1    0    0    0    0  0.00000000000E+00  0.00000000000E+00  0.17850383285E+04  0.17850383285E+04  0.00000000000E+00 0.  1.
         22   -1    0    0    0    0 -0.00000000000E+00 -0.00000000000E+00 -0.12755521441E+03  0.12755521441E+03  0.00000000000E+00 0.  1.
        -24    2    1    2    0    0  0.55964457907E+02 -0.41853495235E+02 -0.85556420319E+02  0.13575496649E+03  0.78903575697E+02 0.  0.
         25    2    1    2    0    0 -0.40085272017E+01  0.55024321868E+02  0.28812577372E+03  0.31891788390E+03  0.12509360854E+03 0.  0.
         24    2    1    2    0    0 -0.51955930706E+02 -0.13170826633E+02  0.14549137607E+04  0.14579206925E+04  0.76719001668E+02 0.  0.
        -11    1    5    5    0    0 -0.23257968623E+02 -0.12802022429E+02  0.13058100398E+04  0.13060798923E+04  0.00000000000E+00 0.  1.
         12    1    5    5    0    0 -0.28697962083E+02 -0.36880420407E+00  0.14910372086E+03  0.15184080024E+03  0.00000000000E+00 0. -1.
         11    1    3    3    0    0 -0.51198955631E+01  0.14842253252E+02  0.82725370809E+00  0.15722282305E+02  0.00000000000E+00 0. -1.
        -12    1    3    3    0    0  0.61084353471E+02 -0.56695748487E+02 -0.86383674027E+02  0.12003268419E+03  0.00000000000E+00 0.  1.
          5    1    4    4  501    0 -0.98694045332E+01  0.43767202539E+02  0.29857447346E+03  0.30195556257E+03  0.41800000000E+01 0.  1.
         -5    1    4    4    0  501  0.58608773315E+01  0.11257119330E+02 -0.10448699737E+02  0.16962321330E+02  0.41800000000E+01 0.  1.
</event>
<event>
11    1  0.8864208E-009  0.1392454E+03  0.7561462E-02  0.1108404E+00
         22   -1    0    0    0    0  0.00000000000E+00  0.00000000000E+00  0.63163312365E+03  0.63163312365E+03  0.00000000000E+00 0.  1.
         22   -1    0    0    0    0 -0.00000000000E+00 -0.00000000000E+00 -0.13893847939E+04  0.13893847939E+04  0.00000000000E+00 0.  1.
        -24    2    1    2    0    0 -0.48648748256E+02 -0.32494291437E+02 -0.11748122440E+04  0.11790018987E+04  0.80243931826E+02 0.  0.
         25    2    1    2    0    0  0.92632510652E+02  0.42624297121E+02 -0.17771613817E+03  0.24005896421E+03  0.12509063833E+03 0.  0.
         24    2    1    2    0    0 -0.43983762397E+02 -0.10130005684E+02  0.59477671196E+03  0.60195705468E+03  0.80967710961E+02 0.  0.
        -13    1    5    5    0    0 -0.14656859222E+02 -0.22886967328E+02  0.51895895536E+03  0.51967012050E+03  0.00000000000E+00 0.  1.
         14    1    5    5    0    0 -0.29326903175E+02  0.12756961644E+02  0.75817756604E+02  0.82286934179E+02  0.00000000000E+00 0. -1.
         13    1    3    3    0    0 -0.72150181527E+01  0.20773834920E+02 -0.11763612603E+03  0.11967400240E+03  0.00000000000E+00 0. -1.
        -14    1    3    3    0    0 -0.41433730103E+02 -0.53268126357E+02 -0.10571761180E+04  0.10593278963E+04  0.00000000000E+00 0.  1.
          5    1    4    4  501    0  0.50245389859E+02  0.86550276115E+02 -0.10787933213E+03  0.14721063887E+03  0.41800000000E+01 0. -1.
         -5    1    4    4    0  501  0.42387120794E+02 -0.43925978994E+02 -0.69836806040E+02  0.92848325336E+02  0.41800000000E+01 0. -1.
</event>
<event>
11    1  0.8864208E-009  0.1824804E+03  0.7561462E-02  0.1067654E+00
         22   -1    0    0    0    0  0.00000000000E+00  0.00000000000E+00  0.30933099631E+03  0.30933099631E+03  0.00000000000E+00 0. -1.
         22   -1    0    0    0    0 -0.00000000000E+00 -0.00000000000E+00 -0.43104457761E+03  0.43104457761E+03  0.00000000000E+00 0. -1.
         24    2    1    2    0    0 -0.65904068806E+01  0.16660893205E+02 -0.32840614322E+03  0.33850475227E+03  0.80086538084E+02 0.  0.
         25    2    1    2    0    0  0.73158540236E+02  0.10303639727E+03  0.67052823251E+02  0.19003164002E+03  0.12508905600E+03 0.  0.
        -24    2    1    2    0    0 -0.66568133356E+02 -0.11969729047E+03  0.13963973866E+03  0.21183918164E+03  0.81350012533E+02 0.  0.
        -11    1    3    3    0    0  0.34504338568E+01 -0.31469535025E+02 -0.10104739220E+03  0.10589056898E+03  0.00000000000E+00 0.  1.
         12    1    3    3    0    0 -0.10040840737E+02  0.48130428230E+02 -0.22735875101E+03  0.23261418329E+03  0.00000000000E+00 0. -1.
         13    1    5    5    0    0 -0.71376482120E+02 -0.92511647595E+02  0.14227459969E+03  0.18410613476E+03  0.00000000000E+00 0. -1.
        -14    1    5    5    0    0  0.48083487639E+01 -0.27185642877E+02 -0.26348610261E+01  0.27733046878E+02  0.00000000000E+00 0.  1.
          5    1    4    4  501    0  0.29152983072E+02  0.11283667659E+03  0.81763778764E+02  0.14242471669E+03  0.41800000000E+01 0. -1.
         -5    1    4    4    0  501  0.44005557165E+02 -0.98002793271E+01 -0.14710955514E+02  0.47606923324E+02  0.41800000000E+01 0. -1.
</event>
<event>
11    1  0.8864208E-009  0.1830656E+03  0.7561462E-02  0.1067190E+00
         22   -1    0    0    0    0  0.00000000000E+00  0.00000000000E+00  0.97247349253E+03  0.97247349253E+03  0.00000000000E+00 0. -1.
         22   -1    0    0    0    0 -0.00000000000E+00 -0.00000000000E+00 -0.13219474582E+03  0.13219474582E+03  0.00000000000E+00 0. -1.
        -24    2    1    2    0    0 -0.18447149258E+02 -0.33690225557E+02 -0.71614220631E+02  0.11285168859E+03  0.78304395832E+02 0.  0.
         25    2    1    2    0    0  0.14216735251E+03 -0.12828911364E+02  0.25964238341E+03  0.32161626909E+03  0.12508685061E+03 0.  0.
         24    2    1    2    0    0 -0.12372020325E+03  0.46519136920E+02  0.65225058393E+03  0.67020028067E+03  0.79163584979E+02 0.  0.
        -13    1    5    5    0    0  0.12422765517E+01  0.18870484589E+01  0.17033629099E+03  0.17035127306E+03  0.00000000000E+00 0.  1.
         14    1    5    5    0    0 -0.12496247980E+03  0.44632088461E+02  0.48191429293E+03  0.49984900761E+03  0.00000000000E+00 0. -1.
         11    1    3    3    0    0  0.59897694242E+01 -0.49292431006E+02 -0.67153249936E+02  0.83517543482E+02  0.00000000000E+00 0. -1.
        -12    1    3    3    0    0 -0.24436918682E+02  0.15602205449E+02 -0.44609706951E+01  0.29334145106E+02  0.00000000000E+00 0.  1.
          5    1    4    4  501    0  0.36014520494E+02  0.36780666545E+02  0.21049221512E+02  0.55771007201E+02  0.41800000000E+01 0.  1.
         -5    1    4    4    0  501  0.10615283202E+03 -0.49609577908E+02  0.23859316190E+03  0.26584526189E+03  0.41800000000E+01 0.  1.
</event>
<event>
11    1  0.8864208E-009  0.1298636E+03  0.7561462E-02  0.1119437E+00
         22   -1    0    0    0    0  0.00000000000E+00  0.00000000000E+00  0.17968856330E+03  0.17968856330E+03  0.00000000000E+00 0.  1.
         22   -1    0    0    0    0 -0.00000000000E+00 -0.00000000000E+00 -0.65476558073E+03  0.65476558073E+03  0.00000000000E+00 0.  1.
         24    2    1    2    0    0 -0.19595146758E+02 -0.60528688556E+01 -0.53283371334E+03  0.53967631873E+03  0.83175452666E+02 0.  0.
         25    2    1    2    0    0  0.48580816747E+02 -0.91740969636E+01 -0.56409831118E+02  0.14584314170E+03  0.12507554967E+03 0.  0.
        -24    2    1    2    0    0 -0.28985669989E+02  0.15226965819E+02  0.11416652702E+03  0.14893468360E+03  0.89863866668E+02 0.  0.
        -13    1    3    3    0    0 -0.25836836138E+02  0.66198635140E-01 -0.52979163699E+03  0.53042127136E+03  0.00000000000E+00 0.  1.
         14    1    3    3    0    0  0.62416893800E+01 -0.61190674908E+01 -0.30420763469E+01  0.92550473675E+01  0.00000000000E+00 0. -1.
         13    1    5    5    0    0  0.11005432916E+02 -0.54535677782E+00 -0.11614734975E+02  0.16009966777E+02  0.00000000000E+00 0. -1.
        -14    1    5    5    0    0 -0.39991102904E+02  0.15772322597E+02  0.12578126200E+03  0.13292471682E+03  0.00000000000E+00 0.  1.
          5    1    4    4  501    0 -0.42395655774E+02  0.13564515818E+01 -0.21540884238E+02  0.47756818185E+02  0.41800000000E+01 0.  1.
         -5    1    4    4    0  501  0.90976472521E+02 -0.10530548545E+02 -0.34868946880E+02  0.98086323519E+02  0.41800000000E+01 0.  1.
</event>
<event>
11    1  0.8864208E-009  0.1489715E+03  0.7561462E-02  0.1097934E+00
         22   -1    0    0    0    0  0.00000000000E+00  0.00000000000E+00  0.29614798153E+03  0.29614798153E+03  0.00000000000E+00 0. -1.
         22   -1    0    0    0    0 -0.00000000000E+00 -0.00000000000E+00 -0.10377784326E+04  0.10377784326E+04  0.00000000000E+00 0. -1.
         24    2    1    2    0    0  0.38495233894E+02  0.72129511952E+02 -0.96829537412E+03  0.97529295947E+03  0.83161744384E+02 0.  0.
         25    2    1    2    0    0  0.20140752615E+01 -0.67361860403E+02  0.34375546404E+02  0.14618832280E+03  0.12509065032E+03 0.  0.
        -24    2    1    2    0    0 -0.40509309156E+02 -0.47676515482E+01  0.19228937662E+03  0.21244513188E+03  0.80585327887E+02 0.  0.
        -13    1    3    3    0    0  0.26120542485E+02 -0.20932181368E+01 -0.88831671726E+02  0.92616036427E+02  0.00000000000E+00 0.  1.
         14    1    3    3    0    0  0.12374691409E+02  0.74222730088E+02 -0.87946370239E+03  0.88267692304E+03  0.00000000000E+00 0. -1.
         13    1    5    5    0    0 -0.52097489925E+02 -0.23408529523E+02  0.17621341041E+03  0.18523842398E+03  0.00000000000E+00 0. -1.
        -14    1    5    5    0    0  0.11588180769E+02  0.18640877975E+02  0.16075966205E+02  0.27206707898E+02  0.00000000000E+00 0.  1.
          5    1    4    4  501    0  0.13339407994E+02 -0.79833526882E+02 -0.24609838689E+02  0.84702115560E+02  0.41800000000E+01 0. -1.
         -5    1    4    4    0  501 -0.11325332732E+02  0.12471666479E+02  0.58985385093E+02  0.61486207240E+02  0.41800000000E+01 0. -1.
</event>
<event>
11    1  0.8864208E-009  0.1789159E+03  0.7561462E-02  0.1070523E+00
         22   -1    0    0    0    0  0.00000000000E+00  0.00000000000E+00  0.16193287424E+03  0.16193287424E+03  0.00000000000E+00 0.  1.
         22   -1    0    0    0    0 -0.00000000000E+00 -0.00000000000E+00 -0.74611880529E+03  0.74611880529E+03  0.00000000000E+00 0. -1.
         24    2    1    2    0    0  0.47155435701E+02  0.10728201787E+03 -0.47463088644E+03  0.49508014439E+03  0.78082037218E+02 0.  0.
         25    2    1    2    0    0 -0.40870604632E+02 -0.19688410852E+03 -0.14480885324E+03  0.27758007968E+03  0.12508932068E+03 0.  0.
        -24    2    1    2    0    0 -0.62848310687E+01  0.89602090654E+02  0.35253808630E+02  0.13539145545E+03  0.94973582819E+02 0.  0.
        -11    1    3    3    0    0 -0.71160525704E+01  0.31266850908E+02 -0.24639023830E+03  0.24846811405E+03  0.00000000000E+00 0.  1.
         12    1    3    3    0    0  0.54271488271E+02  0.76015166960E+02 -0.22824064814E+03  0.24661203035E+03  0.00000000000E+00 0. -1.
         13    1    5    5    0    0 -0.34031751413E+02  0.93921461721E+02  0.15580623386E+02  0.10110468288E+03  0.00000000000E+00 0. -1.
        -14    1    5    5    0    0  0.27746920344E+02 -0.43193710670E+01  0.19673185244E+02  0.34286772561E+02  0.00000000000E+00 0.  1.
          5    1    4    4  501    0 -0.17931092966E+01 -0.36366277180E+02 -0.99777807648E+02  0.10629583555E+03  0.41800000000E+01 0. -1.
         -5    1    4    4    0  501 -0.39077495335E+02 -0.16051783134E+03 -0.45031045596E+02  0.17128424413E+03  0.41800000000E+01 0. -1.
</event>
<event>
11    1  0.8864208E-009  0.1417795E+03  0.7561462E-02  0.1105587E+00
         22   -1    0    0    0    0  0.00000000000E+00  0.00000000000E+00  0.50112985365E+03  0.50112985365E+03  0.00000000000E+00 0. -1.
         22   -1    0    0    0    0 -0.00000000000E+00 -0.00000000000E+00 -0.15275782408E+03  0.15275782408E+03  0.00000000000E+00 0.  1.
         24    2    1    2    0    0 -0.34091234993E+02 -0.47898681745E+02 -0.45122497270E+02  0.11127459965E+03  0.83003016517E+02 0.  0.
         25    2    1    2    0    0  0.74175392649E+02  0.52361393865E+02  0.17603984968E+02  0.15556547803E+03  0.12508802191E+03 0.  0.
        -24    2    1    2    0    0 -0.40084157656E+02 -0.44627121204E+01  0.37589054188E+03  0.38704760005E+03  0.82978851168E+02 0.  0.
        -13    1    3    3    0    0 -0.84609221884E+01 -0.95013836705E+01 -0.61109024950E+02  0.62419359387E+02  0.00000000000E+00 0.  1.
         14    1    3    3    0    0 -0.25630312804E+02 -0.38397298074E+02  0.15986527680E+02  0.48855240262E+02  0.00000000000E+00 0. -1.
         11    1    5    5    0    0 -0.33576755403E+02  0.17712105197E+02  0.35113683016E+03  0.35318294221E+03  0.00000000000E+00 0. -1.
        -12    1    5    5    0    0 -0.65074022531E+01 -0.22174817317E+02  0.24753711718E+02  0.33864657845E+02  0.00000000000E+00 0.  1.
          5    1    4    4  501    0  0.32855963594E+02  0.67260278448E+02  0.58738902321E+02  0.95242797347E+02  0.41800000000E+01 0.  1.
         -5    1    4    4    0  501  0.41319429056E+02 -0.14898884583E+02 -0.41134917353E+02  0.60322680684E+02  0.41800000000E+01 0.  1.
</event>
<event>
11    1  0.8864208E-009  0.1379582E+03  0.7561462E-02  0.1109860E+00
         22   -1    0    0    0    0  0.00000000000E+00  0.00000000000E+00  0.10756028109E+04  0.10756028109E+04  0.00000000000E+00 0. -1.
         22   -1    0    0    0    0 -0.00000000000E+00 -0.00000000000E+00 -0.22569068082E+03  0.22569068082E+03  0.00000000000E+00 0.  1.
        -24    2    1    2    0    0 -0.55522022559E+02 -0.30795925738E+02 -0.15237243494E+03  0.18952041653E+03  0.93110393190E+02 0.  0.
         25    2    1    2    0    0  0.10106741816E+02  0.47112671025E+02  0.33121028532E+02  0.13808004075E+03  0.12508934855E+03 0.  0.
         24    2    1    2    0    0  0.45415280743E+02 -0.16316745288E+02  0.96916353653E+03  0.97369303449E+03  0.80444893909E+02 0.  0.
        -13    1    5    5    0    0  0.17635981354E+02  0.13783688186E+02  0.67799328934E+02  0.71398647762E+02  0.00000000000E+00 0.  1.
         14    1    5    5    0    0  0.27779299390E+02 -0.30100433474E+02  0.90136420760E+03  0.90229438672E+03  0.00000000000E+00 0. -1.
         11    1    3    3    0    0 -0.40934338251E+02 -0.53452783224E+02 -0.50545511328E+02  0.84188293711E+02  0.00000000000E+00 0. -1.
        -12    1    3    3    0    0 -0.14587684308E+02  0.22656857487E+02 -0.10182692362E+03  0.10533212282E+03  0.00000000000E+00 0.  1.
          5    1    4    4  501    0  0.24879474807E+02  0.17629639143E+02  0.77062840142E+02  0.82981601417E+02  0.41800000000E+01 0. -1.
         -5    1    4    4    0  501 -0.14772732991E+02  0.29483031883E+02 -0.43941811610E+02  0.55098439330E+02  0.41800000000E+01 0. -1.
</event>
<event>
11    1  0.8864208E-009  0.3921422E+03  0.7561462E-02  0.9673231E-01
         22   -1    0    0    0    0  0.00000000000E+00  0.00000000000E+00  0.19793357959E+04  0.19793357959E+04  0.00000000000E+00 0. -1.
         22   -1    0    0    0    0 -0.00000000000E+00 -0.00000000000E+00 -0.63227748327E+03  0.63227748327E+03  0.00000000000E+00 0. -1.
         24    2    1    2    0    0  0.36399088823E+03  0.47783194173E+02 -0.45150237795E+03  0.58744022677E+03  0.80368043272E+02 0.  0.
         25    2    1    2    0    0 -0.39130721622E+03 -0.74488370702E+02  0.27935693317E+03  0.50235160553E+03  0.12508790763E+03 0.  0.
        -24    2    1    2    0    0  0.27316327987E+02  0.26705176528E+02  0.15192037574E+04  0.15218214469E+04  0.80629469720E+02 0.  0.
        -11    1    3    3    0    0 -0.37411799211E+01  0.31046902625E+01 -0.28997488896E+01  0.56607484003E+01  0.00000000000E+00 0.  1.
         12    1    3    3    0    0  0.36773206815E+03  0.44678503911E+02 -0.44860262906E+03  0.58177947837E+03  0.00000000000E+00 0. -1.
         11    1    5    5    0    0  0.28394004250E+02  0.21718777073E+02  0.15143754967E+04  0.15147973692E+04  0.00000000000E+00 0. -1.
        -12    1    5    5    0    0 -0.10776762639E+01  0.49863994559E+01  0.48282607539E+01  0.70240777025E+01  0.00000000000E+00 0.  1.
          5    1    4    4  501    0 -0.22207837677E+03 -0.98502041923E+02  0.19579410064E+03  0.31204848973E+03  0.41800000000E+01 0. -1.
         -5    1    4    4    0  501 -0.16922883945E+03  0.24013671222E+02  0.83562832527E+02  0.19030311581E+03  0.41800000000E+01 0. -1.
</event>
<event>
11    1  0.8864208E-009  0.1634184E+03  0.7561462E-02  0.1083906E+00
         22   -1    0    0    0    0  0.00000000000E+00  0.00000000000E+00  0.12445864590E+04  0.12445864590E+04  0.00000000000E+00 0. -1.
         22   -1    0    0    0    0 -0.00000000000E+00 -0.00000000000E+00 -0.73571269580E+03  0.73571269580E+03  0.00000000000E+00 0.  1.
         24    2    1    2    0    0 -0.27595922654E+02 -0.10150650224E+03 -0.71764498839E+03  0.72971818270E+03  0.80057428491E+02 0.  0.
         25    2    1    2    0    0  0.27597366882E+02  0.97902961644E+02  0.86886899820E+03  0.88369983867E+03  0.12508183030E+03 0.  0.
        -24    2    1    2    0    0 -0.14442276919E-02  0.36035405911E+01  0.35764975344E+03  0.36688113348E+03  0.81703331980E+02 0.  0.
        -11    1    3    3    0    0  0.10981907149E+02 -0.88311789962E+02 -0.55210195833E+03  0.55922817072E+03  0.00000000000E+00 0.  1.
         12    1    3    3    0    0 -0.38577829803E+02 -0.13194712273E+02 -0.16554303006E+03  0.17049001198E+03  0.00000000000E+00 0. -1.
         13    1    5    5    0    0 -0.17053868544E+02 -0.31003896070E+02  0.25071210164E+03  0.25319682840E+03  0.00000000000E+00 0. -1.
        -14    1    5    5    0    0  0.17052424317E+02  0.34607436661E+02  0.10693765180E+03  0.11368430508E+03  0.00000000000E+00 0.  1.
          5    1    4    4  501    0 -0.34343938871E+02  0.79384614231E+02  0.33902304247E+03  0.34990787193E+03  0.41800000000E+01 0. -1.
         -5    1    4    4    0  501  0.61941305753E+02  0.18518347413E+02  0.52984595573E+03  0.53379196674E+03  0.41800000000E+01 0. -1.
</event>
<event>
11    1  0.8864208E-009  0.1610829E+03  0.7561462E-02  0.1086063E+00
         22   -1    0    0    0    0  0.00000000000E+00  0.00000000000E+00  0.20327011449E+04  0.20327011449E+04  0.00000000000E+00 0.  1.
         22   -1    0    0    0    0 -0.00000000000E+00 -0.00000000000E+00 -0.76519504976E+02  0.76519504976E+02  0.00000000000E+00 0.  1.
         24    2    1    2    0    0  0.70103940889E+02  0.41714450616E+02  0.81323241511E+01  0.11393246782E+03  0.79118990193E+02 0.  0.
         25    2    1    2    0    0 -0.51387316868E+02  0.63794471857E+02  0.24503321245E+03  0.28705137917E+03  0.12508728194E+03 0.  0.
        -24    2    1    2    0    0 -0.18716624021E+02 -0.10550892247E+03  0.17030161033E+04  0.17082368029E+04  0.79540441464E+02 0.  0.
        -11    1    3    3    0    0 -0.54442548597E+01  0.65844677937E+01 -0.23351792635E+02  0.24865666015E+02  0.00000000000E+00 0.  1.
         12    1    3    3    0    0  0.75548195749E+02  0.35129982823E+02  0.31484116786E+02  0.89066801806E+02  0.00000000000E+00 0. -1.
         13    1    5    5    0    0  0.29384164082E+02 -0.58950834502E+02  0.76115524269E+03  0.76399995646E+03  0.00000000000E+00 0. -1.
        -14    1    5    5    0    0 -0.48100788104E+02 -0.46558087971E+02  0.94186086064E+03  0.94423684644E+03  0.00000000000E+00 0.  1.
          5    1    4    4  501    0 -0.81472754556E+02  0.75539179707E+02  0.15084212161E+03  0.18738942194E+03  0.41800000000E+01 0. -1.
         -5    1    4    4    0  501  0.30085437688E+02 -0.11744707850E+02  0.94191090843E+02  0.99661957224E+02  0.41800000000E+01 0. -1.
</event>
<event>
11    1  0.8864208E-009  0.1833238E+03  0.7561462E-02  0.1066986E+00
         22   -1    0    0    0    0  0.00000000000E+00  0.00000000000E+00  0.14554274454E+04  0.14554274454E+04  0.00000000000E+00 0. -1.
         22   -1    0    0    0    0 -0.00000000000E+00 -0.00000000000E+00 -0.51611378816E+02  0.51611378816E+02  0.00000000000E+00 0.  1.
        -24    2    1    2    0    0  0.78214922850E+02 -0.95754887109E+01  0.74562911729E+02  0.13257993288E+03  0.76213821947E+02 0.  0.
         25    2    1    2    0    0 -0.14431235169E+03  0.86444213100E+02  0.98576116838E+03  0.10078054731E+04  0.12509250058E+03 0.  0.
         24    2    1    2    0    0  0.66097428837E+02 -0.76868724389E+02  0.34349198649E+03  0.36665341825E+03  0.78551342722E+02 0.  0.
        -13    1    5    5    0    0  0.12143441267E+01 -0.60852471833E+02  0.18080124664E+03  0.19077103749E+03  0.00000000000E+00 0.  1.
         14    1    5    5    0    0  0.64883084711E+02 -0.16016252556E+02  0.16269073985E+03  0.17588238075E+03  0.00000000000E+00 0. -1.
         13    1    3    3    0    0  0.28688683071E+01 -0.11016211381E+02  0.52981668518E+02  0.54190815804E+02  0.00000000000E+00 0. -1.
        -14    1    3    3    0    0  0.75346054543E+02  0.14407226697E+01  0.21581243211E+02  0.78389117074E+02  0.00000000000E+00 0.  1.
          5    1    4    4  501    0 -0.78694384256E+02  0.11324175235E+03  0.61169240841E+03  0.62705787253E+03  0.41800000000E+01 0. -1.
         -5    1    4    4    0  501 -0.65617967432E+02 -0.26797539252E+02  0.37406875997E+03  0.38074760057E+03  0.41800000000E+01 0. -1.
</event>
<event>
11    1  0.8864208E-009  0.1593230E+03  0.7561462E-02  0.1087716E+00
         22   -1    0    0    0    0  0.00000000000E+00  0.00000000000E+00  0.10857891483E+04  0.10857891483E+04  0.00000000000E+00 0. -1.
         22   -1    0    0    0    0 -0.00000000000E+00 -0.00000000000E+00 -0.56050865088E+03  0.56050865088E+03  0.00000000000E+00 0. -1.
        -24    2    1    2    0    0  0.79695531153E+02 -0.65481168309E+02 -0.50376656707E+03  0.52005047622E+03  0.77669702141E+02 0.  0.
         25    2    1    2    0    0 -0.71432748428E+01  0.56248662818E+02  0.58022355020E+02  0.14909335457E+03  0.12508915321E+03 0.  0.
         24    2    1    2    0    0 -0.72552256310E+02  0.92325054901E+01  0.97102470944E+03  0.97715396835E+03  0.81190039221E+02 0.  0.
        -13    1    5    5    0    0  0.14962768107E+02  0.15172850945E+02  0.21727930467E+03  0.21832177188E+03  0.00000000000E+00 0.  1.
         14    1    5    5    0    0 -0.87515024417E+02 -0.59403454546E+01  0.75374540476E+03  0.75883219647E+03  0.00000000000E+00 0. -1.
         13    1    3    3    0    0  0.72418349641E+02 -0.80189418738E+02 -0.47296615252E+03  0.48515125649E+03  0.00000000000E+00 0. -1.
        -14    1    3    3    0    0  0.72771815117E+01  0.14708250430E+02 -0.30800414549E+02  0.34899219731E+02  0.00000000000E+00 0.  1.
          5    1    4    4  501    0  0.45521862966E+02  0.48664126475E+02 -0.44629206276E+01  0.66916569502E+02  0.41800000000E+01 0.  1.
         -5    1    4    4    0  501 -0.52665137809E+02  0.75845363438E+01  0.62485275648E+02  0.82176785072E+02  0.41800000000E+01 0.  1.
</event>
<event>
11    1  0.8864208E-009  0.2291313E+03  0.7561462E-02  0.1035644E+00
         22   -1    0    0    0    0  0.00000000000E+00  0.00000000000E+00  0.22618319891E+03  0.22618319891E+03  0.00000000000E+00 0. -1.
         22   -1    0    0    0    0 -0.00000000000E+00 -0.00000000000E+00 -0.10314649226E+04  0.10314649226E+04  0.00000000000E+00 0. -1.
         24    2    1    2    0    0  0.76317118133E+02 -0.16900890976E+03 -0.76130151724E+03  0.78766406298E+03  0.80289238789E+02 0.  0.
         25    2    1    2    0    0 -0.57164834841E+02  0.22280533307E+03 -0.16854543258E+03  0.31140629588E+03  0.12512507135E+03 0.  0.
        -24    2    1    2    0    0 -0.19152283291E+02 -0.53796423308E+02  0.12456522612E+03  0.15857776267E+03  0.79809436409E+02 0.  0.
        -13    1    3    3    0    0  0.27650738711E+02 -0.43788410895E+01 -0.15585639280E+03  0.15835072711E+03  0.00000000000E+00 0.  1.
         14    1    3    3    0    0  0.48666379422E+02 -0.16463006867E+03 -0.60544512444E+03  0.62931333587E+03  0.00000000000E+00 0. -1.
         13    1    5    5    0    0  0.29885023124E+02 -0.10432590241E+02  0.51756418894E+02  0.60668611678E+02  0.00000000000E+00 0. -1.
        -14    1    5    5    0    0 -0.49037306415E+02 -0.43363833067E+02  0.72808807223E+02  0.97909150992E+02  0.00000000000E+00 0.  1.
          5    1    4    4  501    0  0.27648617368E+02  0.14167030578E+03 -0.92406409282E+02  0.17143902256E+03  0.41800000000E+01 0. -1.
         -5    1    4    4    0  501 -0.84813452210E+02  0.81135027290E+02 -0.76139023302E+02  0.13996727331E+03  0.41800000000E+01 0. -1.
</event>
<event>
11    1  0.8864208E-009  0.1278625E+03  0.7561462E-02  0.1121924E+00
         22   -1    0    0    0    0  0.00000000000E+00  0.00000000000E+00  0.11142367709E+03  0.11142367709E+03  0.00000000000E+00 0. -1.
         22   -1    0    0    0    0 -0.00000000000E+00 -0.00000000000E+00 -0.69409972383E+03  0.69409972383E+03  0.00000000000E+00 0. -1.
         24    2    1    2    0    0  0.39602198303E+01  0.42519699434E+01 -0.40875887190E+03  0.41666371880E+03  0.80567218009E+02 0.  0.
         25    2    1    2    0    0 -0.22389179940E+02  0.14789150093E+02 -0.24537301281E+03  0.27672279317E+03  0.12509034537E+03 0.  0.
        -24    2    1    2    0    0  0.18428960109E+02 -0.19041120037E+02  0.71455837976E+02  0.11213688894E+03  0.82259067934E+02 0.  0.
        -13    1    3    3    0    0 -0.10382380198E+02  0.29635788757E+02 -0.70821995336E+02  0.77471470989E+02  0.00000000000E+00 0.  1.
         14    1    3    3    0    0  0.14342600028E+02 -0.25383818814E+02 -0.33793687656E+03  0.33919224781E+03  0.00000000000E+00 0. -1.
         11    1    5    5    0    0  0.15590427864E+02 -0.35086861434E+01  0.87899182910E+02  0.89340017213E+02  0.00000000000E+00 0. -1.
        -12    1    5    5    0    0  0.28385322458E+01 -0.15532433893E+02 -0.16443344933E+02  0.22796871727E+02  0.00000000000E+00 0.  1.
          5    1    4    4  501    0  0.21899011762E+02  0.25942166299E+02 -0.22315716755E+03  0.22576349691E+03  0.41800000000E+01 0.  1.
         -5    1    4    4    0  501 -0.44288191701E+02 -0.11153016206E+02 -0.22215845261E+02  0.50959296260E+02  0.41800000000E+01 0.  1.
</event>
<event>
11    1  0.8864208E-009  0.2028708E+03  0.7561462E-02  0.1052512E+00
         22   -1    0    0    0    0  0.00000000000E+00  0.00000000000E+00  0.72842791627E+02  0.72842791627E+02  0.00000000000E+00 0.  1.
         22   -1    0    0    0    0 -0.00000000000E+00 -0.00000000000E+00 -0.24383280301E+04  0.24383280301E+04  0.00000000000E+00 0.  1.
        -24    2    1    2    0    0  0.14748958818E+03  0.13489368122E+01 -0.13411378539E+04  0.13516114945E+04  0.80298758221E+02 0.  0.
         25    2    1    2    0    0 -0.18753624606E+03 -0.24038723331E+02 -0.10396822727E+04  0.10641121292E+04  0.12509073357E+03 0.  0.
         24    2    1    2    0    0  0.40046657886E+02  0.22689786519E+02  0.15334888103E+02  0.95447198038E+02  0.82197613105E+02 0.  0.
        -13    1    5    5    0    0 -0.21099901810E+02 -0.90578646501E+01  0.13266811831E+02  0.26519032120E+02  0.00000000000E+00 0.  1.
         14    1    5    5    0    0  0.61146559696E+02  0.31747651169E+02  0.20680762721E+01  0.68928165918E+02  0.00000000000E+00 0. -1.
         11    1    3    3    0    0  0.77041870106E+02 -0.21930302234E+02 -0.42561524438E+03  0.43308743246E+03  0.00000000000E+00 0. -1.
        -12    1    3    3    0    0  0.70447718070E+02  0.23279239047E+02 -0.91552260957E+03  0.91852406206E+03  0.00000000000E+00 0.  1.
          5    1    4    4  501    0 -0.11148277007E+03  0.46202310125E+02 -0.63482419558E+03  0.64620607640E+03  0.41800000000E+01 0. -1.
         -5    1    4    4    0  501 -0.76053475994E+02 -0.70241033456E+02 -0.40485807710E+03  0.41790605282E+03  0.41800000000E+01 0. -1.
</event>
<event>
11    1  0.8864208E-009  0.1344423E+03  0.7561462E-02  0.1113928E+00
         22   -1    0    0    0    0  0.00000000000E+00  0.00000000000E+00  0.41443484137E+03  0.41443484137E+03  0.00000000000E+00 0.  1.
         22   -1    0    0    0    0 -0.00000000000E+00 -0.00000000000E+00 -0.25596742773E+03  0.25596742773E+03  0.00000000000E+00 0.  1.
        -24    2    1    2    0    0 -0.45283568196E+02 -0.23618321501E+02 -0.19921700551E+03  0.22103503565E+03  0.80997808862E+02 0.  0.
         25    2    1    2    0    0  0.24519727411E+02  0.22618259949E+02  0.64568089979E+02  0.14465935156E+03  0.12507792385E+03 0.  0.
         24    2    1    2    0    0  0.20763840785E+02  0.10000615524E+01  0.29311632917E+03  0.30470788190E+03  0.80607528548E+02 0.  0.
        -13    1    5    5    0    0 -0.33665030779E+01 -0.12145569990E+02  0.26532930394E+03  0.26562847691E+03  0.00000000000E+00 0.  1.
         14    1    5    5    0    0  0.24130343863E+02  0.13145631543E+02  0.27787025227E+02  0.39079404992E+02  0.00000000000E+00 0. -1.
         11    1    3    3    0    0  0.40770884399E+01 -0.32062377400E+02 -0.28388461500E+02  0.43017710783E+02  0.00000000000E+00 0. -1.
        -12    1    3    3    0    0 -0.49360656635E+02  0.84440558987E+01 -0.17082854401E+03  0.17801732486E+03  0.00000000000E+00 0.  1.
          5    1    4    4  501    0 -0.25507716666E+02 -0.40210747297E+02  0.14615088787E+02  0.49986208377E+02  0.41800000000E+01 0.  1.
         -5    1    4    4    0  501  0.50027444077E+02  0.62829007245E+02  0.49953001192E+02  0.94673143184E+02  0.41800000000E+01 0.  1.
</event>
<event>
11    1  0.8864208E-009  0.1966395E+03  0.7561462E-02  0.1056926E+00
         22   -1    0    0    0    0  0.00000000000E+00  0.00000000000E+00  0.47153708300E+03  0.47153708300E+03  0.00000000000E+00 0.  1.
         22   -1    0    0    0    0 -0.00000000000E+00 -0.00000000000E+00 -0.48340464515E+03  0.48340464515E+03  0.00000000000E+00 0.  1.
        -24    2    1    2    0    0  0.69605188584E+02 -0.31396091137E+01 -0.31940944887E+03  0.33594344687E+03  0.77336046210E+02 0.  0.
         25    2    1    2    0    0 -0.94643296054E+01 -0.13996358687E+03 -0.71612559578E+02  0.20113804456E+03  0.12509506423E+03 0.  0.
         24    2    1    2    0    0 -0.60140858979E+02  0.14310319599E+03  0.37915444630E+03  0.41786023671E+03  0.82180506570E+02 0.  0.
        -13    1    5    5    0    0 -0.92227161141E+01  0.54088687150E+02  0.23264035413E+03  0.23902338576E+03  0.00000000000E+00 0.  1.
         14    1    5    5    0    0 -0.50918142865E+02  0.89014508838E+02  0.14651409217E+03  0.17883685096E+03  0.00000000000E+00 0. -1.
         13    1    3    3    0    0  0.70003664214E+01  0.73686596570E+01  0.12475863254E+00  0.10164538351E+02  0.00000000000E+00 0. -1.
        -14    1    3    3    0    0  0.62604822163E+02 -0.10508268771E+02 -0.31953420750E+03  0.32577890852E+03  0.00000000000E+00 0.  1.
          5    1    4    4  501    0  0.45171841909E+02 -0.12123266823E+02 -0.59617330635E+01  0.47333746535E+02  0.41800000000E+01 0. -1.
         -5    1    4    4    0  501 -0.54636171515E+02 -0.12784032005E+03 -0.65650826514E+02  0.15380429802E+03  0.41800000000E+01 0. -1.
</event>
<event>
11    1  0.8864208E-009  0.1994139E+03  0.7561462E-02  0.1054939E+00
         22   -1    0    0    0    0  0.00000000000E+00  0.00000000000E+00  0.20186592574E+04  0.20186592574E+04  0.00000000000E+00 0.  1.
         22   -1    0    0    0    0 -0.00000000000E+00 -0.00000000000E+00 -0.81226949625E+03  0.81226949625E+03  0.00000000000E+00 0.  1.
        -24    2    1    2    0    0 -0.15156763310E+03 -0.29302342016E+02 -0.77210651787E+03  0.79220032612E+03  0.87186622338E+02 0.  0.
         25    2    1    2    0    0  0.27518632517E+03 -0.64427681607E+02  0.10958482749E+04  0.11385997817E+04  0.12509029365E+03 0.  0.
         24    2    1    2    0    0 -0.12361869207E+03  0.93730023622E+02  0.88264800419E+03  0.90012864591E+03  0.84244771515E+02 0.  0.
        -13    1    5    5    0    0 -0.10751198763E+03  0.37096093997E+02  0.48573484332E+03  0.49887201334E+03  0.00000000000E+00 0.  1.
         14    1    5    5    0    0 -0.16106704441E+02  0.56633929626E+02  0.39691316087E+03  0.40125663257E+03  0.00000000000E+00 0. -1.
         11    1    3    3    0    0 -0.19952412026E+02  0.11532810099E+02 -0.32358536952E+02  0.39726305744E+02  0.00000000000E+00 0. -1.
        -12    1    3    3    0    0 -0.13161522108E+03 -0.40835152114E+02 -0.73974798092E+03  0.75247402037E+03  0.00000000000E+00 0.  1.
          5    1    4    4  501    0  0.12563920239E+03  0.20067752511E+02  0.61337476183E+03  0.62644552414E+03  0.41800000000E+01 0.  1.
         -5    1    4    4    0  501  0.14954712278E+03 -0.84495434118E+02  0.48247351302E+03  0.51215425751E+03  0.41800000000E+01 0.  1.
</event>
<event>
11    1  0.1024562E-008  0.1607553E+03  0.7561462E-02  0.1086369E+00
         22   -1    0    0    0    0  0.00000000000E+00  0.00000000000E+00  0.12838148664E+04  0.12838148664E+04  0.00000000000E+00 0.  1.
         22   -1    0    0    0    0 -0.00000000000E+00 -0.00000000000E+00 -0.66093964976E+03  0.66093964976E+03  0.00000000000E+00 0. -1.
         24    2    1    2    0    0 -0.16139178149E+02  0.66273999479E+02 -0.43980534887E+03  0.45263309227E+03  0.82433338186E+02 0.  0.
         25    2    1    2    0    0  0.80953110841E+01  0.35444775417E+02 -0.19128052348E+03  0.23142057502E+03  0.12508148429E+03 0.  0.
        -24    2    1    2    0    0  0.80438670647E+01 -0.10171877490E+03  0.12539610890E+04  0.12607008489E+04  0.80850508272E+02 0.  0.
        -11    1    3    3    0    0 -0.15848960193E+02  0.95643800434E+01 -0.14368921798E+02  0.23433583133E+02  0.00000000000E+00 0.  1.
         12    1    3    3    0    0 -0.29021795562E+00  0.56709619436E+02 -0.42543642707E+03  0.42919950913E+03  0.00000000000E+00 0. -1.
         11    1    5    5    0    0 -0.77823221716E+01 -0.51394316388E+02  0.24959225861E+03  0.25494751588E+03  0.00000000000E+00 0. -1.
        -12    1    5    5    0    0  0.15826189236E+02 -0.50324458508E+02  0.10043688304E+04  0.10057533330E+04  0.00000000000E+00 0.  1.
          5    1    4    4  501    0  0.64521225386E+02  0.30315211007E+02 -0.85945107647E+02  0.11174092568E+03  0.41800000000E+01 0.  1.
         -5    1    4    4    0  501 -0.56425914302E+02  0.51295644104E+01 -0.10533541583E+03  0.11967964933E+03  0.41800000000E+01 0.  1.
</event>
<event>
11    1  0.8864208E-009  0.1873173E+03  0.7561462E-02  0.1063873E+00
         22   -1    0    0    0    0  0.00000000000E+00  0.00000000000E+00  0.54845229231E+03  0.54845229231E+03  0.00000000000E+00 0.  1.
         22   -1    0    0    0    0 -0.00000000000E+00 -0.00000000000E+00 -0.10828462276E+04  0.10828462276E+04  0.00000000000E+00 0.  1.
         24    2    1    2    0    0 -0.67064667630E+02 -0.69501608122E+02 -0.10059300167E+04  0.10135111517E+04  0.77340240417E+02 0.  0.
         25    2    1    2    0    0  0.97501531261E+02 -0.79114851977E+02  0.88597738850E+02  0.19814657989E+03  0.12508716717E+03 0.  0.
        -24    2    1    2    0    0 -0.30436863631E+02  0.14861646010E+03  0.38293834261E+03  0.41964078834E+03  0.80270555710E+02 0.  0.
        -13    1    3    3    0    0 -0.84410245152E+02 -0.58444938449E+02 -0.86918863188E+03  0.87523127121E+03  0.00000000000E+00 0.  1.
         14    1    3    3    0    0  0.17345577522E+02 -0.11056669673E+02 -0.13674138486E+03  0.13827988045E+03  0.00000000000E+00 0. -1.
         11    1    5    5    0    0 -0.22073921766E+02  0.84767346741E+02  0.11781846535E+03  0.14681264207E+03  0.00000000000E+00 0. -1.
        -12    1    5    5    0    0 -0.83629418654E+01  0.63849113358E+02  0.26511987727E+03  0.27282814627E+03  0.00000000000E+00 0.  1.
          5    1    4    4  501    0  0.37181661639E+02  0.32790027003E+02  0.19881010183E+02  0.53576009547E+02  0.41800000000E+01 0. -1.
         -5    1    4    4    0  501  0.60319869621E+02 -0.11190487898E+03  0.68716728668E+02  0.14457057034E+03  0.41800000000E+01 0. -1.
</event>
<event>
11    1  0.8864208E-009  0.3728196E+03  0.7561462E-02  0.9733544E-01
         22   -1    0    0    0    0  0.00000000000E+00  0.00000000000E+00  0.94180392051E+03  0.94180392051E+03  0.00000000000E+00 0. -1.
         22   -1    0    0    0    0 -0.00000000000E+00 -0.00000000000E+00 -0.51958719856E+03  0.51958719856E+03  0.00000000000E+00 0.  1.
         24    2    1    2    0    0 -0.73842457285E+02  0.68675267627E+02 -0.32417057701E+03  0.35116007756E+03  0.89765450975E+02 0.  0.
         25    2    1    2    0    0 -0.23796846158E+03 -0.24568128049E+03  0.11954160882E+03  0.38330862618E+03  0.12508807446E+03 0.  0.
        -24    2    1    2    0    0  0.31181091887E+03  0.17700601286E+03  0.62684569014E+03  0.72692241534E+03  0.83207577512E+02 0.  0.
        -11    1    3    3    0    0  0.11445770718E+02  0.39905994970E+02 -0.14234115956E+03  0.14827170940E+03  0.00000000000E+00 0.  1.
         12    1    3    3    0    0 -0.85288228003E+02  0.28769272656E+02 -0.18182941745E+03  0.20288836816E+03  0.00000000000E+00 0. -1.
         11    1    5    5    0    0  0.30991515430E+03  0.17171343296E+03  0.57939780352E+03  0.67914263646E+03  0.00000000000E+00 0. -1.
        -12    1    5    5    0    0  0.18957645635E+01  0.52925799064E+01  0.47447886618E+02  0.47779778880E+02  0.00000000000E+00 0.  1.
          5    1    4    4  501    0 -0.15271210460E+03 -0.13296694584E+03  0.13140295353E+03  0.24142370259E+03  0.41800000000E+01 0.  1.
         -5    1    4    4    0  501 -0.85256356983E+02 -0.11271433465E+03 -0.11861344718E+02  0.14188492358E+03  0.41800000000E+01 0.  1.
</event>
<event>
11    1  0.8864208E-009  0.1930778E+03  0.7561462E-02  0.1059530E+00
         22   -1    0    0    0    0  0.00000000000E+00  0.00000000000E+00  0.13836836013E+04  0.13836836013E+04  0.00000000000E+00 0. -1.
         22   -1    0    0    0    0 -0.00000000000E+00 -0.00000000000E+00 -0.16481073667E+03  0.16481073667E+03  0.00000000000E+00 0. -1.
        -24    2    1    2    0    0  0.52421217372E+02 -0.41190464254E+02 -0.10548668472E+03  0.14994462599E+03  0.83134299980E+02 0.  0.
         25    2    1    2    0    0 -0.18896577876E+03  0.17733105499E+02  0.39678524368E+03  0.45728421579E+03  0.12509115009E+03 0.  0.
         24    2    1    2    0    0  0.13654456139E+03  0.23457358754E+02  0.92757430563E+03  0.94126549616E+03  0.79949839670E+02 0.  0.
        -13    1    5    5    0    0  0.25378240884E+02 -0.26717998904E+02  0.17120944960E+03  0.17513018645E+03  0.00000000000E+00 0.  1.
         14    1    5    5    0    0  0.11116632051E+03  0.50175357659E+02  0.75636485604E+03  0.76613530971E+03  0.00000000000E+00 0. -1.
         11    1    3    3    0    0  0.39352612034E+02 -0.64876025059E+02 -0.93340542908E+02  0.12029124512E+03  0.00000000000E+00 0. -1.
        -12    1    3    3    0    0  0.13068605338E+02  0.23685560805E+02 -0.12146141809E+02  0.29653380869E+02  0.00000000000E+00 0.  1.
          5    1    4    4  501    0 -0.17811398501E+02 -0.63389258614E+01 -0.48995440598E+01  0.19972627008E+02  0.41800000000E+01 0.  1.
         -5    1    4    4    0  501 -0.17115438026E+03  0.24072031361E+02  0.40168478774E+03  0.43731158878E+03  0.41800000000E+01 0.  1.
</event>
<event>
11    1  0.8864208E-009  0.1726002E+03  0.7561462E-02  0.1075791E+00
         22   -1    0    0    0    0  0.00000000000E+00  0.00000000000E+00  0.86622701379E+03  0.86622701379E+03  0.00000000000E+00 0. -1.
         22   -1    0    0    0    0 -0.00000000000E+00 -0.00000000000E+00 -0.69754983239E+03  0.69754983239E+03  0.00000000000E+00 0. -1.
        -24    2    1    2    0    0 -0.10056902202E+03  0.73295222535E+02 -0.43795477435E+03  0.46206827154E+03  0.78844057148E+02 0.  0.
         25    2    1    2    0    0  0.39190706033E+02 -0.11436842230E+03 -0.21289084781E+03  0.27492907973E+03  0.12508972115E+03 0.  0.
         24    2    1    2    0    0  0.61378315983E+02  0.41073199767E+02  0.81952280357E+03  0.82677949491E+03  0.80575444275E+02 0.  0.
        -11    1    5    5    0    0  0.21774291358E+02  0.44180376880E+02  0.19968375828E+03  0.20566873556E+03  0.00000000000E+00 0.  1.
         12    1    5    5    0    0  0.39604024625E+02 -0.31071771128E+01  0.61983904529E+03  0.62111075935E+03  0.00000000000E+00 0. -1.
         11    1    3    3    0    0 -0.65735010228E+02  0.80594188751E+02 -0.38072349062E+03  0.39467314469E+03  0.00000000000E+00 0. -1.
        -12    1    3    3    0    0 -0.34834011788E+02 -0.72989662159E+01 -0.57231283737E+02  0.67395126851E+02  0.00000000000E+00 0.  1.
          5    1    4    4  501    0  0.30025052683E+01 -0.62751051235E+02 -0.11684021588E+02  0.64036694398E+02  0.41800000000E+01 0. -1.
         -5    1    4    4    0  501  0.36188200765E+02 -0.51617371067E+02 -0.20120682622E+03  0.21089238533E+03  0.41800000000E+01 0. -1.
</event>
<event>
11    1  0.8864208E-009  0.1356357E+03  0.7561462E-02  0.1112532E+00
         22   -1    0    0    0    0  0.00000000000E+00  0.00000000000E+00  0.36892424937E+03  0.36892424937E+03  0.00000000000E+00 0.  1.
         22   -1    0    0    0    0 -0.00000000000E+00 -0.00000000000E+00 -0.24547216080E+03  0.24547216080E+03  0.00000000000E+00 0.  1.
        -24    2    1    2    0    0  0.28843609005E+02 -0.37718065207E+02 -0.14514502672E+03  0.17229733201E+03  0.79778979754E+02 0.  0.
         25    2    1    2    0    0 -0.75737595664E+02  0.50882113875E+02 -0.19312269167E+01  0.15484211951E+03  0.12508868624E+03 0.  0.
         24    2    1    2    0    0  0.46893986660E+02 -0.13164048668E+02  0.27052834221E+03  0.28725695865E+03  0.83418452367E+02 0.  0.
        -11    1    5    5    0    0  0.25665575560E+02  0.26644889317E+02  0.20098398827E+03  0.20436055254E+03  0.00000000000E+00 0.  1.
         12    1    5    5    0    0  0.21228411099E+02 -0.39808937985E+02  0.69544353943E+02  0.82896406114E+02  0.00000000000E+00 0. -1.
         13    1    3    3    0    0  0.26198664665E+02 -0.13406063630E+02 -0.47767123182E+01  0.29814586243E+02  0.00000000000E+00 0. -1.
        -14    1    3    3    0    0  0.26449443400E+01 -0.24312001577E+02 -0.14036831441E+03  0.14248274576E+03  0.00000000000E+00 0.  1.
          5    1    4    4  501    0  0.24333179106E+02  0.42431764420E+02 -0.19465356622E+02  0.52810328021E+02  0.41800000000E+01 0. -1.
         -5    1    4    4    0  501 -0.10007077477E+03  0.84503494544E+01  0.17534129705E+02  0.10203179148E+03  0.41800000000E+01 0. -1.
</event>
<event>
11    1  0.8864208E-009  0.1319941E+03  0.7561462E-02  0.1116843E+00
         22   -1    0    0    0    0  0.00000000000E+00  0.00000000000E+00  0.33542401821E+03  0.33542401821E+03  0.00000000000E+00 0. -1.
         22   -1    0    0    0    0 -0.00000000000E+00 -0.00000000000E+00 -0.20623197610E+03  0.20623197610E+03  0.00000000000E+00 0. -1.
         24    2    1    2    0    0 -0.24358857946E+02 -0.34434882638E+02 -0.13146075670E+03  0.16034144667E+03  0.81537315793E+02 0.  0.
         25    2    1    2    0    0  0.28869607366E+01  0.47718424661E+02  0.31790673948E+02  0.13764065701E+03  0.12509564708E+03 0.  0.
        -24    2    1    2    0    0  0.21471897209E+02 -0.13283542022E+02  0.22886212486E+03  0.24367389063E+03  0.79759625887E+02 0.  0.
        -13    1    3    3    0    0 -0.11602084667E+02  0.24590628779E+02 -0.65462087811E+02  0.70884358874E+02  0.00000000000E+00 0.  1.
         14    1    3    3    0    0 -0.12756773279E+02 -0.59025511417E+02 -0.65998668888E+02  0.89457087799E+02  0.00000000000E+00 0. -1.
         13    1    5    5    0    0  0.49142023631E+02  0.21491312123E+01  0.16808235961E+03  0.17513205550E+03  0.00000000000E+00 0. -1.
        -14    1    5    5    0    0 -0.27670126421E+02 -0.15432673235E+02  0.60779765243E+02  0.68541835125E+02  0.00000000000E+00 0.  1.
          5    1    4    4  501    0  0.49119238310E+01  0.84697759581E+02 -0.52367477102E+01  0.85104250190E+02  0.41800000000E+01 0.  1.
         -5    1    4    4    0  501 -0.20249630944E+01 -0.36979334921E+02  0.37027421659E+02  0.52536406818E+02  0.41800000000E+01 0.  1.
</event>
<event>
11    1  0.8864208E-009  0.2229705E+03  0.7561462E-02  0.1039372E+00
         22   -1    0    0    0    0  0.00000000000E+00  0.00000000000E+00  0.37089175351E+03  0.37089175351E+03  0.00000000000E+00 0. -1.
         22   -1    0    0    0    0 -0.00000000000E+00 -0.00000000000E+00 -0.32508718562E+04  0.32508718562E+04  0.00000000000E+00 0.  1.
         24    2    1    2    0    0 -0.12403114890E+02 -0.52246852937E+02 -0.28785639570E+04  0.28802083014E+04  0.81153151928E+02 0.  0.
         25    2    1    2    0    0  0.16767140647E+03  0.14613995241E+03 -0.29313325067E+03  0.38864444847E+03  0.12508724331E+03 0.  0.
        -24    2    1    2    0    0 -0.15526829158E+03 -0.93893099472E+02  0.29171710495E+03  0.35291085986E+03  0.80765395966E+02 0.  0.
        -13    1    3    3    0    0 -0.35975567630E+02 -0.37435066504E+02 -0.25305592163E+04  0.25310917748E+04  0.00000000000E+00 0.  1.
         14    1    3    3    0    0  0.23572452740E+02 -0.14811786433E+02 -0.34800474070E+03  0.34911652653E+03  0.00000000000E+00 0. -1.
         13    1    5    5    0    0 -0.10645954900E+03 -0.20904606554E+02  0.18759823571E+03  0.21671118151E+03  0.00000000000E+00 0. -1.
        -14    1    5    5    0    0 -0.48808742581E+02 -0.72988492918E+02  0.10411886924E+03  0.13619967835E+03  0.00000000000E+00 0.  1.
          5    1    4    4  501    0  0.83521993139E+02  0.14493204825E+03 -0.22432227474E+03  0.27985563652E+03  0.41800000000E+01 0.  1.
         -5    1    4    4    0  501  0.84149413331E+02  0.12079041548E+01 -0.68810975934E+02  0.10878881195E+03  0.41800000000E+01 0.  1.
</event>
<event>
11    1  0.8864208E-009  0.1278087E+03  0.7561462E-02  0.1121991E+00
         22   -1    0    0    0    0  0.00000000000E+00  0.00000000000E+00  0.13302605620E+04  0.13302605620E+04  0.00000000000E+00 0. -1.
         22   -1    0    0    0    0 -0.00000000000E+00 -0.00000000000E+00 -0.17449963303E+03  0.17449963303E+03  0.00000000000E+00 0. -1.
         24    2    1    2    0    0 -0.11439476103E+02  0.11086324088E+01 -0.13165477961E+03  0.15534272337E+03  0.81647351632E+02 0.  0.
         25    2    1    2    0    0  0.35753562821E+02  0.72503778846E+01  0.11465166235E+03  0.17355905503E+03  0.12508739613E+03 0.  0.
        -24    2    1    2    0    0 -0.24314086718E+02 -0.83590102934E+01  0.11727640463E+04  0.11758584167E+04  0.81280132451E+02 0.  0.
        -11    1    3    3    0    0 -0.20518037377E+02 -0.34599244767E+02 -0.95931791139E+02  0.10402406523E+03  0.00000000000E+00 0.  1.
         12    1    3    3    0    0  0.90785612741E+01  0.35707877176E+02 -0.35722988475E+02  0.51318658135E+02  0.00000000000E+00 0. -1.
         11    1    5    5    0    0 -0.23015226195E+02  0.32466485549E+02  0.77019411054E+03  0.77122159023E+03  0.00000000000E+00 0. -1.
        -12    1    5    5    0    0 -0.12988605226E+01 -0.40825495843E+02  0.40256993574E+03  0.40463682644E+03  0.00000000000E+00 0.  1.
          5    1    4    4  501    0  0.29818288781E+02 -0.23316226809E+02 -0.14418535486E+02  0.40720306285E+02  0.41800000000E+01 0. -1.
         -5    1    4    4    0  501  0.59352740399E+01  0.30566604693E+02  0.12907019783E+03  0.13283874875E+03  0.41800000000E+01 0. -1.
</event>
<event>
11    1  0.8864208E-009  0.1408660E+03  0.7561462E-02  0.1106595E+00
         22   -1    0    0    0    0  0.00000000000E+00  0.00000000000E+00  0.77055463312E+03  0.77055463312E+03  0.00000000000E+00 0. -1.
         22   -1    0    0    0    0 -0.00000000000E+00 -0.00000000000E+00 -0.38501402847E+03  0.38501402847E+03  0.00000000000E+00 0.  1.
        -24    2    1    2    0    0 -0.21085472145E+02 -0.58564533520E+02 -0.22408146134E+03  0.24594354797E+03  0.80008285481E+02 0.  0.
         25    2    1    2    0    0  0.49259362735E+02  0.58757887316E+02 -0.11105235493E+03  0.18400831918E+03  0.12508981515E+03 0.  0.
         24    2    1    2    0    0 -0.28173890590E+02 -0.19335379612E+00  0.72067442093E+03  0.72561679444E+03  0.79713900283E+02 0.  0.
        -11    1    5    5    0    0  0.11629541331E+02  0.30672611227E+02  0.35041962741E+03  0.35195165944E+03  0.00000000000E+00 0.  1.
         12    1    5    5    0    0 -0.39803431921E+02 -0.30865965023E+02  0.37025479352E+03  0.37366513500E+03  0.00000000000E+00 0. -1.
         13    1    3    3    0    0 -0.12764576979E+02  0.18525991453E+02 -0.68699348441E+02  0.72289330201E+02  0.00000000000E+00 0. -1.
        -14    1    3    3    0    0 -0.83208951657E+01 -0.77090524973E+02 -0.15538211290E+03  0.17365421776E+03  0.00000000000E+00 0.  1.
          5    1    4    4  501    0 -0.15221855067E+02  0.77517578538E+02 -0.53883430628E+02  0.95716123773E+02  0.41800000000E+01 0.  1.
         -5    1    4    4    0  501  0.64481217802E+02 -0.18759691222E+02 -0.57168924301E+02  0.88292195406E+02  0.41800000000E+01 0.  1.
</event>
<event>
11    1  0.8864208E-009  0.1430780E+03  0.7561462E-02  0.1104169E+00
         22   -1    0    0    0    0  0.00000000000E+00  0.00000000000E+00  0.13329105019E+03  0.13329105019E+03  0.00000000000E+00 0.  1.
         22   -1    0    0    0    0 -0.00000000000E+00 -0.00000000000E+00 -0.58116851446E+03  0.58116851446E+03  0.00000000000E+00 0. -1.
        -24    2    1    2    0    0 -0.34006243166E+02  0.33969469038E+02 -0.31776777038E+03  0.32968430921E+03  0.73518966573E+02 0.  0.
         25    2    1    2    0    0  0.99308449200E+02 -0.22111234096E+02 -0.20153705561E+03  0.25810444823E+03  0.12509854779E+03 0.  0.
         24    2    1    2    0    0 -0.65302206033E+02 -0.11858234942E+02  0.71427361708E+02  0.12667080721E+03  0.80861792901E+02 0.  0.
        -11    1    5    5    0    0 -0.71071885584E+02 -0.86958011694E+01  0.19337652786E+02  0.74167207671E+02  0.00000000000E+00 0.  1.
         12    1    5    5    0    0  0.57696795509E+01 -0.31624337727E+01  0.52089708922E+02  0.52503599543E+02  0.00000000000E+00 0. -1.
         11    1    3    3    0    0 -0.52139054426E+02  0.30270518664E+02 -0.29075805797E+03  0.29694281195E+03  0.00000000000E+00 0. -1.
        -12    1    3    3    0    0  0.18132811260E+02  0.36989503743E+01 -0.27009712405E+02  0.32741497251E+02  0.00000000000E+00 0.  1.
          5    1    4    4  501    0  0.10215196948E+03 -0.55111658728E+02 -0.19017797475E+03  0.22283952584E+03  0.41800000000E+01 0. -1.
         -5    1    4    4    0  501 -0.28435202839E+01  0.33000424632E+02 -0.11359080860E+02  0.35264922394E+02  0.41800000000E+01 0. -1.
</event>
<event>
11    1  0.8864208E-009  0.6884226E+03  0.7561462E-02  0.9049542E-01
         22   -1    0    0    0    0  0.00000000000E+00  0.00000000000E+00  0.90429464938E+03  0.90429464938E+03  0.00000000000E+00 0. -1.
         22   -1    0    0    0    0 -0.00000000000E+00 -0.00000000000E+00 -0.11927153055E+04  0.11927153055E+04  0.00000000000E+00 0. -1.
         24    2    1    2    0    0  0.20847447642E+03 -0.39164033486E+03 -0.33850414260E+03  0.56442064533E+03  0.84509473490E+02 0.  0.
         25    2    1    2    0    0 -0.77374921565E+03  0.50951350801E+03 -0.71449405698E+02  0.93757824180E+03  0.12512425171E+03 0.  0.
        -24    2    1    2    0    0  0.56527473922E+03 -0.11787317315E+03  0.12153289216E+03  0.59501106777E+03  0.76408841991E+02 0.  0.
        -11    1    3    3    0    0  0.17689220120E+03 -0.33729195251E+03 -0.32370962340E+03  0.49984460821E+03  0.00000000000E+00 0.  1.
         12    1    3    3    0    0  0.31582275226E+02 -0.54348382345E+02 -0.14794519203E+02  0.64576037122E+02  0.00000000000E+00 0. -1.
         11    1    5    5    0    0  0.11908652185E+03 -0.54830814810E+01  0.50361246288E+02  0.12941375119E+03  0.00000000000E+00 0. -1.
        -12    1    5    5    0    0  0.44618821737E+03 -0.11239009167E+03  0.71171645870E+02  0.46559731658E+03  0.00000000000E+00 0.  1.
          5    1    4    4  501    0 -0.30058374833E+03  0.23747377702E+03 -0.81532072961E+02  0.39167503859E+03  0.41800000000E+01 0.  1.
         -5    1    4    4    0  501 -0.47316546732E+03  0.27203973099E+03  0.10082667263E+02  0.54590320321E+03  0.41800000000E+01 0.  1.
</event>
<event>
11    1  0.8864208E-009  0.1650949E+03  0.7561462E-02  0.1082381E+00
         22   -1    0    0    0    0  0.00000000000E+00  0.00000000000E+00  0.22414652952E+03  0.22414652952E+03  0.00000000000E+00 0.  1.
         22   -1    0    0    0    0 -0.00000000000E+00 -0.00000000000E+00 -0.30967269050E+03  0.30967269050E+03  0.00000000000E+00 0. -1.
         24    2    1    2    0    0 -0.40077846350E+01 -0.11269224517E+03 -0.20345102800E+03  0.24980586152E+03  0.91077127744E+02 0.  0.
         25    2    1    2    0    0 -0.15487481115E+02  0.88698438296E+02  0.22664731852E+02  0.15578311449E+03  0.12508962252E+03 0.  0.
        -24    2    1    2    0    0  0.19495265750E+02  0.23993806875E+02  0.95260135171E+02  0.12823024401E+03  0.80079547766E+02 0.  0.
        -11    1    3    3    0    0  0.46240608207E+01 -0.56323581754E+01  0.91000061147E+01  0.11658280678E+02  0.00000000000E+00 0.  1.
         12    1    3    3    0    0 -0.86318454557E+01 -0.10705988699E+03 -0.21255103411E+03  0.23814758084E+03  0.00000000000E+00 0. -1.
         11    1    5    5    0    0  0.15435889190E+02  0.22550519472E+02 -0.50816861002E+01  0.27795973399E+02  0.00000000000E+00 0. -1.
        -12    1    5    5    0    0  0.40593765595E+01  0.14432874021E+01  0.10034182127E+03  0.10043427061E+03  0.00000000000E+00 0.  1.
          5    1    4    4  501    0  0.34758425308E+02  0.46206306546E+02  0.57122158650E+02  0.81385405960E+02  0.41800000000E+01 0. -1.
         -5    1    4    4    0  501 -0.50245906423E+02  0.42492131750E+02 -0.34457426798E+02  0.74397708530E+02  0.41800000000E+01 0. -1.
</event>
<event>
11    1  0.8864208E-009  0.1689099E+03  0.7561462E-02  0.1078984E+00
         22   -1    0    0    0    0  0.00000000000E+00  0.00000000000E+00  0.24661730887E+03  0.24661730887E+03  0.00000000000E+00 0. -1.
         22   -1    0    0    0    0 -0.00000000000E+00 -0.00000000000E+00 -0.17285051521E+04  0.17285051521E+04  0.00000000000E+00 0.  1.
         24    2    1    2    0    0 -0.35116996487E+00  0.67576951825E+02 -0.61210130433E+03  0.62125173003E+03  0.81969125741E+02 0.  0.
         25    2    1    2    0    0 -0.91007068648E+02 -0.13368829410E+03 -0.10816291959E+04  0.11007833390E+04  0.12508955034E+03 0.  0.
        -24    2    1    2    0    0  0.91358238612E+02  0.66111342277E+02  0.21184265698E+03  0.25308739189E+03  0.80367152984E+02 0.  0.
        -11    1    3    3    0    0 -0.22808972014E+02  0.69171201426E+02 -0.55679224996E+03  0.56153585276E+03  0.00000000000E+00 0.  1.
         12    1    3    3    0    0  0.22457802049E+02 -0.15942496008E+01 -0.55309054362E+02  0.59715877278E+02  0.00000000000E+00 0. -1.
         11    1    5    5    0    0  0.99231705798E+02  0.70419279876E+02  0.16289569952E+03  0.20332440910E+03  0.00000000000E+00 0. -1.
        -12    1    5    5    0    0 -0.78734671858E+01 -0.43079375994E+01  0.48946957456E+02  0.49762982789E+02  0.00000000000E+00 0.  1.
          5    1    4    4  501    0 -0.37876655077E+02 -0.10152755751E+02 -0.70820576098E+02  0.81060137232E+02  0.41800000000E+01 0. -1.
         -5    1    4    4    0  501 -0.53130413571E+02 -0.12353553835E+03 -0.10108086198E+04  0.10197232018E+04  0.41800000000E+01 0. -1.
</event>
<event>
11    1  0.8864208E-009  0.1303385E+03  0.7561462E-02  0.1118854E+00
         22   -1    0    0    0    0  0.00000000000E+00  0.00000000000E+00  0.76665692231E+03  0.76665692231E+03  0.00000000000E+00 0.  1.
         22   -1    0    0    0    0 -0.00000000000E+00 -0.00000000000E+00 -0.14298250743E+03  0.14298250743E+03  0.00000000000E+00 0.  1.
         24    2    1    2    0    0 -0.12246940501E+02 -0.33734294630E+02 -0.92539118293E+02  0.12675695887E+03  0.78840649548E+02 0.  0.
         25    2    1    2    0    0  0.21531593685E+01  0.44238599481E+02  0.11267046541E+03  0.17408288571E+03  0.12509407477E+03 0.  0.
        -24    2    1    2    0    0  0.10093781133E+02 -0.10504304851E+02  0.60354306776E+03  0.60879958516E+03  0.78488696019E+02 0.  0.
        -13    1    3    3    0    0 -0.11881649613E+02 -0.27964803463E+02 -0.10697510181E+03  0.11120645772E+03  0.00000000000E+00 0.  1.
         14    1    3    3    0    0 -0.36529088840E+00 -0.57694911664E+01  0.14435983521E+02  0.15550501149E+02  0.00000000000E+00 0. -1.
         13    1    5    5    0    0 -0.11647660563E+02  0.11304826938E+02  0.27493053084E+02  0.31927027368E+02  0.00000000000E+00 0. -1.
        -14    1    5    5    0    0  0.21741441696E+02 -0.21809131789E+02  0.57605001468E+03  0.57687255779E+03  0.00000000000E+00 0.  1.
          5    1    4    4  501    0 -0.41172662068E+02  0.70354826061E+02  0.75270250189E+02  0.11103185406E+03  0.41800000000E+01 0.  1.
         -5    1    4    4    0  501  0.43325821437E+02 -0.26116226580E+02  0.37400215220E+02  0.63051031653E+02  0.41800000000E+01 0.  1.
</event>
<event>
11    1  0.8864208E-009  0.1400676E+03  0.7561462E-02  0.1107483E+00
         22   -1    0    0    0    0  0.00000000000E+00  0.00000000000E+00  0.56023198906E+03  0.56023198906E+03  0.00000000000E+00 0. -1.
         22   -1    0    0    0    0 -0.00000000000E+00 -0.00000000000E+00 -0.54603771451E+03  0.54603771451E+03  0.00000000000E+00 0. -1.
        -24    2    1    2    0    0 -0.35473578737E+02  0.84354458591E+01 -0.49215330987E+03  0.49975928220E+03  0.78834815871E+02 0.  0.
         25    2    1    2    0    0  0.94176714557E+02 -0.96202855379E+01  0.95665185915E+02  0.18374098197E+03  0.12508843752E+03 0.  0.
         24    2    1    2    0    0 -0.58703135819E+02  0.11848396788E+01  0.41068239850E+03  0.42276943940E+03  0.81403344218E+02 0.  0.
        -11    1    5    5    0    0 -0.36224316542E+02  0.21106463661E+02  0.76457964233E+02  0.87198074588E+02  0.00000000000E+00 0.  1.
         12    1    5    5    0    0 -0.22478819277E+02 -0.19921623982E+02  0.33422443427E+03  0.33557136481E+03  0.00000000000E+00 0. -1.
         13    1    3    3    0    0 -0.23142844650E+02  0.66785964248E+01 -0.48458835811E+03  0.48518663597E+03  0.00000000000E+00 0. -1.
        -14    1    3    3    0    0 -0.12330734087E+02  0.17568494342E+01 -0.75649517658E+01  0.14572646235E+02  0.00000000000E+00 0.  1.
          5    1    4    4  501    0  0.33522252679E+02  0.31300469112E+02  0.10023841129E+03  0.11031170513E+03  0.41800000000E+01 0.  1.
         -5    1    4    4    0  501  0.60654461877E+02 -0.40920754650E+02 -0.45732253747E+01  0.73429276839E+02  0.41800000000E+01 0.  1.
</event>
<event>
11    1  0.8864208E-009  0.1428843E+03  0.7561462E-02  0.1104380E+00
         22   -1    0    0    0    0  0.00000000000E+00  0.00000000000E+00  0.93352103663E+03  0.93352103663E+03  0.00000000000E+00 0.  1.
         22   -1    0    0    0    0 -0.00000000000E+00 -0.00000000000E+00 -0.20084794142E+04  0.20084794142E+04  0.00000000000E+00 0. -1.
         24    2    1    2    0    0 -0.43747894317E+02  0.12702626752E+02 -0.19731453881E+04  0.19752609043E+04  0.79231827394E+02 0.  0.
         25    2    1    2    0    0 -0.75365703434E+01 -0.62425099564E+02  0.13041918319E+03  0.19133658983E+03  0.12508730678E+03 0.  0.
        -24    2    1    2    0    0  0.51284464661E+02  0.49722472812E+02  0.76776782734E+03  0.77540295671E+03  0.81730581565E+02 0.  0.
        -13    1    3    3    0    0 -0.52740318290E+02 -0.49298442784E+01 -0.71485089519E+03  0.71681074692E+03  0.00000000000E+00 0.  1.
         14    1    3    3    0    0  0.89924239729E+01  0.17632471031E+02 -0.12582944929E+04  0.12584501574E+04  0.00000000000E+00 0. -1.
         11    1    5    5    0    0  0.24432587933E+01 -0.14559457110E+02  0.32258022769E+02  0.35475728855E+02  0.00000000000E+00 0. -1.
        -12    1    5    5    0    0  0.48841205868E+02  0.64281929921E+02  0.73550980457E+03  0.73992722785E+03  0.00000000000E+00 0.  1.
          5    1    4    4  501    0 -0.35382107900E+02 -0.61639476215E+02  0.14356707677E+03  0.16025073017E+03  0.41800000000E+01 0.  1.
         -5    1    4    4    0  501  0.27845537556E+02 -0.78562334935E+00 -0.13147893575E+02  0.31085859668E+02  0.41800000000E+01 0.  1.
</event>
<event>
11    1  0.8864208E-009  0.2082182E+03  0.7561462E-02  0.1048860E+00
         22   -1    0    0    0    0  0.00000000000E+00  0.00000000000E+00  0.17542249356E+03  0.17542249356E+03  0.00000000000E+00 0. -1.
         22   -1    0    0    0    0 -0.00000000000E+00 -0.00000000000E+00 -0.21356184861E+04  0.21356184861E+04  0.00000000000E+00 0. -1.
        -24    2    1    2    0    0  0.58658423345E+02  0.14297685867E+03 -0.12852898411E+04  0.12970522142E+04  0.80568468164E+02 0.  0.
         25    2    1    2    0    0 -0.14603210298E+02 -0.21044014481E+03 -0.80490832881E+03  0.84144076828E+03  0.12508733121E+03 0.  0.
         24    2    1    2    0    0 -0.44055213048E+02  0.67463286142E+02  0.13000217732E+03  0.17254799720E+03  0.79875455904E+02 0.  0.
        -13    1    5    5    0    0  0.12205231863E+02 -0.79180291033E+01  0.35986250813E+01  0.14987093520E+02  0.00000000000E+00 0.  1.
         14    1    5    5    0    0 -0.56260444911E+02  0.75381315245E+02  0.12640355224E+03  0.15756090368E+03  0.00000000000E+00 0. -1.
         11    1    3    3    0    0  0.37882485915E+02  0.84038226368E+02 -0.10342853995E+04  0.10383851857E+04  0.00000000000E+00 0. -1.
        -12    1    3    3    0    0  0.20775937430E+02  0.58938632304E+02 -0.25100444157E+03  0.25866702852E+03  0.00000000000E+00 0.  1.
          5    1    4    4  501    0 -0.39132147466E+02 -0.14533775670E+03 -0.34702062344E+03  0.37827922753E+03  0.41800000000E+01 0. -1.
         -5    1    4    4    0  501  0.24528937168E+02 -0.65102388111E+02 -0.45788770537E+03  0.46316154075E+03  0.41800000000E+01 0. -1.
</event>
<event>
11    1  0.8864208E-009  0.1779057E+03  0.7561462E-02  0.1071350E+00
         22   -1    0    0    0    0  0.00000000000E+00  0.00000000000E+00  0.43720211278E+03  0.43720211278E+03  0.00000000000E+00 0.  1.
         22   -1    0    0    0    0 -0.00000000000E+00 -0.00000000000E+00 -0.36297903517E+03  0.36297903517E+03  0.00000000000E+00 0.  1.
         24    2    1    2    0    0 -0.10328239059E+03  0.13446840034E+02 -0.27419649287E+03  0.30409458283E+03  0.80260381849E+02 0.  0.
         25    2    1    2    0    0 -0.55683157654E+02 -0.29516165081E+02  0.49800884718E+02  0.14865946050E+03  0.12509072320E+03 0.  0.
        -24    2    1    2    0    0  0.15896554824E+03  0.16069325047E+02  0.29861868576E+03  0.34742710461E+03  0.77486804031E+02 0.  0.
        -13    1    3    3    0    0 -0.23868265463E+02 -0.61041249558E+01 -0.16929856656E+03  0.17108173216E+03  0.00000000000E+00 0.  1.
         14    1    3    3    0    0 -0.79414125127E+02  0.19550964990E+02 -0.10489792630E+03  0.13301285067E+03  0.00000000000E+00 0. -1.
         13    1    5    5    0    0  0.45362660265E+02 -0.28249116464E+02  0.67313432811E+02  0.85946970651E+02  0.00000000000E+00 0. -1.
        -14    1    5    5    0    0  0.11360288798E+03  0.44318441510E+02  0.23130525295E+03  0.26148013396E+03  0.00000000000E+00 0.  1.
          5    1    4    4  501    0 -0.77360996287E+02 -0.28805015608E+02  0.77449314865E+02  0.11327100884E+03  0.41800000000E+01 0.  1.
         -5    1    4    4    0  501  0.21677838633E+02 -0.71114947268E+00 -0.27648430146E+02  0.35388451661E+02  0.41800000000E+01 0.  1.
</event>
<event>
11    1  0.8864208E-009  0.1771173E+03  0.7561462E-02  0.1071999E+00
         22   -1    0    0    0    0  0.00000000000E+00  0.00000000000E+00  0.17783658593E+04  0.17783658593E+04  0.00000000000E+00 0.  1.
         22   -1    0    0    0    0 -0.00000000000E+00 -0.00000000000E+00 -0.26905361581E+03  0.26905361581E+03  0.00000000000E+00 0.  1.
         24    2    1    2    0    0  0.74984182727E+02 -0.11269207968E+02 -0.22482991634E+03  0.25067551828E+03  0.80870893857E+02 0.  0.
         25    2    1    2    0    0 -0.19095462637E+03  0.14467836443E+02  0.44990647653E+03  0.50471436808E+03  0.12509103925E+03 0.  0.
        -24    2    1    2    0    0  0.11597044364E+03 -0.31986284749E+01  0.12842356833E+04  0.12920295888E+04  0.81362109841E+02 0.  0.
        -11    1    3    3    0    0  0.68391724967E+02 -0.18465039179E+02 -0.22926196009E+03  0.23995714630E+03  0.00000000000E+00 0.  1.
         12    1    3    3    0    0  0.65924577593E+01  0.71958312106E+01  0.44320437453E+01  0.10718371979E+02  0.00000000000E+00 0. -1.
         11    1    5    5    0    0 -0.10409405238E+02  0.97172649503E+01  0.16267879328E+03  0.16330085958E+03  0.00000000000E+00 0. -1.
        -12    1    5    5    0    0  0.12637984888E+03 -0.12915893425E+02  0.11215568900E+04  0.11287287292E+04  0.00000000000E+00 0.  1.
          5    1    4    4  501    0 -0.16816694631E+03  0.56678392924E+02  0.31644512323E+03  0.36283267558E+03  0.41800000000E+01 0.  1.
         -5    1    4    4    0  501 -0.22787680059E+02 -0.42210556480E+02  0.13346135330E+03  0.14188169250E+03  0.41800000000E+01 0.  1.
</event>
<event>
11    1  0.8864208E-009  0.1715668E+03  0.7561462E-02  0.1076676E+00
         22   -1    0    0    0    0  0.00000000000E+00  0.00000000000E+00  0.22370072511E+04  0.22370072511E+04  0.00000000000E+00 0.  1.
         22   -1    0    0    0    0 -0.00000000000E+00 -0.00000000000E+00 -0.50891865872E+02  0.50891865872E+02  0.00000000000E+00 0. -1.
         24    2    1    2    0    0 -0.11371105464E+02 -0.11481024257E+03  0.75898763366E+02  0.15906031602E+03  0.78923177923E+02 0.  0.
         25    2    1    2    0    0 -0.18883936457E+02  0.14432033340E+03  0.14133727862E+04  0.14263437214E+04  0.12509523162E+03 0.  0.
        -24    2    1    2    0    0  0.30255041921E+02 -0.29510090833E+02  0.69684383565E+03  0.70249507959E+03  0.78241884852E+02 0.  0.
        -11    1    3    3    0    0 -0.14283120667E+02  0.37106848797E+00  0.33271436435E+02  0.36209580366E+02  0.00000000000E+00 0.  1.
         12    1    3    3    0    0  0.29120152033E+01 -0.11518131106E+03  0.42627326931E+02  0.12285073565E+03  0.00000000000E+00 0. -1.
         13    1    5    5    0    0  0.34249321664E+02 -0.21076801708E+02  0.14231716209E+03  0.14788989902E+03  0.00000000000E+00 0. -1.
        -14    1    5    5    0    0 -0.39942797431E+01 -0.84332891252E+01  0.55452667355E+03  0.55460518057E+03  0.00000000000E+00 0.  1.
          5    1    4    4  501    0  0.36346828340E+02  0.12910629640E+03  0.95288705613E+03  0.96228932336E+03  0.41800000000E+01 0.  1.
         -5    1    4    4    0  501 -0.55230764797E+02  0.15214037005E+02  0.46048573008E+03  0.46405439800E+03  0.41800000000E+01 0.  1.
</event>
<event>
11    1  0.8864208E-009  0.9546158E+03  0.7561462E-02  0.8723420E-01
         22   -1    0    0    0    0  0.00000000000E+00  0.00000000000E+00  0.15108029627E+04  0.15108029627E+04  0.00000000000E+00 0. -1.
         22   -1    0    0    0    0 -0.00000000000E+00 -0.00000000000E+00 -0.96901498729E+03  0.96901498729E+03  0.00000000000E+00 0. -1.
        -24    2    1    2    0    0 -0.88814036621E+02  0.24136050100E+02 -0.14455717469E+03  0.18943860560E+03  0.80744823510E+02 0.  0.
         25    2    1    2    0    0  0.52339931718E+03 -0.84660053654E+03 -0.17675712763E+03  0.10186116082E+04  0.12508881858E+03 0.  0.
         24    2    1    2    0    0 -0.43458528056E+03  0.82246448644E+03  0.86310227776E+03  0.12717677362E+04  0.84471506867E+02 0.  0.
        -13    1    5    5    0    0 -0.65606544173E+02  0.85730389391E+02  0.12904018795E+03  0.16824175584E+03  0.00000000000E+00 0.  1.
         14    1    5    5    0    0 -0.36897873639E+03  0.73673409705E+03  0.73406208982E+03  0.11035259804E+04  0.00000000000E+00 0. -1.
         13    1    3    3    0    0 -0.76989518125E+02 -0.93358255706E+01 -0.12935373147E+03  0.15082085859E+03  0.00000000000E+00 0. -1.
        -14    1    3    3    0    0 -0.11824518496E+02  0.33471875671E+02 -0.15203443212E+02  0.38617747010E+02  0.00000000000E+00 0.  1.
          5    1    4    4  501    0  0.34620789079E+03 -0.56326822250E+03 -0.17682482114E+03  0.68440885726E+03  0.41800000000E+01 0. -1.
         -5    1    4    4    0  501  0.17719142639E+03 -0.28333231404E+03  0.67693512741E-01  0.33420275096E+03  0.41800000000E+01 0. -1.
</event>
<event>
11    1  0.8864208E-009  0.1505172E+03  0.7561462E-02  0.1096351E+00
         22   -1    0    0    0    0  0.00000000000E+00  0.00000000000E+00  0.79037080765E+03  0.79037080765E+03  0.00000000000E+00 0. -1.
         22   -1    0    0    0    0 -0.00000000000E+00 -0.00000000000E+00 -0.48632683497E+03  0.48632683497E+03  0.00000000000E+00 0. -1.
         24    2    1    2    0    0 -0.42794861115E+02 -0.46875969140E+02 -0.40402565622E+03  0.41687489018E+03  0.80741479788E+02 0.  0.
         25    2    1    2    0    0  0.11246457608E+03  0.18530720967E+01  0.28489354824E+02  0.17062004178E+03  0.12509132891E+03 0.  0.
        -24    2    1    2    0    0 -0.69669714961E+02  0.45022897043E+02  0.67958027408E+03  0.68920271066E+03  0.79310131846E+02 0.  0.
        -13    1    3    3    0    0  0.44303870155E+00 -0.24626136215E+02 -0.31038928370E+03  0.31136497925E+03  0.00000000000E+00 0.  1.
         14    1    3    3    0    0 -0.43237899817E+02 -0.22249832924E+02 -0.93636372524E+02  0.10550991093E+03  0.00000000000E+00 0. -1.
         13    1    5    5    0    0 -0.15866274085E+02  0.37818825956E+02  0.49789826373E+03  0.49958451064E+03  0.00000000000E+00 0. -1.
        -14    1    5    5    0    0 -0.53803440876E+02  0.72040710873E+01  0.18168201035E+03  0.18961820001E+03  0.00000000000E+00 0.  1.
          5    1    4    4  501    0 -0.10453748446E+02 -0.36925011832E+02  0.23840448705E+00  0.38603971196E+02  0.41800000000E+01 0. -1.
         -5    1    4    4    0  501  0.12291832452E+03  0.38778083929E+02  0.28250950337E+02  0.13201607058E+03  0.41800000000E+01 0. -1.
</event>
<event>
11    1  0.8864208E-009  0.2109642E+03  0.7561462E-02  0.1047030E+00
         22   -1    0    0    0    0  0.00000000000E+00  0.00000000000E+00  0.38831733702E+03  0.38831733702E+03  0.00000000000E+00 0.  1.
         22   -1    0    0    0    0 -0.00000000000E+00 -0.00000000000E+00 -0.85357441956E+03  0.85357441956E+03  0.00000000000E+00 0.  1.
         24    2    1    2    0    0  0.22542656123E+01 -0.64800660452E+01 -0.57888296335E+03  0.58494823553E+03  0.83736969308E+02 0.  0.
         25    2    1    2    0    0  0.15059288124E+02 -0.16316223655E+03 -0.20219153986E+03  0.28875035320E+03  0.12508657039E+03 0.  0.
        -24    2    1    2    0    0 -0.17313553736E+02  0.16964230259E+03  0.31581742067E+03  0.36819316785E+03  0.82141924010E+02 0.  0.
        -11    1    3    3    0    0  0.23822473518E+02 -0.58314033683E+01 -0.53937000732E+03  0.53992732873E+03  0.00000000000E+00 0.  1.
         12    1    3    3    0    0 -0.21568207906E+02 -0.64866267692E+00 -0.39512956026E+02  0.45020906804E+02  0.00000000000E+00 0. -1.
         11    1    5    5    0    0 -0.12882194048E+02 -0.26117491331E+01  0.78833927755E+01  0.15327101444E+02  0.00000000000E+00 0. -1.
        -12    1    5    5    0    0 -0.44313596880E+01  0.17225405172E+03  0.30793402789E+03  0.35286606640E+03  0.00000000000E+00 0.  1.
          5    1    4    4  501    0 -0.54274711906E+02 -0.61879122342E+02 -0.68038560736E+02  0.10687136324E+03  0.41800000000E+01 0.  1.
         -5    1    4    4    0  501  0.69334000030E+02 -0.10128311420E+03 -0.13415297912E+03  0.18187898996E+03  0.41800000000E+01 0.  1.
</event>
<event>
11    1  0.8864208E-009  0.1434925E+03  0.7561462E-02  0.1103720E+00
         22   -1    0    0    0    0  0.00000000000E+00  0.00000000000E+00  0.74801662721E+03  0.74801662721E+03  0.00000000000E+00 0.  1.
         22   -1    0    0    0    0 -0.00000000000E+00 -0.00000000000E+00 -0.60291168742E+03  0.60291168742E+03  0.00000000000E+00 0.  1.
         24    2    1    2    0    0 -0.16495644889E+00  0.70034466457E+02 -0.54473716311E+03  0.55531022544E+03  0.82012291159E+02 0.  0.
         25    2    1    2    0    0  0.27037248444E+02 -0.76321035058E+02  0.61081139868E+02  0.16102819769E+03  0.12507302510E+03 0.  0.
        -24    2    1    2    0    0 -0.26872291995E+02  0.62865686007E+01  0.62876096304E+03  0.63458989150E+03  0.81254788999E+02 0.  0.
        -11    1    3    3    0    0 -0.20384010352E+02  0.62411830766E+02 -0.51130294723E+03  0.51550116231E+03  0.00000000000E+00 0.  1.
         12    1    3    3    0    0  0.20219053903E+02  0.76226356910E+01 -0.33434215879E+02  0.39809063127E+02  0.00000000000E+00 0. -1.
         11    1    5    5    0    0 -0.12289581827E-01 -0.51301134182E+01 -0.21777775172E-01  0.51301743625E+01  0.00000000000E+00 0. -1.
        -12    1    5    5    0    0 -0.26860002413E+02  0.11416682019E+02  0.62878274081E+03  0.62945971714E+03  0.00000000000E+00 0.  1.
          5    1    4    4  501    0 -0.31493712279E+02 -0.76147567105E+02  0.97839295163E+01  0.83087324941E+02  0.41800000000E+01 0.  1.
         -5    1    4    4    0  501  0.58530960723E+02 -0.17346795309E+00  0.51297210352E+02  0.77940872744E+02  0.41800000000E+01 0.  1.
</event>
<event>
11    1  0.8864208E-009  0.2016916E+03  0.7561462E-02  0.1053334E+00
         22   -1    0    0    0    0  0.00000000000E+00  0.00000000000E+00  0.75029210601E+03  0.75029210601E+03  0.00000000000E+00 0.  1.
         22   -1    0    0    0    0 -0.00000000000E+00 -0.00000000000E+00 -0.25417597022E+03  0.25417597022E+03  0.00000000000E+00 0. -1.
        -24    2    1    2    0    0  0.10902090481E+03 -0.10815967263E+03 -0.82692059101E+02  0.19834979713E+03  0.94448890498E+02 0.  0.
         25    2    1    2    0    0 -0.14534438107E+03  0.87006762096E+02 -0.83770970279E+01  0.21073881751E+03  0.12508200387E+03 0.  0.
         24    2    1    2    0    0  0.36323476267E+02  0.21152910530E+02  0.58718529191E+03  0.59537946158E+03  0.89012896167E+02 0.  0.
        -11    1    5    5    0    0  0.88475814419E+01 -0.18578343017E+02  0.43977153167E+03  0.44025269402E+03  0.00000000000E+00 0.  1.
         12    1    5    5    0    0  0.27475894825E+02  0.39731253546E+02  0.14741376024E+03  0.15512676756E+03  0.00000000000E+00 0. -1.
         13    1    3    3    0    0  0.71094439344E+02 -0.37134643989E+02 -0.86215084371E+02  0.11775585702E+03  0.00000000000E+00 0. -1.
        -14    1    3    3    0    0  0.37926465461E+02 -0.71025028637E+02  0.35230252694E+01  0.80593940109E+02  0.00000000000E+00 0.  1.
          5    1    4    4  501    0 -0.83280289363E+02  0.24198153663E+01  0.42994637379E+02  0.93848139812E+02  0.41800000000E+01 0. -1.
         -5    1    4    4    0  501 -0.62064091710E+02  0.84586946730E+02 -0.51371734407E+02  0.11689067770E+03  0.41800000000E+01 0. -1.
</event>
<event>
11    1  0.8864208E-009  0.1619498E+03  0.7561462E-02  0.1085258E+00
         22   -1    0    0    0    0  0.00000000000E+00  0.00000000000E+00  0.14458011784E+04  0.14458011784E+04  0.00000000000E+00 0.  1.
         22   -1    0    0    0    0 -0.00000000000E+00 -0.00000000000E+00 -0.10610426344E+03  0.10610426344E+03  0.00000000000E+00 0. -1.
        -24    2    1    2    0    0  0.35753806613E+01 -0.88853695919E+01 -0.71709762987E+02  0.10980870813E+03  0.82607076784E+02 0.  0.
         25    2    1    2    0    0  0.23863813323E+02 -0.93884791863E+02  0.63634413290E+03  0.65571655516E+03  0.12508600843E+03 0.  0.
         24    2    1    2    0    0 -0.27439193985E+02  0.10277016145E+03  0.77506254505E+03  0.78638017855E+03  0.79732183076E+02 0.  0.
        -11    1    5    5    0    0  0.10720415306E+02  0.81127274458E+02  0.61477901678E+03  0.62020142006E+03  0.00000000000E+00 0.  1.
         12    1    5    5    0    0 -0.38159609290E+02  0.21642886997E+02  0.16028352827E+03  0.16617875849E+03  0.00000000000E+00 0. -1.
         13    1    3    3    0    0  0.15672780751E+02 -0.44907838336E+01 -0.87745061776E+02  0.89246843429E+02  0.00000000000E+00 0. -1.
        -14    1    3    3    0    0 -0.12097400090E+02 -0.43945857583E+01  0.16035298789E+02  0.20561864705E+02  0.00000000000E+00 0.  1.
          5    1    4    4  501    0  0.37282197728E+02 -0.26407632499E+01  0.40333875944E+03  0.40508833995E+03  0.41800000000E+01 0.  1.
         -5    1    4    4    0  501 -0.13418384405E+02 -0.91244028613E+02  0.23300537346E+03  0.25062821521E+03  0.41800000000E+01 0.  1.
</event>
<event>
11    1  0.8864208E-009  0.1321318E+03  0.7561462E-02  0.1116677E+00
         22   -1    0    0    0    0  0.00000000000E+00  0.00000000000E+00  0.26080463942E+03  0.26080463942E+03  0.00000000000E+00 0.  1.
         22   -1    0    0    0    0 -0.00000000000E+00 -0.00000000000E+00 -0.40929087285E+03  0.40929087285E+03  0.00000000000E+00 0.  1.
        -24    2    1    2    0    0  0.14635727690E+02 -0.82167335811E+01 -0.35164660127E+03  0.36094862842E+03  0.79667188612E+02 0.  0.
         25    2    1    2    0    0 -0.78151702599E+01  0.48361194498E+02  0.81146612480E+02  0.15694413063E+03  0.12508719121E+03 0.  0.
         24    2    1    2    0    0 -0.68205574300E+01 -0.40144460917E+02  0.12201375536E+03  0.15220275321E+03  0.81364757983E+02 0.  0.
        -11    1    5    5    0    0  0.21568845614E+02  0.26597772790E+01  0.87891515695E+02  0.90538434090E+02  0.00000000000E+00 0.  1.
         12    1    5    5    0    0 -0.28389403044E+02 -0.42804238196E+02  0.34122239664E+02  0.61664319119E+02  0.00000000000E+00 0. -1.
         11    1    3    3    0    0  0.39115025417E+02 -0.29480023253E+02 -0.21450017677E+03  0.22002132356E+03  0.00000000000E+00 0. -1.
        -12    1    3    3    0    0 -0.24479297727E+02  0.21263289672E+02 -0.13714642449E+03  0.14092730486E+03  0.00000000000E+00 0.  1.
          5    1    4    4  501    0  0.44442946792E+02  0.47449805714E+02  0.61506457198E+01  0.65436705484E+02  0.41800000000E+01 0.  1.
         -5    1    4    4    0  501 -0.52258117052E+02  0.91138878388E+00  0.74995966761E+02  0.91507425151E+02  0.41800000000E+01 0.  1.
</event>
<event>
11    1  0.8864208E-009  0.1705229E+03  0.7561462E-02  0.1077577E+00
         22   -1    0    0    0    0  0.00000000000E+00  0.00000000000E+00  0.79469385977E+03  0.79469385977E+03  0.00000000000E+00 0.  1.
         22   -1    0    0    0    0 -0.00000000000E+00 -0.00000000000E+00 -0.79354906482E+02  0.79354906482E+02  0.00000000000E+00 0. -1.
        -24    2    1    2    0    0 -0.11685903025E+03  0.85721860626E+02  0.15136375174E+03  0.22286570172E+03  0.75854237333E+02 0.  0.
         25    2    1    2    0    0  0.97129895716E+02 -0.79764851587E+01  0.13745916637E+03  0.20985855031E+03  0.12509095797E+03 0.  0.
         24    2    1    2    0    0  0.19729134536E+02 -0.77745375467E+02  0.42651603519E+03  0.44132451422E+03  0.80111275267E+02 0.  0.
        -13    1    5    5    0    0  0.51062880436E+02 -0.48749180312E+02  0.27352398586E+03  0.28248764784E+03  0.00000000000E+00 0.  1.
         14    1    5    5    0    0 -0.31333745900E+02 -0.28996195156E+02  0.15299204933E+03  0.15883686639E+03  0.00000000000E+00 0. -1.
         13    1    3    3    0    0 -0.10204179056E+03  0.99469417152E+02  0.12435977054E+03  0.18913499015E+03  0.00000000000E+00 0. -1.
        -14    1    3    3    0    0 -0.14817239690E+02 -0.13747556526E+02  0.27003981197E+02  0.33730711569E+02  0.00000000000E+00 0.  1.
          5    1    4    4  501    0  0.18005659457E+02 -0.53286529004E+02  0.17363034028E+02  0.59013602639E+02  0.41800000000E+01 0.  1.
         -5    1    4    4    0  501  0.79124236259E+02  0.45310043846E+02  0.12009613234E+03  0.15084494768E+03  0.41800000000E+01 0.  1.
</event>
<event>
11    1  0.8864208E-009  0.1578423E+03  0.7561462E-02  0.1089124E+00
         22   -1    0    0    0    0  0.00000000000E+00  0.00000000000E+00  0.69112480726E+02  0.69112480726E+02  0.00000000000E+00 0. -1.
         22   -1    0    0    0    0 -0.00000000000E+00 -0.00000000000E+00 -0.23379657963E+04  0.23379657963E+04  0.00000000000E+00 0. -1.
        -24    2    1    2    0    0 -0.40853728535E+02 -0.99423322365E+02 -0.11700228777E+04  0.11778476716E+04  0.82568630720E+02 0.  0.
         25    2    1    2    0    0 -0.28811636426E+02  0.90031560865E+02 -0.11117301539E+04  0.11227324949E+04  0.12509407515E+03 0.  0.
         24    2    1    2    0    0  0.69665364961E+02  0.93917614994E+01  0.12899716107E+02  0.10649811055E+03  0.78955535685E+02 0.  0.
        -11    1    5    5    0    0 -0.55531180304E+01  0.21466178118E+02 -0.13396867650E+02  0.25905790582E+02  0.00000000000E+00 0.  1.
         12    1    5    5    0    0  0.75218482991E+02 -0.12074416618E+02  0.26296583757E+02  0.80592319966E+02  0.00000000000E+00 0. -1.
         11    1    3    3    0    0 -0.35251054273E+02 -0.11297277503E+03 -0.10971644718E+04  0.11035285963E+04  0.00000000000E+00 0. -1.
        -12    1    3    3    0    0 -0.56026742619E+01  0.13549452667E+02 -0.72858405929E+02  0.74319075216E+02  0.00000000000E+00 0.  1.
          5    1    4    4  501    0 -0.58767222351E+02  0.72990502970E+02 -0.42968352603E+03  0.43980291596E+03  0.41800000000E+01 0. -1.
         -5    1    4    4    0  501  0.29955585925E+02  0.17041057895E+02 -0.68204662787E+03  0.68292957893E+03  0.41800000000E+01 0. -1.
</event>
<event>
11    1  0.8864208E-009  0.1663571E+03  0.7561462E-02  0.1081246E+00
         22   -1    0    0    0    0  0.00000000000E+00  0.00000000000E+00  0.23689624201E+03  0.23689624201E+03  0.00000000000E+00 0. -1.
         22   -1    0    0    0    0 -0.00000000000E+00 -0.00000000000E+00 -0.30405589597E+04  0.30405589597E+04  0.00000000000E+00 0. -1.
         24    2    1    2    0    0 -0.40093752501E+02  0.10216753991E+03 -0.29507098298E+04  0.29538374922E+04  0.80135603650E+02 0.  0.
         25    2    1    2    0    0  0.25869471328E+01 -0.11120327828E+03  0.19160139878E+02  0.16848616122E+03  0.12509042395E+03 0.  0.
        -24    2    1    2    0    0  0.37506805369E+02  0.90357383747E+01  0.12788697227E+03  0.15513154834E+03  0.78881649316E+02 0.  0.
        -13    1    3    3    0    0 -0.55349048245E+02  0.46400190797E+02 -0.11986772387E+04  0.12008512054E+04  0.00000000000E+00 0.  1.
         14    1    3    3    0    0  0.15255295743E+02  0.55767349110E+02 -0.17520325911E+04  0.17529862868E+04  0.00000000000E+00 0. -1.
         11    1    5    5    0    0 -0.12984083383E+02  0.30212324330E+02  0.52785141477E+02  0.62190370022E+02  0.00000000000E+00 0. -1.
        -12    1    5    5    0    0  0.50490888752E+02 -0.21176585956E+02  0.75101830790E+02  0.92941178321E+02  0.00000000000E+00 0.  1.
          5    1    4    4  501    0  0.54808454824E+02 -0.74080400296E+02 -0.18451104941E+02  0.94073312378E+02  0.41800000000E+01 0. -1.
         -5    1    4    4    0  501 -0.52221507691E+02 -0.37122877985E+02  0.37611244819E+02  0.74412848838E+02  0.41800000000E+01 0. -1.
</event>
<event>
11    1  0.1348259E-008  0.1763882E+03  0.7561462E-02  0.1072602E+00
         22   -1    0    0    0    0  0.00000000000E+00  0.00000000000E+00  0.73783084891E+03  0.73783084891E+03  0.00000000000E+00 0. -1.
         22   -1    0    0    0    0 -0.00000000000E+00 -0.00000000000E+00 -0.10651312646E+04  0.10651312646E+04  0.00000000000E+00 0.  1.
        -24    2    1    2    0    0  0.10457903275E+03  0.73400187802E+02 -0.93256278732E+03  0.94459644164E+03  0.79150007020E+02 0.  0.
         25    2    1    2    0    0  0.24836093746E+01 -0.13968503451E+03 -0.43602852328E+02  0.19252476561E+03  0.12508596828E+03 0.  0.
         24    2    1    2    0    0 -0.10706264212E+03  0.66284846708E+02  0.64886522393E+03  0.66584090628E+03  0.80386214068E+02 0.  0.
        -13    1    5    5    0    0 -0.51287222173E+01 -0.16617364216E+02  0.58427778811E+02  0.60961019692E+02  0.00000000000E+00 0.  1.
         14    1    5    5    0    0 -0.10193391990E+03  0.82902210925E+02  0.59043744512E+03  0.60487988659E+03  0.00000000000E+00 0. -1.
         11    1    3    3    0    0  0.37188451836E+02  0.29142159572E+02 -0.13618356171E+03  0.14414648416E+03  0.00000000000E+00 0. -1.
        -12    1    3    3    0    0  0.67390580909E+02  0.44258028229E+02 -0.79637922560E+03  0.80044995748E+03  0.00000000000E+00 0.  1.
          5    1    4    4  501    0  0.65848768611E+01 -0.13009010040E+03 -0.81020259405E+02  0.15345536700E+03  0.41800000000E+01 0.  1.
         -5    1    4    4    0  501 -0.41012674865E+01 -0.95949341079E+01  0.37417407077E+02  0.39069398612E+02  0.41800000000E+01 0.  1.
</event>
<event>
11    1  0.8864208E-009  0.2261780E+03  0.7561462E-02  0.1037415E+00
         22   -1    0    0    0    0  0.00000000000E+00  0.00000000000E+00  0.11138819998E+03  0.11138819998E+03  0.00000000000E+00 0.  1.
         22   -1    0    0    0    0 -0.00000000000E+00 -0.00000000000E+00 -0.90532696270E+03  0.90532696270E+03  0.00000000000E+00 0.  1.
        -24    2    1    2    0    0 -0.45609434246E+02 -0.65254071091E+02 -0.14228320159E+03  0.18191106352E+03  0.80677204283E+02 0.  0.
         25    2    1    2    0    0  0.19637210666E+03 -0.47451449242E+02 -0.56436463065E+03  0.61234773965E+03  0.12509465864E+03 0.  0.
         24    2    1    2    0    0 -0.15076267242E+03  0.11270552033E+03 -0.87290930486E+02  0.22245635951E+03  0.80219745919E+02 0.  0.
        -11    1    5    5    0    0 -0.89748660917E+02  0.11204398075E+03 -0.59241945910E+02  0.15530062432E+03  0.00000000000E+00 0.  1.
         12    1    5    5    0    0 -0.61014011499E+02  0.66153958401E+00 -0.28048984576E+02  0.67155735195E+02  0.00000000000E+00 0. -1.
         13    1    3    3    0    0 -0.10256688761E+02  0.15315463081E+02 -0.54317880500E+01  0.19216331469E+02  0.00000000000E+00 0. -1.
        -14    1    3    3    0    0 -0.35352745485E+02 -0.80569534171E+02 -0.13685141354E+03  0.16269473205E+03  0.00000000000E+00 0.  1.
          5    1    4    4  501    0  0.10190335873E+03  0.93996395244E+01 -0.41003682976E+03  0.42263497477E+03  0.41800000000E+01 0. -1.
         -5    1    4    4    0  501  0.94468747935E+02 -0.56851088767E+02 -0.15432780089E+03  0.18971276488E+03  0.41800000000E+01 0. -1.
</event>
<event>
11    1  0.8864208E-009  0.1930758E+03  0.7561462E-02  0.1059531E+00
         22   -1    0    0    0    0  0.00000000000E+00  0.00000000000E+00  0.31796676830E+03  0.31796676830E+03  0.00000000000E+00 0.  1.
         22   -1    0    0    0    0 -0.00000000000E+00 -0.00000000000E+00 -0.22799637768E+04  0.22799637768E+04  0.00000000000E+00 0. -1.
        -24    2    1    2    0    0  0.56302607726E+02 -0.37852046459E+02 -0.21491263389E+04  0.21517084571E+04  0.80638097876E+02 0.  0.
         25    2    1    2    0    0 -0.10638797958E+03  0.16030492330E+03  0.40367182011E+02  0.23301041329E+03  0.12509305611E+03 0.  0.
         24    2    1    2    0    0  0.50085371851E+02 -0.12245287684E+03  0.14676214837E+03  0.21321167471E+03  0.80105171609E+02 0.  0.
        -11    1    5    5    0    0  0.16917374063E+02  0.85774833313E+01  0.12617506751E+02  0.22780962273E+02  0.00000000000E+00 0.  1.
         12    1    5    5    0    0  0.33167997788E+02 -0.13103036018E+03  0.13414464161E+03  0.19043071244E+03  0.00000000000E+00 0. -1.
         11    1    3    3    0    0  0.53144804883E+02  0.15313315401E+01 -0.17048335675E+04  0.17056623957E+04  0.00000000000E+00 0. -1.
        -12    1    3    3    0    0  0.31578028426E+01 -0.39383377999E+02 -0.44429277141E+03  0.44604606142E+03  0.00000000000E+00 0.  1.
          5    1    4    4  501    0 -0.42965195401E+02  0.22567425036E+02  0.63000567827E+02  0.79635674387E+02  0.41800000000E+01 0.  1.
         -5    1    4    4    0  501 -0.63422784176E+02  0.13773749827E+03 -0.22633385816E+02  0.15337473891E+03  0.41800000000E+01 0.  1.
</event>
<event>
11    1  0.8864208E-009  0.1377332E+03  0.7561462E-02  0.1110116E+00
         22   -1    0    0    0    0  0.00000000000E+00  0.00000000000E+00  0.78674032058E+03  0.78674032058E+03  0.00000000000E+00 0. -1.
         22   -1    0    0    0    0 -0.00000000000E+00 -0.00000000000E+00 -0.12666291332E+03  0.12666291332E+03  0.00000000000E+00 0.  1.
         24    2    1    2    0    0  0.67146595017E+02 -0.85400465453E+01 -0.50934404031E+02  0.11626157582E+03  0.79629409651E+02 0.  0.
         25    2    1    2    0    0 -0.26955193578E+02 -0.86880622597E+01  0.63437924885E+02  0.14308255218E+03  0.12508469746E+03 0.  0.
        -24    2    1    2    0    0 -0.40191401439E+02  0.17228108805E+02  0.64757388640E+03  0.65405910590E+03  0.80803583925E+02 0.  0.
        -11    1    3    3    0    0  0.74077334696E+02 -0.11158196712E+02 -0.65764306112E+02  0.99684004875E+02  0.00000000000E+00 0.  1.
         12    1    3    3    0    0 -0.69307396788E+01  0.26181501663E+01  0.14829902081E+02  0.16577570948E+02  0.00000000000E+00 0. -1.
         11    1    5    5    0    0 -0.24957628518E+02 -0.95685122681E+01  0.56940943315E+03  0.57003643937E+03  0.00000000000E+00 0. -1.
        -12    1    5    5    0    0 -0.15233772921E+02  0.26796621073E+02  0.78164453248E+02  0.84022666525E+02  0.00000000000E+00 0.  1.
          5    1    4    4  501    0 -0.34363199582E+02  0.38826280890E+02 -0.12131060180E+02  0.53412962793E+02  0.41800000000E+01 0.  1.
         -5    1    4    4    0  501  0.74080060047E+01 -0.47514343149E+02  0.75568985065E+02  0.89669589392E+02  0.41800000000E+01 0.  1.
</event>
<event>
11    1  0.8864208E-009  0.1919259E+03  0.7561462E-02  0.1060385E+00
         22   -1    0    0    0    0  0.00000000000E+00  0.00000000000E+00  0.92118885829E+02  0.92118885829E+02  0.00000000000E+00 0.  1.
         22   -1    0    0    0    0 -0.00000000000E+00 -0.00000000000E+00 -0.17850581450E+04  0.17850581450E+04  0.00000000000E+00 0.  1.
        -24    2    1    2    0    0 -0.58740080020E+01 -0.32100705334E+02 -0.13720931233E+04  0.13751262670E+04  0.85251111099E+02 0.  0.
         25    2    1    2    0    0 -0.13897268849E+03  0.49178006749E+02 -0.24583237437E+03  0.31275126456E+03  0.12509161724E+03 0.  0.
         24    2    1    2    0    0  0.14484669649E+03 -0.17077301415E+02 -0.75013761436E+02  0.18929949920E+03  0.94525320875E+02 0.  0.
        -13    1    5    5    0    0  0.99052859999E+02 -0.93142874536E+01  0.18328776039E+01  0.99506705628E+02  0.00000000000E+00 0.  1.
         14    1    5    5    0    0  0.45793836489E+02 -0.77630139611E+01 -0.76846639039E+02  0.89792793574E+02  0.00000000000E+00 0. -1.
         13    1    3    3    0    0 -0.16038437415E+01  0.13075572191E+02 -0.37228129180E+02  0.39490207712E+02  0.00000000000E+00 0. -1.
        -14    1    3    3    0    0 -0.42701642604E+01 -0.45176277525E+02 -0.13348649941E+04  0.13356360593E+04  0.00000000000E+00 0.  1.
          5    1    4    4  501    0 -0.40387366997E+02 -0.38219553411E+01 -0.17621359336E+03  0.18087136214E+03  0.41800000000E+01 0. -1.
         -5    1    4    4    0  501 -0.98585321488E+02  0.52999962090E+02 -0.69618781013E+02  0.13187990243E+03  0.41800000000E+01 0. -1.
</event>
<event>
11    1  0.8864208E-009  0.1399697E+03  0.7561462E-02  0.1107592E+00
         22   -1    0    0    0    0  0.00000000000E+00  0.00000000000E+00  0.12009813261E+04  0.12009813261E+04  0.00000000000E+00 0. -1.
         22   -1    0    0    0    0 -0.00000000000E+00 -0.00000000000E+00 -0.12839166055E+04  0.12839166055E+04  0.00000000000E+00 0.  1.
         24    2    1    2    0    0  0.48829130742E+02 -0.14677835081E+02 -0.12176365408E+04  0.12214306578E+04  0.81574403862E+02 0.  0.
         25    2    1    2    0    0 -0.95772498988E+02 -0.25472320409E+02  0.40646953565E+02  0.16468330703E+03  0.12508879291E+03 0.  0.
        -24    2    1    2    0    0  0.46943368246E+02  0.40150155490E+02  0.10940543078E+04  0.10987839668E+04  0.80967045210E+02 0.  0.
        -11    1    3    3    0    0  0.71559232176E+02 -0.62194382170E+01 -0.93565590891E+03  0.93840896468E+03  0.00000000000E+00 0.  1.
         12    1    3    3    0    0 -0.22730101434E+02 -0.84583968638E+01 -0.28198063193E+03  0.28302169311E+03  0.00000000000E+00 0. -1.
         11    1    5    5    0    0  0.68529155479E+02  0.41558630315E+02  0.87687488637E+03  0.88052991502E+03  0.00000000000E+00 0. -1.
        -12    1    5    5    0    0 -0.21585787234E+02 -0.14084748251E+01  0.21717942143E+03  0.21825405175E+03  0.00000000000E+00 0.  1.
          5    1    4    4  501    0 -0.29398549238E+02 -0.30334847847E+02 -0.41169567377E+02  0.59134451627E+02  0.41800000000E+01 0. -1.
         -5    1    4    4    0  501 -0.66373949750E+02  0.48625274377E+01  0.81816520942E+02  0.10554885541E+03  0.41800000000E+01 0. -1.
</event>
<event>
11    1  0.8864208E-009  0.1613848E+03  0.7561462E-02  0.1085782E+00
         22   -1    0    0    0    0  0.00000000000E+00  0.00000000000E+00  0.59941261676E+03  0.59941261676E+03  0.00000000000E+00 0.  1.
         22   -1    0    0    0    0 -0.00000000000E+00 -0.00000000000E+00 -0.30742901692E+03  0.30742901692E+03  0.00000000000E+00 0.  1.
         24    2    1    2    0    0 -0.59182396537E+02 -0.84957856851E+02 -0.25784320033E+03  0.28933578349E+03  0.80695019367E+02 0.  0.
         25    2    1    2    0    0  0.47451126080E+02  0.67738752285E+02  0.16200600637E+03  0.22076286738E+03  0.12510055790E+03 0.  0.
        -24    2    1    2    0    0  0.11731270457E+02  0.17219104566E+02  0.38782079379E+03  0.39674298281E+03  0.81030278558E+02 0.  0.
        -11    1    3    3    0    0 -0.42292812828E+02 -0.89457306374E+02 -0.25228234002E+03  0.27099385744E+03  0.00000000000E+00 0.  1.
         12    1    3    3    0    0 -0.16889583710E+02  0.44994495232E+01 -0.55608603018E+01  0.18341926049E+02  0.00000000000E+00 0. -1.
         11    1    5    5    0    0 -0.39081572149E+01  0.18633562858E+02  0.16804094745E+02  0.25394112660E+02  0.00000000000E+00 0. -1.
        -12    1    5    5    0    0  0.15639427672E+02 -0.14144582922E+01  0.37101669905E+03  0.37134887015E+03  0.00000000000E+00 0.  1.
          5    1    4    4  501    0  0.82075570594E+02  0.16187509678E+02  0.67362357615E+02  0.10748764758E+03  0.41800000000E+01 0. -1.
         -5    1    4    4    0  501 -0.34624444514E+02  0.51551242607E+02  0.94643648755E+02  0.11327521981E+03  0.41800000000E+01 0. -1.
</event>
<event>
11    1  0.8864208E-009  0.1417549E+03  0.7561462E-02  0.1105614E+00
         22   -1    0    0    0    0  0.00000000000E+00  0.00000000000E+00  0.23247764551E+03  0.23247764551E+03  0.00000000000E+00 0. -1.
         22   -1    0    0    0    0 -0.00000000000E+00 -0.00000000000E+00 -0.65734612953E+03  0.65734612953E+03  0.00000000000E+00 0. -1.
        -24    2    1    2    0    0 -0.42834394748E+02 -0.52089976243E+02 -0.50599817684E+03  0.51672014661E+03  0.80108700829E+02 0.  0.
         25    2    1    2    0    0 -0.72786225053E+01  0.81080305825E+02 -0.90899591535E+02  0.17474911478E+03  0.12509005970E+03 0.  0.
         24    2    1    2    0    0  0.50113017253E+02 -0.28990329582E+02  0.17202928437E+03  0.19835451365E+03  0.79991778935E+02 0.  0.
        -13    1    5    5    0    0  0.32616432805E+02 -0.17815676871E+02  0.15193476078E+02  0.40150613278E+02  0.00000000000E+00 0.  1.
         14    1    5    5    0    0  0.17496584448E+02 -0.11174652711E+02  0.15683580829E+03  0.15820390037E+03  0.00000000000E+00 0. -1.
         11    1    3    3    0    0 -0.79013267232E+01 -0.41236408872E+02 -0.43337790760E+03  0.43540703161E+03  0.00000000000E+00 0. -1.
        -12    1    3    3    0    0 -0.34933068025E+02 -0.10853567371E+02 -0.72620269242E+02  0.81313115001E+02  0.00000000000E+00 0.  1.
          5    1    4    4  501    0 -0.53641228644E+02  0.75391361504E+02 -0.28929563836E+02  0.97034173689E+02  0.41800000000E+01 0.  1.
         -5    1    4    4    0  501  0.46362606139E+02  0.56889443211E+01 -0.61970027700E+02  0.77714941090E+02  0.41800000000E+01 0.  1.
</event>
<event>
11    1  0.8864208E-009  0.1380629E+03  0.7561462E-02  0.1109741E+00
         22   -1    0    0    0    0  0.00000000000E+00  0.00000000000E+00  0.32827275905E+03  0.32827275905E+03  0.00000000000E+00 0.  1.
         22   -1    0    0    0    0 -0.00000000000E+00 -0.00000000000E+00 -0.14459161021E+03  0.14459161021E+03  0.00000000000E+00 0.  1.
         24    2    1    2    0    0 -0.22701494607E+02  0.99937814624E+01 -0.55340206232E+02  0.98874804098E+02  0.78092604864E+02 0.  0.
         25    2    1    2    0    0 -0.28673597984E+02  0.25630534370E+02  0.20263204283E+02  0.13243577276E+03  0.12509810928E+03 0.  0.
        -24    2    1    2    0    0  0.51375092591E+02 -0.35624315832E+02  0.21875815079E+03  0.24155379240E+03  0.81145634936E+02 0.  0.
        -11    1    3    3    0    0 -0.21416853887E+02 -0.12343310110E+02 -0.68564837065E+02  0.72884674772E+02  0.00000000000E+00 0.  1.
         12    1    3    3    0    0 -0.12846407203E+01  0.22337091572E+02  0.13224630834E+02  0.25990129326E+02  0.00000000000E+00 0. -1.
         13    1    5    5    0    0  0.73253705113E+01 -0.41710168384E+02  0.43371125797E+02  0.60617272725E+02  0.00000000000E+00 0. -1.
        -14    1    5    5    0    0  0.44049722079E+02  0.60858525516E+01  0.17538702499E+03  0.18093651968E+03  0.00000000000E+00 0.  1.
          5    1    4    4  501    0  0.42679947027E+02  0.36121201053E+01 -0.20044521603E+02  0.47475051724E+02  0.41800000000E+01 0.  1.
         -5    1    4    4    0  501 -0.71353545011E+02  0.22018414264E+02  0.40307725887E+02  0.84960721033E+02  0.41800000000E+01 0.  1.
</event>
<event>
11    1  0.8864208E-009  0.1332032E+03  0.7561462E-02  0.1115395E+00
         22   -1    0    0    0    0  0.00000000000E+00  0.00000000000E+00  0.12562760156E+03  0.12562760156E+03  0.00000000000E+00 0.  1.
         22   -1    0    0    0    0 -0.00000000000E+00 -0.00000000000E+00 -0.70421212333E+03  0.70421212333E+03  0.00000000000E+00 0.  1.
         24    2    1    2    0    0  0.24153261224E+02  0.24440826044E+02 -0.49658727903E+03  0.50388682206E+03  0.78244934307E+02 0.  0.
         25    2    1    2    0    0  0.24038176694E+02 -0.26840886349E+02 -0.15786510101E+03  0.20461257171E+03  0.12508655909E+03 0.  0.
        -24    2    1    2    0    0 -0.48191437918E+02  0.24000603055E+01  0.75867858262E+02  0.12134033113E+03  0.81482323622E+02 0.  0.
        -13    1    3    3    0    0  0.23363251889E+02 -0.39769701672E+01 -0.43924837832E+03  0.43988725338E+03  0.00000000000E+00 0.  1.
         14    1    3    3    0    0  0.79000933511E+00  0.28417796211E+02 -0.57338900706E+02  0.63999568674E+02  0.00000000000E+00 0. -1.
         11    1    5    5    0    0 -0.23106579037E+02  0.41466690397E+02  0.46218666616E+02  0.66253796503E+02  0.00000000000E+00 0. -1.
        -12    1    5    5    0    0 -0.25084858880E+02 -0.39066630091E+02  0.29649191646E+02  0.55086534625E+02  0.00000000000E+00 0.  1.
          5    1    4    4  501    0  0.26455736315E+02  0.44308931600E+02 -0.10064226009E+03  0.11317916910E+03  0.41800000000E+01 0.  1.
         -5    1    4    4    0  501 -0.24175596207E+01 -0.71149817949E+02 -0.57222840920E+02  0.91433402604E+02  0.41800000000E+01 0.  1.
</event>
<event>
11    1  0.8864208E-009  0.1667909E+03  0.7561462E-02  0.1080859E+00
         22   -1    0    0    0    0  0.00000000000E+00  0.00000000000E+00  0.18002828624E+04  0.18002828624E+04  0.00000000000E+00 0.  1.
         22   -1    0    0    0    0 -0.00000000000E+00 -0.00000000000E+00 -0.18395587439E+03  0.18395587439E+03  0.00000000000E+00 0. -1.
         24    2    1    2    0    0  0.12165438156E+03  0.16704203534E+01 -0.63643238441E+02  0.15849411204E+03  0.79166551606E+02 0.  0.
         25    2    1    2    0    0 -0.86212728440E+02  0.46504622189E+02  0.17069726221E+02  0.15979315961E+03  0.12508862408E+03 0.  0.
        -24    2    1    2    0    0 -0.35441653123E+02 -0.48175042543E+02  0.16629005003E+04  0.16659514652E+04  0.81112668772E+02 0.  0.
        -13    1    3    3    0    0  0.85162173726E+02 -0.17403968151E+02 -0.53001002417E+01  0.87083781519E+02  0.00000000000E+00 0.  1.
         14    1    3    3    0    0  0.36492207838E+02  0.19074388504E+02 -0.58343138199E+02  0.71410330517E+02  0.00000000000E+00 0. -1.
         11    1    5    5    0    0 -0.59150153163E+02 -0.17051614125E+02  0.98126304983E+03  0.98319208251E+03  0.00000000000E+00 0. -1.
        -12    1    5    5    0    0  0.23708500039E+02 -0.31123428418E+02  0.68163745043E+03  0.68275938265E+03  0.00000000000E+00 0.  1.
          5    1    4    4  501    0 -0.46679029693E+02 -0.14197762884E+02  0.58457663671E+02  0.76257977457E+02  0.41800000000E+01 0. -1.
         -5    1    4    4    0  501 -0.39533698747E+02  0.60702385073E+02 -0.41387937450E+02  0.83535182149E+02  0.41800000000E+01 0. -1.
</event>
<event>
11    1  0.8864208E-009  0.1830009E+03  0.7561462E-02  0.1067241E+00
         22   -1    0    0    0    0  0.00000000000E+00  0.00000000000E+00  0.12175849774E+03  0.12175849774E+03  0.00000000000E+00 0. -1.
         22   -1    0    0    0    0 -0.00000000000E+00 -0.00000000000E+00 -0.37629596416E+03  0.37629596416E+03  0.00000000000E+00 0. -1.
         24    2    1    2    0    0 -0.48649769397E+01 -0.15519281339E+02 -0.86553102469E+02  0.11678934517E+03  0.76705902668E+02 0.  0.
         25    2    1    2    0    0 -0.12934503295E+03 -0.12469515823E+02 -0.91168970494E+02  0.20210652551E+03  0.12509852156E+03 0.  0.
        -24    2    1    2    0    0  0.13421000989E+03  0.27988797162E+02 -0.76815393457E+02  0.17915859123E+03  0.86031951144E+02 0.  0.
        -11    1    3    3    0    0  0.13868823701E+02 -0.42009283124E+02 -0.37593836522E+02  0.58055324337E+02  0.00000000000E+00 0.  1.
         12    1    3    3    0    0 -0.18733800640E+02  0.26490001785E+02 -0.48959265946E+02  0.58734020832E+02  0.00000000000E+00 0. -1.
         11    1    5    5    0    0  0.13149158958E+03  0.14412580183E+02 -0.90037166376E+02  0.16001391167E+03  0.00000000000E+00 0. -1.
        -12    1    5    5    0    0  0.27184203129E+01  0.13576216980E+02  0.13221772919E+02  0.19144679564E+02  0.00000000000E+00 0.  1.
          5    1    4    4  501    0 -0.85356417147E+02 -0.67254552935E+02 -0.43643606341E+02  0.11717990277E+03  0.41800000000E+01 0. -1.
         -5    1    4    4    0  501 -0.43988615805E+02  0.54785037111E+02 -0.47525364153E+02  0.84926622737E+02  0.41800000000E+01 0. -1.
</event>
<event>
11    1  0.8864208E-009  0.1928320E+03  0.7561462E-02  0.1059711E+00
         22   -1    0    0    0    0  0.00000000000E+00  0.00000000000E+00  0.51884722051E+02  0.51884722051E+02  0.00000000000E+00 0. -1.
         22   -1    0    0    0    0 -0.00000000000E+00 -0.00000000000E+00 -0.13130049688E+04  0.13130049688E+04  0.00000000000E+00 0. -1.
        -24    2    1    2    0    0  0.14262833477E+03  0.57089185946E+02 -0.57911923440E+03  0.60436089869E+03  0.79189590120E+02 0.  0.
         25    2    1    2    0    0 -0.10956660186E+03 -0.91727593567E+02 -0.61833640505E+03  0.64684379048E+03  0.12509271683E+03 0.  0.
         24    2    1    2    0    0 -0.33061732902E+02  0.34638407621E+02 -0.63664607252E+02  0.11368500164E+03  0.81106102826E+02 0.  0.
        -13    1    5    5    0    0 -0.25871974173E+02 -0.40564933942E+01 -0.69154285752E+02  0.73946801311E+02  0.00000000000E+00 0.  1.
         14    1    5    5    0    0 -0.71897587294E+01  0.38694901015E+02  0.54896784994E+01  0.39738200326E+02  0.00000000000E+00 0. -1.
         11    1    3    3    0    0  0.12459987700E+03  0.68239052164E+02 -0.40991625130E+03  0.43383525752E+03  0.00000000000E+00 0. -1.
        -12    1    3    3    0    0  0.18028457766E+02 -0.11149866219E+02 -0.16920298310E+03  0.17052564117E+03  0.00000000000E+00 0.  1.
          5    1    4    4  501    0 -0.40775737711E+02 -0.29511129629E+02 -0.46393508627E+03  0.46667633777E+03  0.41800000000E+01 0. -1.
         -5    1    4    4    0  501 -0.68790864153E+02 -0.62216463937E+02 -0.15440131878E+03  0.18016745271E+03  0.41800000000E+01 0. -1.
</event>
<event>
11    1  0.8864208E-009  0.1421370E+03  0.7561462E-02  0.1105195E+00
         22   -1    0    0    0    0  0.00000000000E+00  0.00000000000E+00  0.44251725276E+03  0.44251725276E+03  0.00000000000E+00 0.  1.
         22   -1    0    0    0    0 -0.00000000000E+00 -0.00000000000E+00 -0.12646974280E+03  0.12646974280E+03  0.00000000000E+00 0.  1.
         24    2    1    2    0    0 -0.21132835881E+02 -0.48287800075E+02 -0.55211521028E+02  0.11073922850E+03  0.80228151456E+02 0.  0.
         25    2    1    2    0    0 -0.47448228514E+02  0.10049781694E+02  0.11154479801E+03  0.17447737319E+03  0.12509108398E+03 0.  0.
        -24    2    1    2    0    0  0.68581064395E+02  0.38238018381E+02  0.25971423298E+03  0.28377039388E+03  0.83118260240E+02 0.  0.
        -11    1    3    3    0    0  0.95639530937E+01 -0.53808264478E+02 -0.57671497172E+02  0.79453131536E+02  0.00000000000E+00 0.  1.
         12    1    3    3    0    0 -0.30696788975E+02  0.55204644021E+01  0.24599761444E+01  0.31286096963E+02  0.00000000000E+00 0. -1.
         13    1    5    5    0    0  0.20860311406E+02  0.34625446533E+02  0.33357565816E+02  0.52409935477E+02  0.00000000000E+00 0. -1.
        -14    1    5    5    0    0  0.47720752989E+02  0.36125718483E+01  0.22635666716E+03  0.23136045840E+03  0.00000000000E+00 0.  1.
          5    1    4    4  501    0 -0.64303260648E+02  0.31234137833E+02  0.13748925856E+02  0.72917666298E+02  0.41800000000E+01 0.  1.
         -5    1    4    4    0  501  0.16855032135E+02 -0.21184356138E+02  0.97795872156E+02  0.10155970689E+03  0.41800000000E+01 0.  1.
</event>
<event>
11    1  0.8864208E-009  0.1612725E+03  0.7561462E-02  0.1085887E+00
         22   -1    0    0    0    0  0.00000000000E+00  0.00000000000E+00  0.25037606625E+04  0.25037606625E+04  0.00000000000E+00 0. -1.
         22   -1    0    0    0    0 -0.00000000000E+00 -0.00000000000E+00 -0.20460959627E+03  0.20460959627E+03  0.00000000000E+00 0.  1.
         24    2    1    2    0    0  0.34080245640E+02  0.88759660355E+02 -0.13245659209E+03  0.18156854664E+03  0.79891475715E+02 0.  0.
         25    2    1    2    0    0 -0.13048191018E+03 -0.56852844100E+02  0.15057496428E+03  0.24203001106E+03  0.12509169284E+03 0.  0.
        -24    2    1    2    0    0  0.96401664545E+02 -0.31906816255E+02  0.22810326940E+04  0.22847717011E+04  0.82220732717E+02 0.  0.
        -13    1    3    3    0    0  0.66829294711E+01  0.18950354629E+02 -0.96190252536E+02  0.98266689015E+02  0.00000000000E+00 0.  1.
         14    1    3    3    0    0  0.27397316169E+02  0.69809305726E+02 -0.36266339550E+02  0.83301857624E+02  0.00000000000E+00 0. -1.
         13    1    5    5    0    0  0.46121186255E+02 -0.28728908117E+02  0.18510770259E+04  0.18518743666E+04  0.00000000000E+00 0. -1.
        -14    1    5    5    0    0  0.50280478290E+02 -0.31779081382E+01  0.42995566814E+03  0.43289733444E+03  0.00000000000E+00 0.  1.
          5    1    4    4  501    0 -0.15319494142E+03 -0.61353963524E+02  0.13901848948E+03  0.21581615262E+03  0.41800000000E+01 0.  1.
         -5    1    4    4    0  501  0.22713031237E+02  0.45011194238E+01  0.11556474807E+02  0.26213858434E+02  0.41800000000E+01 0.  1.
</event>
<event>
11    1  0.8864208E-009  0.1359159E+03  0.7561462E-02  0.1112207E+00
         22   -1    0    0    0    0  0.00000000000E+00  0.00000000000E+00  0.60902410616E+03  0.60902410616E+03  0.00000000000E+00 0. -1.
         22   -1    0    0    0    0 -0.00000000000E+00 -0.00000000000E+00 -0.48090029027E+03  0.48090029027E+03  0.00000000000E+00 0.  1.
         24    2    1    2    0    0 -0.28866644031E+02  0.90874512288E+01 -0.41852789828E+03  0.42790841725E+03  0.83810184402E+02 0.  0.
         25    2    1    2    0    0  0.77885038110E+02 -0.21982003248E+02  0.51733994103E+02  0.15771645946E+03  0.12509511505E+03 0.  0.
        -24    2    1    2    0    0 -0.49018394079E+02  0.12894552020E+02  0.49491772007E+03  0.50429951972E+03  0.82494748442E+02 0.  0.
        -11    1    3    3    0    0 -0.17560498734E+02 -0.17416904596E+02 -0.37433520447E+03  0.37515138942E+03  0.00000000000E+00 0.  1.
         12    1    3    3    0    0 -0.11306145296E+02  0.26504355825E+02 -0.44192693814E+02  0.52757027832E+02  0.00000000000E+00 0. -1.
         13    1    5    5    0    0 -0.48028293510E+02  0.43256132012E+02  0.37874594287E+03  0.38422167973E+03  0.00000000000E+00 0. -1.
        -14    1    5    5    0    0 -0.99010056900E+00 -0.30361579992E+02  0.11617177720E+03  0.12007783999E+03  0.00000000000E+00 0.  1.
          5    1    4    4  501    0  0.91349809426E+02  0.21109360039E+02  0.60331291208E+02  0.11156939483E+03  0.41800000000E+01 0.  1.
         -5    1    4    4    0  501 -0.13464771317E+02 -0.43091363287E+02 -0.85972971044E+01  0.46147064631E+02  0.41800000000E+01 0.  1.
</event>
<event>
11    1  0.8864208E-009  0.1289761E+03  0.7561462E-02  0.1120533E+00
         22   -1    0    0    0    0  0.00000000000E+00  0.00000000000E+00  0.15135230736E+04  0.15135230736E+04  0.00000000000E+00 0. -1.
         22   -1    0    0    0    0 -0.00000000000E+00 -0.00000000000E+00 -0.98152679670E+02  0.98152679670E+02  0.00000000000E+00 0. -1.
        -24    2    1    2    0    0  0.34222808550E+00 -0.31823330239E+02 -0.63380668973E+02  0.10664089792E+03  0.79638749630E+02 0.  0.
         25    2    1    2    0    0 -0.17206219847E+02  0.24323040453E+02  0.34294566560E+03  0.36626089826E+03  0.12509057416E+03 0.  0.
         24    2    1    2    0    0  0.16863991761E+02  0.75002897860E+01  0.11358053973E+04  0.11387739571E+04  0.80072318719E+02 0.  0.
        -11    1    5    5    0    0  0.27355185141E+02  0.31865656572E+02  0.34843555130E+03  0.35095734732E+03  0.00000000000E+00 0.  1.
         12    1    5    5    0    0 -0.10491193380E+02 -0.24365366786E+02  0.78736984597E+03  0.78781660974E+03  0.00000000000E+00 0. -1.
         13    1    3    3    0    0  0.32494852954E+02 -0.34013541983E+02 -0.56797637397E+02  0.73748275374E+02  0.00000000000E+00 0. -1.
        -14    1    3    3    0    0 -0.32152624868E+02  0.21902117438E+01 -0.65830315760E+01  0.32892622549E+02  0.00000000000E+00 0.  1.
          5    1    4    4  501    0 -0.14718081963E+02 -0.46628137228E+02  0.79866610894E+02  0.93738748944E+02  0.41800000000E+01 0.  1.
         -5    1    4    4    0  501 -0.24881378838E+01  0.70951177681E+02  0.26307905470E+03  0.27252214932E+03  0.41800000000E+01 0.  1.
</event>
<event>
11    1  0.8864208E-009  0.1399418E+03  0.7561462E-02  0.1107623E+00
         22   -1    0    0    0    0  0.00000000000E+00  0.00000000000E+00  0.14286596088E+03  0.14286596088E+03  0.00000000000E+00 0.  1.
         22   -1    0    0    0    0 -0.00000000000E+00 -0.00000000000E+00 -0.22581476494E+04  0.22581476494E+04  0.00000000000E+00 0.  1.
        -24    2    1    2    0    0  0.38353784626E+02  0.50370645360E+02 -0.21257406129E+04  0.21282295116E+04  0.81114031730E+02 0.  0.
         25    2    1    2    0    0 -0.56927472155E+02 -0.10059194781E+02 -0.66093456680E+02  0.15283243737E+03  0.12508990531E+03 0.  0.
         24    2    1    2    0    0  0.18573687529E+02 -0.40311450579E+02  0.76552381080E+02  0.11995166124E+03  0.80982338013E+02 0.  0.
        -11    1    5    5    0    0  0.28128167052E+02 -0.57661665922E+02  0.76891521938E+02  0.10014173777E+03  0.00000000000E+00 0.  1.
         12    1    5    5    0    0 -0.95544795229E+01  0.17350215342E+02 -0.33914085723E+00  0.19809923470E+02  0.00000000000E+00 0. -1.
         11    1    3    3    0    0 -0.53912059019E+01  0.41490373472E+02 -0.46211289821E+03  0.46400306776E+03  0.00000000000E+00 0. -1.
        -12    1    3    3    0    0  0.43744990528E+02  0.88802718876E+01 -0.16636277147E+04  0.16642264439E+04  0.00000000000E+00 0.  1.
          5    1    4    4  501    0 -0.64472783437E+02 -0.54783252344E+02 -0.18011376999E+02  0.86601539495E+02  0.41800000000E+01 0.  1.
         -5    1    4    4    0  501  0.75453112819E+01  0.44724057563E+02 -0.48082079680E+02  0.66230897877E+02  0.41800000000E+01 0.  1.
</event>
<event>
11    1  0.8864208E-009  0.1444809E+03  0.7561462E-02  0.1102655E+00
         22   -1    0    0    0    0  0.00000000000E+00  0.00000000000E+00  0.15767342084E+03  0.15767342084E+03  0.00000000000E+00 0.  1.
         22   -1    0    0    0    0 -0.00000000000E+00 -0.00000000000E+00 -0.67542709334E+03  0.67542709334E+03  0.00000000000E+00 0.  1.
         24    2    1    2    0    0  0.36501035301E+02 -0.23312670424E+02 -0.43046950672E+03  0.44005458634E+03  0.80425347736E+02 0.  0.
         25    2    1    2    0    0  0.32845118636E+02 -0.88315449547E+01 -0.19771600127E+03  0.23642048605E+03  0.12508489542E+03 0.  0.
        -24    2    1    2    0    0 -0.69346153936E+02  0.32144215379E+02  0.11043183550E+03  0.15662544179E+03  0.80586593656E+02 0.  0.
        -13    1    3    3    0    0 -0.16922147708E+02 -0.19554203489E+02 -0.26210432746E+03  0.26337692464E+03  0.00000000000E+00 0.  1.
         14    1    3    3    0    0  0.53423183009E+02 -0.37584669354E+01 -0.16836517926E+03  0.17667766170E+03  0.00000000000E+00 0. -1.
         11    1    5    5    0    0 -0.24703667370E+02 -0.97215260957E+01 -0.40075522389E+01  0.26848458542E+02  0.00000000000E+00 0. -1.
        -12    1    5    5    0    0 -0.44642486566E+02  0.41865741474E+02  0.11443938773E+03  0.12977698325E+03  0.00000000000E+00 0.  1.
          5    1    4    4  501    0  0.70503241840E+02  0.25655984393E+02 -0.14248378737E+03  0.16108394926E+03  0.41800000000E+01 0. -1.
         -5    1    4    4    0  501 -0.37658123205E+02 -0.34487529348E+02 -0.55232213894E+02  0.75336536789E+02  0.41800000000E+01 0. -1.
</event>
<event>
11    1  0.8864208E-009  0.1578904E+03  0.7561462E-02  0.1089078E+00
         22   -1    0    0    0    0  0.00000000000E+00  0.00000000000E+00  0.83339793159E+03  0.83339793159E+03  0.00000000000E+00 0. -1.
         22   -1    0    0    0    0 -0.00000000000E+00 -0.00000000000E+00 -0.10200640225E+04  0.10200640225E+04  0.00000000000E+00 0. -1.
         24    2    1    2    0    0 -0.50414528978E+02  0.81861887529E+02 -0.99153035080E+03  0.99935326348E+03  0.79570819461E+02 0.  0.
         25    2    1    2    0    0  0.25619846126E+02 -0.12096055474E+03  0.37351824447E+03  0.41285768376E+03  0.12509098997E+03 0.  0.
        -24    2    1    2    0    0  0.24794682853E+02  0.39098667206E+02  0.43134601544E+03  0.44125100681E+03  0.80619996895E+02 0.  0.
        -13    1    3    3    0    0  0.12277763164E+02  0.21360401586E+02 -0.81000162396E+02  0.84664257703E+02  0.00000000000E+00 0.  1.
         14    1    3    3    0    0 -0.62692292142E+02  0.60501485943E+02 -0.91053018840E+03  0.91468900578E+03  0.00000000000E+00 0. -1.
         13    1    5    5    0    0 -0.20308092876E+02  0.12744898262E+02  0.28229200288E+03  0.28330835844E+03  0.00000000000E+00 0. -1.
        -14    1    5    5    0    0  0.45102775728E+02  0.26353768944E+02  0.14905401256E+03  0.15794264838E+03  0.00000000000E+00 0.  1.
          5    1    4    4  501    0  0.31637142675E+02 -0.99852254131E+02  0.37603460305E+03  0.39037274052E+03  0.41800000000E+01 0. -1.
         -5    1    4    4    0  501 -0.60172965489E+01 -0.21108300604E+02 -0.25163585772E+01  0.22484943243E+02  0.41800000000E+01 0. -1.
</event>
<event>
11    1  0.8864208E-009  0.1530277E+03  0.7561462E-02  0.1093825E+00
         22   -1    0    0    0    0  0.00000000000E+00  0.00000000000E+00  0.32594214088E+03  0.32594214088E+03  0.00000000000E+00 0.  1.
         22   -1    0    0    0    0 -0.00000000000E+00 -0.00000000000E+00 -0.41944477724E+04  0.41944477724E+04  0.00000000000E+00 0.  1.
         24    2    1    2    0    0  0.77020652556E+02 -0.28457144624E+02 -0.28162268356E+04  0.28185742514E+04  0.80530933403E+02 0.  0.
         25    2    1    2    0    0 -0.10320850148E+03  0.53265441460E+02 -0.13656119882E+04  0.13762386591E+04  0.12509013690E+03 0.  0.
        -24    2    1    2    0    0  0.26187848928E+02 -0.24808296837E+02  0.31333319233E+03  0.32557700275E+03  0.80755434960E+02 0.  0.
        -11    1    3    3    0    0  0.34832724748E+02  0.81178959777E+01 -0.20515107739E+04  0.20518225250E+04  0.00000000000E+00 0.  1.
         12    1    3    3    0    0  0.42187927808E+02 -0.36575040601E+02 -0.76471606175E+03  0.76675172641E+03  0.00000000000E+00 0. -1.
         11    1    5    5    0    0  0.51897463023E+02 -0.14955393584E+02  0.13974405483E+03  0.14981792725E+03  0.00000000000E+00 0. -1.
        -12    1    5    5    0    0 -0.25709614095E+02 -0.98529032524E+01  0.17358913751E+03  0.17575907550E+03  0.00000000000E+00 0.  1.
          5    1    4    4  501    0 -0.62798790747E+02 -0.11486393734E+02 -0.25158550004E+03  0.25959268401E+03  0.41800000000E+01 0.  1.
         -5    1    4    4    0  501 -0.40409710737E+02  0.64751835194E+02 -0.11140264882E+04  0.11166459751E+04  0.41800000000E+01 0.  1.
</event>
<event>
11    1  0.8864208E-009  0.2710501E+03  0.7561462E-02  0.1013247E+00
         22   -1    0    0    0    0  0.00000000000E+00  0.00000000000E+00  0.91437626192E+03  0.91437626192E+03  0.00000000000E+00 0.  1.
         22   -1    0    0    0    0 -0.00000000000E+00 -0.00000000000E+00 -0.11908437597E+04  0.11908437597E+04  0.00000000000E+00 0.  1.
        -24    2    1    2    0    0  0.25001131611E+03  0.76784060859E+02 -0.87750096780E+03  0.91915119971E+03  0.80184345559E+02 0.  0.
         25    2    1    2    0    0 -0.18682049990E+03 -0.52001793248E+02 -0.24316925766E+03  0.33523754385E+03  0.12508731851E+03 0.  0.
         24    2    1    2    0    0 -0.63190816201E+02 -0.24782267611E+02  0.84420272768E+03  0.85083127805E+03  0.81414852688E+02 0.  0.
        -11    1    5    5    0    0 -0.15326976736E+02 -0.25788904020E+02  0.65428467766E+03  0.65497207819E+03  0.00000000000E+00 0.  1.
         12    1    5    5    0    0 -0.47863839464E+02  0.10066364094E+01  0.18991805002E+03  0.19585919986E+03  0.00000000000E+00 0. -1.
         13    1    3    3    0    0  0.27169663976E+02 -0.15187233954E+02 -0.74429425310E+02  0.80675783651E+02  0.00000000000E+00 0. -1.
        -14    1    3    3    0    0  0.22284165213E+03  0.91971294814E+02 -0.80307154249E+03  0.83847541606E+03  0.00000000000E+00 0.  1.
          5    1    4    4  501    0 -0.20237221625E+03 -0.42896197280E+02 -0.19782006477E+03  0.28626010563E+03  0.41800000000E+01 0. -1.
         -5    1    4    4    0  501  0.15551716344E+02 -0.91055959687E+01 -0.45349192886E+02  0.48977438220E+02  0.41800000000E+01 0. -1.
</event>
<event>
11    1  0.8864208E-009  0.1548988E+03  0.7561462E-02  0.1091976E+00
         22   -1    0    0    0    0  0.00000000000E+00  0.00000000000E+00  0.63646930402E+03  0.63646930402E+03  0.00000000000E+00 0.  1.
         22   -1    0    0    0    0 -0.00000000000E+00 -0.00000000000E+00 -0.17886563609E+04  0.17886563609E+04  0.00000000000E+00 0.  1.
        -24    2    1    2    0    0  0.70775959006E+02  0.58130131839E+02 -0.17497641739E+04  0.17540214322E+04  0.80797100435E+02 0.  0.
         25    2    1    2    0    0 -0.72594521791E+02 -0.27471792577E+02  0.13199481379E+03  0.19772349806E+03  0.12508911558E+03 0.  0.
         24    2    1    2    0    0  0.18185627847E+01 -0.30658339262E+02  0.46558230331E+03  0.47338073467E+03  0.79869880835E+02 0.  0.
        -13    1    5    5    0    0  0.40654450992E+02 -0.17707865436E+02  0.26145855770E+03  0.26519225154E+03  0.00000000000E+00 0.  1.
         14    1    5    5    0    0 -0.38835888207E+02 -0.12950473826E+02  0.20412374561E+03  0.20818848313E+03  0.00000000000E+00 0. -1.
         13    1    3    3    0    0  0.16560400460E+02 -0.19448594253E+02 -0.25926360409E+03  0.26051892655E+03  0.00000000000E+00 0. -1.
        -14    1    3    3    0    0  0.54215558546E+02  0.77578726092E+02 -0.14905005699E+04  0.14935025056E+04  0.00000000000E+00 0.  1.
          5    1    4    4  501    0 -0.66124013571E+01 -0.12374196935E+01  0.12610221891E+03  0.12635069083E+03  0.41800000000E+01 0.  1.
         -5    1    4    4    0  501 -0.65982120434E+02 -0.26234372883E+02  0.58925948820E+01  0.71372807231E+02  0.41800000000E+01 0.  1.
</event>
<event>
11    1  0.8864208E-009  0.1468799E+03  0.7561462E-02  0.1100110E+00
         22   -1    0    0    0    0  0.00000000000E+00  0.00000000000E+00  0.17338444683E+04  0.17338444683E+04  0.00000000000E+00 0. -1.
         22   -1    0    0    0    0 -0.00000000000E+00 -0.00000000000E+00 -0.68737148733E+02  0.68737148733E+02  0.00000000000E+00 0. -1.
        -24    2    1    2    0    0 -0.31283027590E+02  0.29775377485E+01  0.17026827961E+02  0.86872393039E+02  0.79179582316E+02 0.  0.
         25    2    1    2    0    0  0.32479716425E+02 -0.79698964284E+02  0.15082563387E+03  0.21401440852E+03  0.12508772255E+03 0.  0.
         24    2    1    2    0    0 -0.11966888355E+01  0.76721426535E+02  0.14972548577E+04  0.15016948154E+04  0.86183527844E+02 0.  0.
        -13    1    5    5    0    0 -0.24689804904E+02  0.25263300424E+02  0.19249722385E+03  0.19571152752E+03  0.00000000000E+00 0.  1.
         14    1    5    5    0    0  0.23493116068E+02  0.51458126111E+02  0.13047576338E+04  0.13059832879E+04  0.00000000000E+00 0. -1.
         13    1    3    3    0    0  0.14805050392E+02 -0.25413811167E+02 -0.20375208658E+01  0.29482245614E+02  0.00000000000E+00 0. -1.
        -14    1    3    3    0    0 -0.46088077982E+02  0.28391348916E+02  0.19064348827E+02  0.57390147426E+02  0.00000000000E+00 0.  1.
          5    1    4    4  501    0 -0.19864242774E+02  0.10720431230E+02 -0.76109948830E+01  0.24185024909E+02  0.41800000000E+01 0. -1.
         -5    1    4    4    0  501  0.52343959199E+02 -0.90419395514E+02  0.15843662876E+03  0.18982938361E+03  0.41800000000E+01 0. -1.
</event>
<event>
11    1  0.8864208E-009  0.1720189E+03  0.7561462E-02  0.1076288E+00
         22   -1    0    0    0    0  0.00000000000E+00  0.00000000000E+00  0.70099755398E+03  0.70099755398E+03  0.00000000000E+00 0. -1.
         22   -1    0    0    0    0 -0.00000000000E+00 -0.00000000000E+00 -0.14090373860E+04  0.14090373860E+04  0.00000000000E+00 0.  1.
        -24    2    1    2    0    0 -0.68607883620E+01  0.11668903315E+03 -0.13064439070E+04  0.13141401175E+04  0.80654606519E+02 0.  0.
         25    2    1    2    0    0  0.93372494957E+02 -0.15189144629E+03  0.36670995719E+02  0.22086447019E+03  0.12508764126E+03 0.  0.
         24    2    1    2    0    0 -0.86511706595E+02  0.35202413142E+02  0.56173307925E+03  0.57503035224E+03  0.79952288261E+02 0.  0.
        -11    1    5    5    0    0 -0.21009592011E+02  0.60729146662E+01  0.23723864664E+02  0.32266158799E+02  0.00000000000E+00 0.  1.
         12    1    5    5    0    0 -0.65502114584E+02  0.29129498476E+02  0.53800921459E+03  0.54276419344E+03  0.00000000000E+00 0. -1.
         11    1    3    3    0    0  0.79609074150E+01  0.47205451889E+02 -0.20959087059E+03  0.21498852009E+03  0.00000000000E+00 0. -1.
        -12    1    3    3    0    0 -0.14821695777E+02  0.69483581260E+02 -0.10968530364E+04  0.10991515974E+04  0.00000000000E+00 0.  1.
          5    1    4    4  501    0 -0.12429627470E+02 -0.87301507916E+02  0.39701873481E+02  0.96797521050E+02  0.41800000000E+01 0.  1.
         -5    1    4    4    0  501  0.10580212243E+03 -0.64589938374E+02 -0.30308777621E+01  0.12406694914E+03  0.41800000000E+01 0.  1.
</event>
<event>
11    1  0.8864208E-009  0.1483662E+03  0.7561462E-02  0.1098560E+00
         22   -1    0    0    0    0  0.00000000000E+00  0.00000000000E+00  0.57155782628E+03  0.57155782628E+03  0.00000000000E+00 0. -1.
         22   -1    0    0    0    0 -0.00000000000E+00 -0.00000000000E+00 -0.87732172043E+03  0.87732172043E+03  0.00000000000E+00 0. -1.
         24    2    1    2    0    0 -0.26093159963E+02 -0.53584895235E+02 -0.51963709377E+03  0.52924589197E+03  0.80785586287E+02 0.  0.
         25    2    1    2    0    0 -0.33775104207E+02  0.10594489631E+03 -0.32679231267E+03  0.36715450429E+03  0.12507651930E+03 0.  0.
        -24    2    1    2    0    0  0.59868264169E+02 -0.52360001071E+02  0.54066551229E+03  0.55247915045E+03  0.81167953896E+02 0.  0.
        -13    1    3    3    0    0  0.20808511999E+02 -0.17861577636E+02 -0.61579426813E+02  0.67409613067E+02  0.00000000000E+00 0.  1.
         14    1    3    3    0    0 -0.46901671961E+02 -0.35723317598E+02 -0.45805766696E+03  0.46183627891E+03  0.00000000000E+00 0. -1.
         13    1    5    5    0    0  0.52260955259E+02 -0.66380385909E+02  0.31132531470E+03  0.32258489527E+03  0.00000000000E+00 0. -1.
        -14    1    5    5    0    0  0.76073089099E+01  0.14020384838E+02  0.22934019758E+03  0.22989425518E+03  0.00000000000E+00 0.  1.
          5    1    4    4  501    0  0.19576232027E+02  0.86650643545E+02 -0.10223115670E+03  0.13549998039E+03  0.41800000000E+01 0. -1.
         -5    1    4    4    0  501 -0.53351336234E+02  0.19294252761E+02 -0.22456115597E+03  0.23165452389E+03  0.41800000000E+01 0. -1.
</event>
<event>
11    1  0.8864208E-009  0.3713338E+03  0.7561462E-02  0.9738343E-01
         22   -1    0    0    0    0  0.00000000000E+00  0.00000000000E+00  0.31666213467E+03  0.31666213467E+03  0.00000000000E+00 0.  1.
         22   -1    0    0    0    0 -0.00000000000E+00 -0.00000000000E+00 -0.80330128092E+03  0.80330128092E+03  0.00000000000E+00 0.  1.
        -24    2    1    2    0    0  0.29165075274E+03 -0.86642328807E+02 -0.15604642501E+03  0.35276016555E+03  0.86730576633E+02 0.  0.
         25    2    1    2    0    0 -0.30523634430E+03  0.29328705530E+03 -0.31895513508E+03  0.54457972683E+03  0.12509267762E+03 0.  0.
         24    2    1    2    0    0  0.13585591555E+02 -0.20664472650E+03 -0.11637586155E+02  0.22262352321E+03  0.80865248330E+02 0.  0.
        -11    1    5    5    0    0  0.38580598407E+02 -0.17849885181E+03 -0.21028931094E+02  0.18382741530E+03  0.00000000000E+00 0.  1.
         12    1    5    5    0    0 -0.24995006852E+02 -0.28145874680E+02  0.93913449382E+01  0.38796107908E+02  0.00000000000E+00 0. -1.
         13    1    3    3    0    0  0.19275203522E+03 -0.66983509002E+02 -0.14705591948E+03  0.25152650162E+03  0.00000000000E+00 0. -1.
        -14    1    3    3    0    0  0.98898717525E+02 -0.19658819804E+02 -0.89905055280E+01  0.10123366394E+03  0.00000000000E+00 0.  1.
          5    1    4    4  501    0 -0.27851506371E+01  0.57910663946E+02 -0.41410659693E+02  0.71370282323E+02  0.41800000000E+01 0. -1.
         -5    1    4    4    0  501 -0.30245119366E+03  0.23537639136E+03 -0.27754447539E+03  0.47320944451E+03  0.41800000000E+01 0. -1.
</event>
<event>
11    1  0.8864208E-009  0.1445952E+03  0.7561462E-02  0.1102533E+00
         22   -1    0    0    0    0  0.00000000000E+00  0.00000000000E+00  0.14450039527E+03  0.14450039527E+03  0.00000000000E+00 0. -1.
         22   -1    0    0    0    0 -0.00000000000E+00 -0.00000000000E+00 -0.72235086963E+03  0.72235086963E+03  0.00000000000E+00 0.  1.
         24    2    1    2    0    0  0.45424204560E+02  0.58507350027E+02 -0.60520758087E+03  0.61498005300E+03  0.80235785476E+02 0.  0.
         25    2    1    2    0    0 -0.30321537293E+02 -0.47847556663E+02 -0.41643450114E+02  0.14349554937E+03  0.12509201193E+03 0.  0.
        -24    2    1    2    0    0 -0.15102667267E+02 -0.10659793364E+02  0.69000556625E+02  0.10837566255E+03  0.81501445781E+02 0.  0.
        -11    1    3    3    0    0  0.61341847946E+01  0.68134970477E+02 -0.40311632041E+03  0.40887989704E+03  0.00000000000E+00 0.  1.
         12    1    3    3    0    0  0.39290019766E+02 -0.96276204503E+01 -0.20209126046E+03  0.20610015595E+03  0.00000000000E+00 0. -1.
         13    1    5    5    0    0  0.20535677921E+01  0.13280699405E+02  0.76752045680E+02  0.77919642155E+02  0.00000000000E+00 0. -1.
        -14    1    5    5    0    0 -0.17156235060E+02 -0.23940492769E+02 -0.77514890554E+01  0.30456020390E+02  0.00000000000E+00 0.  1.
          5    1    4    4  501    0  0.18735967330E+02 -0.16034294989E+02 -0.72894613692E+02  0.77066414170E+02  0.41800000000E+01 0.  1.
         -5    1    4    4    0  501 -0.49057504623E+02 -0.31813261674E+02  0.31251163578E+02  0.66429135198E+02  0.41800000000E+01 0.  1.
</event>
<event>
11    1  0.8864208E-009  0.2213428E+03  0.7561462E-02  0.1040380E+00
         22   -1    0    0    0    0  0.00000000000E+00  0.00000000000E+00  0.16292868205E+03  0.16292868205E+03  0.00000000000E+00 0. -1.
         22   -1    0    0    0    0 -0.00000000000E+00 -0.00000000000E+00 -0.12704120669E+04  0.12704120669E+04  0.00000000000E+00 0. -1.
         24    2    1    2    0    0 -0.46116520308E+02  0.33467541386E+02 -0.55916773765E+03  0.56770255866E+03  0.79817457458E+02 0.  0.
         25    2    1    2    0    0  0.18356532712E+03 -0.14466930176E+03 -0.60712570948E+03  0.66247542547E+03  0.12508647425E+03 0.  0.
        -24    2    1    2    0    0 -0.13744880682E+03  0.11120176037E+03  0.58810062237E+02  0.20316276487E+03  0.80984440510E+02 0.  0.
        -13    1    3    3    0    0 -0.23744565022E+01 -0.46333452538E+01  0.31947275107E+00  0.52161283305E+01  0.00000000000E+00 0.  1.
         14    1    3    3    0    0 -0.43742063805E+02  0.38100886640E+02 -0.55948721040E+03  0.56248643033E+03  0.00000000000E+00 0. -1.
         13    1    5    5    0    0 -0.12271625458E+03  0.58457782648E+02  0.23344261538E+02  0.13791862107E+03  0.00000000000E+00 0. -1.
        -14    1    5    5    0    0 -0.14732552236E+02  0.52743977722E+02  0.35465800699E+02  0.65244143803E+02  0.00000000000E+00 0.  1.
          5    1    4    4  501    0  0.14988426030E+03 -0.16637284384E+03 -0.53216320171E+03  0.57737367477E+03  0.41800000000E+01 0. -1.
         -5    1    4    4    0  501  0.33681066825E+02  0.21703542085E+02 -0.74962507770E+02  0.85101750702E+02  0.41800000000E+01 0. -1.
</event>
<event>
11    1  0.8864208E-009  0.1261982E+03  0.7561462E-02  0.1124030E+00
         22   -1    0    0    0    0  0.00000000000E+00  0.00000000000E+00  0.69967907977E+03  0.69967907977E+03  0.00000000000E+00 0.  1.
         22   -1    0    0    0    0 -0.00000000000E+00 -0.00000000000E+00 -0.21129612115E+03  0.21129612115E+03  0.00000000000E+00 0. -1.
         24    2    1    2    0    0  0.72039886047E+01  0.12703947758E+02 -0.14707407530E+03  0.16768669657E+03  0.79213362762E+02 0.  0.
         25    2    1    2    0    0 -0.38299247026E+02 -0.14652275551E+02  0.33291260556E+02  0.13578290092E+03  0.12508863519E+03 0.  0.
        -24    2    1    2    0    0  0.31095258421E+02  0.19483277930E+01  0.60216577337E+03  0.60750560343E+03  0.74085953432E+02 0.  0.
        -13    1    3    3    0    0  0.24721970115E+02  0.18118979517E+01 -0.65260348405E+01  0.25632945818E+02  0.00000000000E+00 0.  1.
         14    1    3    3    0    0 -0.17517981510E+02  0.10892049806E+02 -0.14054804046E+03  0.14205375075E+03  0.00000000000E+00 0. -1.
         11    1    5    5    0    0  0.29050675854E+02  0.13068442250E+02  0.94702958750E+02  0.99916847160E+02  0.00000000000E+00 0. -1.
        -12    1    5    5    0    0  0.20445825669E+01 -0.11120114457E+02  0.50746281462E+03  0.50758875627E+03  0.00000000000E+00 0.  1.
          5    1    4    4  501    0  0.55758042051E+01 -0.42917517015E+02 -0.30607688881E+02  0.53172416514E+02  0.41800000000E+01 0.  1.
         -5    1    4    4    0  501 -0.43875051231E+02  0.28265241464E+02  0.63898949437E+02  0.82610484411E+02  0.41800000000E+01 0.  1.
</event>
<event>
11    1  0.8864208E-009  0.1343921E+03  0.7561462E-02  0.1113987E+00
         22   -1    0    0    0    0  0.00000000000E+00  0.00000000000E+00  0.18798076110E+03  0.18798076110E+03  0.00000000000E+00 0. -1.
         22   -1    0    0    0    0 -0.00000000000E+00 -0.00000000000E+00 -0.10160067721E+04  0.10160067721E+04  0.00000000000E+00 0. -1.
        -24    2    1    2    0    0 -0.46290867886E+02  0.17941236621E+02 -0.91832529585E+03  0.92320116007E+03  0.80711216961E+02 0.  0.
         25    2    1    2    0    0  0.37023321433E+02 -0.93166225718E+01 -0.30639678687E+02  0.13433142556E+03  0.12509442911E+03 0.  0.
         24    2    1    2    0    0  0.92675464533E+01 -0.86246140493E+01  0.12093896357E+03  0.14645494754E+03  0.81624428724E+02 0.  0.
        -11    1    5    5    0    0 -0.30027188619E+02 -0.11458621205E+02  0.19399121676E+02  0.37540084951E+02  0.00000000000E+00 0.  1.
         12    1    5    5    0    0  0.39294735072E+02  0.28340071553E+01  0.10153984189E+03  0.10891486259E+03  0.00000000000E+00 0. -1.
         13    1    3    3    0    0 -0.10551145113E+02 -0.28875291023E+02 -0.47295566454E+03  0.47395376327E+03  0.00000000000E+00 0. -1.
        -14    1    3    3    0    0 -0.35739722772E+02  0.46816527644E+02 -0.44536963130E+03  0.44924739680E+03  0.00000000000E+00 0.  1.
          5    1    4    4  501    0  0.50229491996E+02 -0.15155534604E+02  0.37453830237E+02  0.64598404738E+02  0.41800000000E+01 0. -1.
         -5    1    4    4    0  501 -0.13206170563E+02  0.58389120325E+01 -0.68093508924E+02  0.69733020817E+02  0.41800000000E+01 0. -1.
</event>
<event>
11    1  0.8864208E-009  0.2834299E+03  0.7561462E-02  0.1007459E+00
         22   -1    0    0    0    0  0.00000000000E+00  0.00000000000E+00  0.40301932096E+04  0.40301932096E+04  0.00000000000E+00 0.  1.
         22   -1    0    0    0    0 -0.00000000000E+00 -0.00000000000E+00 -0.17872496642E+03  0.17872496642E+03  0.00000000000E+00 0.  1.
        -24    2    1    2    0    0 -0.11886987056E+03  0.21415995858E+03  0.24262569183E+02  0.25910519432E+03  0.80946250519E+02 0.  0.
         25    2    1    2    0    0  0.81054321581E+02 -0.27444562232E+03  0.34603249199E+03  0.46612689156E+03  0.12508233633E+03 0.  0.
         24    2    1    2    0    0  0.37815548975E+02  0.60285663743E+02  0.34811731820E+04  0.34836860901E+04  0.11152432248E+03 0.  0.
        -13    1    5    5    0    0  0.55990191053E+02  0.26325610449E+02  0.30903869465E+04  0.30910062146E+04  0.00000000000E+00 0.  1.
         14    1    5    5    0    0 -0.18174642078E+02  0.33960053294E+02  0.39078623547E+03  0.39267987555E+03  0.00000000000E+00 0. -1.
         13    1    3    3    0    0  0.47763965345E+01  0.42772836774E+02  0.20660382800E+02  0.47740768186E+02  0.00000000000E+00 0. -1.
        -14    1    3    3    0    0 -0.12364626709E+03  0.17138712181E+03  0.36021863832E+01  0.21136442613E+03  0.00000000000E+00 0.  1.
          5    1    4    4  501    0  0.56290025745E+02 -0.89368686897E+02  0.52027042215E+02  0.11781177665E+03  0.41800000000E+01 0. -1.
         -5    1    4    4    0  501  0.24764295836E+02 -0.18507693543E+03  0.29400544978E+03  0.34831511491E+03  0.41800000000E+01 0. -1.
</event>
<event>
11    1  0.8864208E-009  0.1929281E+03  0.7561462E-02  0.1059640E+00
         22   -1    0    0    0    0  0.00000000000E+00  0.00000000000E+00  0.43011957141E+03  0.43011957141E+03  0.00000000000E+00 0. -1.
         22   -1    0    0    0    0 -0.00000000000E+00 -0.00000000000E+00 -0.44740857955E+03  0.44740857955E+03  0.00000000000E+00 0. -1.
        -24    2    1    2    0    0  0.55182789153E+01  0.13849541264E+03 -0.31563307993E+03  0.35297441888E+03  0.75863486041E+02 0.  0.
         25    2    1    2    0    0  0.21074141949E+02 -0.25270256700E+03  0.15261007462E+03  0.32130970911E+03  0.12508951780E+03 0.  0.
         24    2    1    2    0    0 -0.26592420865E+02  0.11420715436E+03  0.14573399717E+03  0.20324402296E+03  0.79494049986E+02 0.  0.
        -11    1    5    5    0    0 -0.51791433385E+02  0.61465449984E+02  0.10391627572E+03  0.13137330959E+03  0.00000000000E+00 0.  1.
         12    1    5    5    0    0  0.25199012520E+02  0.52741704380E+02  0.41817721451E+02  0.71870713369E+02  0.00000000000E+00 0. -1.
         11    1    3    3    0    0  0.16849542532E+02  0.10931917876E+03 -0.16183219785E+03  0.19602104527E+03  0.00000000000E+00 0. -1.
        -12    1    3    3    0    0 -0.11331263616E+02  0.29176233876E+02 -0.15380088209E+03  0.15695337362E+03  0.00000000000E+00 0.  1.
          5    1    4    4  501    0 -0.23408505472E+02 -0.11905624221E+03  0.13123608837E+03  0.17878123568E+03  0.41800000000E+01 0. -1.
         -5    1    4    4    0  501  0.44482647422E+02 -0.13364632478E+03  0.21373986249E+02  0.14252847343E+03  0.41800000000E+01 0. -1.
</event>
<event>
11    1  0.8864208E-009  0.1564872E+03  0.7561462E-02  0.1090429E+00
         22   -1    0    0    0    0  0.00000000000E+00  0.00000000000E+00  0.18980907721E+04  0.18980907721E+04  0.00000000000E+00 0.  1.
         22   -1    0    0    0    0 -0.00000000000E+00 -0.00000000000E+00 -0.14874801023E+03  0.14874801023E+03  0.00000000000E+00 0.  1.
        -24    2    1    2    0    0  0.96184286121E+02 -0.71631233960E+01 -0.10257163092E+03  0.16190024413E+03  0.79925104611E+02 0.  0.
         25    2    1    2    0    0 -0.67899996213E+02 -0.79794636449E+01  0.31605249977E+03  0.34670837663E+03  0.12507371623E+03 0.  0.
         24    2    1    2    0    0 -0.28284289908E+02  0.15142587041E+02  0.15358618930E+04  0.15382301616E+04  0.79063117174E+02 0.  0.
        -11    1    5    5    0    0 -0.19936676953E+02  0.72967897868E+00  0.14748711943E+04  0.14750061164E+04  0.00000000000E+00 0.  1.
         12    1    5    5    0    0 -0.83476129549E+01  0.14412908062E+02  0.60990698687E+02  0.63224045166E+02  0.00000000000E+00 0. -1.
         11    1    3    3    0    0 -0.13233876571E+02 -0.40580464050E+01 -0.21959144051E+02  0.25957797232E+02  0.00000000000E+00 0. -1.
        -12    1    3    3    0    0  0.10941816269E+03 -0.31050769910E+01 -0.80612486872E+02  0.13594244690E+03  0.00000000000E+00 0.  1.
          5    1    4    4  501    0 -0.82254781504E+02 -0.45922135341E+02  0.26554718609E+03  0.28179331439E+03  0.41800000000E+01 0. -1.
         -5    1    4    4    0  501  0.14354785291E+02  0.37942671696E+02  0.50505313679E+02  0.64915062243E+02  0.41800000000E+01 0. -1.
</event>
<event>
11    1  0.8864208E-009  0.1456157E+03  0.7561462E-02  0.1101445E+00
         22   -1    0    0    0    0  0.00000000000E+00  0.00000000000E+00  0.79324426888E+02  0.79324426888E+02  0.00000000000E+00 0.  1.
         22   -1    0    0    0    0 -0.00000000000E+00 -0.00000000000E+00 -0.20621425309E+04  0.20621425309E+04  0.00000000000E+00 0. -1.
        -24    2    1    2    0    0 -0.30451912448E+02  0.42417961417E+02 -0.17260305188E+04  0.17287420417E+04  0.81492897305E+02 0.  0.
         25    2    1    2    0    0  0.89143701893E+02  0.33369731254E+01 -0.26193247524E+03  0.30366763989E+03  0.12509068291E+03 0.  0.
         24    2    1    2    0    0 -0.58691789445E+02 -0.45754934543E+02  0.51448900889E+01  0.10905727620E+03  0.79553626026E+02 0.  0.
        -11    1    5    5    0    0 -0.78570884048E+02 -0.39717687397E+02  0.21367498595E+01  0.88064999927E+02  0.00000000000E+00 0.  1.
         12    1    5    5    0    0  0.19879094602E+02 -0.60372471455E+01  0.30081402294E+01  0.20992276269E+02  0.00000000000E+00 0. -1.
         13    1    3    3    0    0 -0.16230317746E+02  0.36130797354E+02 -0.16732496374E+04  0.16737183774E+04  0.00000000000E+00 0. -1.
        -14    1    3    3    0    0 -0.14221594702E+02  0.62871640634E+01 -0.52780881407E+02  0.55023664272E+02  0.00000000000E+00 0.  1.
          5    1    4    4  501    0  0.40330122089E+02 -0.54905065998E+02 -0.72776447161E+02  0.99774589357E+02  0.41800000000E+01 0.  1.
         -5    1    4    4    0  501  0.48813579804E+02  0.58242039123E+02 -0.18915602808E+03  0.20389305053E+03  0.41800000000E+01 0.  1.
</event>
<event>
11    1  0.8864208E-009  0.1313108E+03  0.7561462E-02  0.1117669E+00
         22   -1    0    0    0    0  0.00000000000E+00  0.00000000000E+00  0.20920610004E+04  0.20920610004E+04  0.00000000000E+00 0. -1.
         22   -1    0    0    0    0 -0.00000000000E+00 -0.00000000000E+00 -0.62400605779E+03  0.62400605779E+03  0.00000000000E+00 0. -1.
        -24    2    1    2    0    0  0.64924443038E+00  0.46899227070E+01 -0.58608577582E+03  0.59180951515E+03  0.81972853527E+02 0.  0.
         25    2    1    2    0    0 -0.25026870164E+02  0.27026975909E+02  0.91133783044E+02  0.15909936880E+03  0.12510172294E+03 0.  0.
         24    2    1    2    0    0  0.24377625734E+02 -0.31716898616E+02  0.19630069354E+04  0.19651581742E+04  0.82765881350E+02 0.  0.
        -13    1    5    5    0    0  0.66472713509E+01 -0.13553659931E+02  0.56490078777E+02  0.58472360258E+02  0.00000000000E+00 0.  1.
         14    1    5    5    0    0  0.17730354383E+02 -0.18163238685E+02  0.19065168566E+04  0.19066858140E+04  0.00000000000E+00 0. -1.
         13    1    3    3    0    0  0.23570122761E+02 -0.58882678405E+01 -0.52696534945E+03  0.52752507231E+03  0.00000000000E+00 0. -1.
        -14    1    3    3    0    0 -0.22920878331E+02  0.10578190548E+02 -0.59120426361E+02  0.64284442844E+02  0.00000000000E+00 0.  1.
          5    1    4    4  501    0 -0.70316665401E+02  0.39302507933E+02  0.72438839038E+02  0.10841576622E+03  0.41800000000E+01 0. -1.
         -5    1    4    4    0  501  0.45289795237E+02 -0.12275532024E+02  0.18694944006E+02  0.50683602579E+02  0.41800000000E+01 0. -1.
</event>
<event>
11    1  0.8864208E-009  0.1593204E+03  0.7561462E-02  0.1087718E+00
         22   -1    0    0    0    0  0.00000000000E+00  0.00000000000E+00  0.59199023668E+03  0.59199023668E+03  0.00000000000E+00 0. -1.
         22   -1    0    0    0    0 -0.00000000000E+00 -0.00000000000E+00 -0.40734107140E+03  0.40734107140E+03  0.00000000000E+00 0. -1.
         24    2    1    2    0    0  0.37782153153E+02 -0.83517350607E+01 -0.30973949596E+03  0.32253732060E+03  0.81206682276E+02 0.  0.
         25    2    1    2    0    0 -0.26743504875E+02 -0.90746446086E+02 -0.92609329999E+01  0.15711092508E+03  0.12509174780E+03 0.  0.
        -24    2    1    2    0    0 -0.11038648277E+02  0.99098181147E+02  0.50364959424E+03  0.51968306241E+03  0.80406904639E+02 0.  0.
        -11    1    3    3    0    0  0.50897756166E+02 -0.22574910376E+02 -0.12565189851E+03  0.13743583143E+03  0.00000000000E+00 0.  1.
         12    1    3    3    0    0 -0.13115603014E+02  0.14223175316E+02 -0.18408759744E+03  0.18510148916E+03  0.00000000000E+00 0. -1.
         13    1    5    5    0    0 -0.44611079520E+02  0.63191895687E+02  0.26684240950E+03  0.27782770849E+03  0.00000000000E+00 0. -1.
        -14    1    5    5    0    0  0.33572431242E+02  0.35906285460E+02  0.23680718474E+03  0.24185535392E+03  0.00000000000E+00 0.  1.
          5    1    4    4  501    0 -0.65019824788E+02 -0.26087014385E+02 -0.33878067307E+02  0.77931417152E+02  0.41800000000E+01 0. -1.
         -5    1    4    4    0  501  0.38276319912E+02 -0.64659431701E+02  0.24617134307E+02  0.79179507926E+02  0.41800000000E+01 0. -1.
</event>
<event>
11    1  0.8864208E-009  0.1350286E+03  0.7561462E-02  0.1113240E+00
         22   -1    0    0    0    0  0.00000000000E+00  0.00000000000E+00  0.10378434481E+04  0.10378434481E+04  0.00000000000E+00 0. -1.
         22   -1    0    0    0    0 -0.00000000000E+00 -0.00000000000E+00 -0.14021053249E+03  0.14021053249E+03  0.00000000000E+00 0.  1.
         24    2    1    2    0    0 -0.90924889313E+00 -0.32116081667E+02 -0.96191221496E+02  0.12900615520E+03  0.79734356161E+02 0.  0.
         25    2    1    2    0    0  0.27318813479E+02  0.72378583182E+02  0.19243231039E+03  0.24219584758E+03  0.12507460825E+03 0.  0.
        -24    2    1    2    0    0 -0.26409564586E+02 -0.40262501515E+02  0.80139182674E+03  0.80685197784E+03  0.80391044580E+02 0.  0.
        -11    1    3    3    0    0  0.37017866334E+02 -0.47651478536E+01 -0.56267664673E+02  0.67520953413E+02  0.00000000000E+00 0.  1.
         12    1    3    3    0    0 -0.37927115227E+02 -0.27350933814E+02 -0.39923556822E+02  0.61485201791E+02  0.00000000000E+00 0. -1.
         13    1    5    5    0    0  0.18345090935E+02 -0.36092743341E+02  0.54884777356E+03  0.55033908368E+03  0.00000000000E+00 0. -1.
        -14    1    5    5    0    0 -0.44754655521E+02 -0.41697581743E+01  0.25254405317E+03  0.25651289415E+03  0.00000000000E+00 0.  1.
          5    1    4    4  501    0  0.70247448902E+02  0.10573722824E+02  0.10382087780E+03  0.12586800530E+03  0.41800000000E+01 0. -1.
         -5    1    4    4    0  501 -0.42928635422E+02  0.61804860358E+02  0.88611432588E+02  0.11632784227E+03  0.41800000000E+01 0. -1.
</event>
<event>
11    1  0.8864208E-009  0.1501261E+03  0.7561462E-02  0.1096750E+00
         22   -1    0    0    0    0  0.00000000000E+00  0.00000000000E+00  0.13098357501E+04  0.13098357501E+04  0.00000000000E+00 0.  1.
         22   -1    0    0    0    0 -0.00000000000E+00 -0.00000000000E+00 -0.43331978773E+03  0.43331978773E+03  0.00000000000E+00 0.  1.
        -24    2    1    2    0    0 -0.12789888330E+02  0.35419957932E+01 -0.39439009297E+03  0.40273644105E+03  0.80479615686E+02 0.  0.
         25    2    1    2    0    0  0.93327774015E+02 -0.18326170659E+02  0.16219970750E+03  0.22583938368E+03  0.12509500459E+03 0.  0.
         24    2    1    2    0    0 -0.80537885685E+02  0.14784174866E+02  0.11087063478E+04  0.11145797131E+04  0.79707266108E+02 0.  0.
        -11    1    5    5    0    0 -0.44839194533E+02 -0.13217661116E+02  0.88948654721E+03  0.89071408297E+03  0.00000000000E+00 0.  1.
         12    1    5    5    0    0 -0.35698691152E+02  0.28001835982E+02  0.21921980060E+03  0.22386563011E+03  0.00000000000E+00 0. -1.
         11    1    3    3    0    0 -0.88817584088E+00  0.38231826697E+02 -0.12105366668E+03  0.12695058742E+03  0.00000000000E+00 0. -1.
        -12    1    3    3    0    0 -0.11901712489E+02 -0.34689830904E+02 -0.27333642629E+03  0.27578585363E+03  0.00000000000E+00 0.  1.
          5    1    4    4  501    0  0.63034518690E+01  0.29823362551E+02  0.10841032325E+03  0.11269177897E+03  0.41800000000E+01 0. -1.
         -5    1    4    4    0  501  0.87024322146E+02 -0.48149533211E+02  0.53789384247E+02  0.11314760471E+03  0.41800000000E+01 0. -1.
</event>
<event>
11    1  0.8864208E-009  0.1499835E+03  0.7561462E-02  0.1096896E+00
         22   -1    0    0    0    0  0.00000000000E+00  0.00000000000E+00  0.85450989482E+03  0.85450989482E+03  0.00000000000E+00 0.  1.
         22   -1    0    0    0    0 -0.00000000000E+00 -0.00000000000E+00 -0.97895469533E+03  0.97895469533E+03  0.00000000000E+00 0. -1.
         24    2    1    2    0    0 -0.50849019205E+02 -0.47647979420E+02 -0.92836570334E+03  0.93447448953E+03  0.80769670906E+02 0.  0.
         25    2    1    2    0    0  0.12801064870E+03  0.34386764699E+02  0.15173368335E+03  0.23714730576E+03  0.12508620306E+03 0.  0.
        -24    2    1    2    0    0 -0.77161629500E+02  0.13261214721E+02  0.65218721947E+03  0.66184279487E+03  0.80981102721E+02 0.  0.
        -13    1    3    3    0    0  0.18109915602E+02  0.25106785254E+01 -0.93907227496E+02  0.95670475726E+02  0.00000000000E+00 0.  1.
         14    1    3    3    0    0 -0.68958934807E+02 -0.50158657945E+02 -0.83445847584E+03  0.83880401380E+03  0.00000000000E+00 0. -1.
         13    1    5    5    0    0  0.10386488240E+02  0.18570696390E+02  0.72505438456E+02  0.75563142523E+02  0.00000000000E+00 0. -1.
        -14    1    5    5    0    0 -0.87548117739E+02 -0.53094816688E+01  0.57968178102E+03  0.58627965235E+03  0.00000000000E+00 0.  1.
          5    1    4    4  501    0  0.26427594259E+02  0.68736380298E+02  0.48766903928E+02  0.88423927946E+02  0.41800000000E+01 0. -1.
         -5    1    4    4    0  501  0.10158305445E+03 -0.34349615599E+02  0.10296677943E+03  0.14872337781E+03  0.41800000000E+01 0. -1.
</event>
<event>
11    1  0.8864208E-009  0.2723850E+03  0.7561462E-02  0.1012607E+00
         22   -1    0    0    0    0  0.00000000000E+00  0.00000000000E+00  0.44951795377E+04  0.44951795377E+04  0.00000000000E+00 0. -1.
         22   -1    0    0    0    0 -0.00000000000E+00 -0.00000000000E+00 -0.69050530282E+03  0.69050530282E+03  0.00000000000E+00 0. -1.
        -24    2    1    2    0    0 -0.84683775215E+02  0.54139570837E+02 -0.64600233643E+03  0.65854552825E+03  0.79124959371E+02 0.  0.
         25    2    1    2    0    0 -0.15151338095E+02 -0.27260680752E+03  0.62761191107E+03  0.69576337862E+03  0.12508370618E+03 0.  0.
         24    2    1    2    0    0  0.99835113309E+02  0.21846723668E+03  0.38230646603E+04  0.38313759337E+04  0.76962102939E+02 0.  0.
        -13    1    5    5    0    0 -0.11449502944E+02  0.14409163570E+02  0.19212344876E+03  0.19300293955E+03  0.00000000000E+00 0.  1.
         14    1    5    5    0    0  0.11128461625E+03  0.20405807311E+03  0.36309412115E+04  0.36383729941E+04  0.00000000000E+00 0. -1.
         11    1    3    3    0    0 -0.58732443776E+02  0.51100206981E+02 -0.60457388423E+03  0.60956567538E+03  0.00000000000E+00 0. -1.
        -12    1    3    3    0    0 -0.25951331438E+02  0.30393638569E+01 -0.41428452196E+02  0.48979852873E+02  0.00000000000E+00 0.  1.
          5    1    4    4  501    0 -0.31133197545E+02 -0.60801315607E+02  0.28108665716E+03  0.28929786934E+03  0.41800000000E+01 0. -1.
         -5    1    4    4    0  501  0.15981859451E+02 -0.21180549191E+03  0.34652525391E+03  0.40646550928E+03  0.41800000000E+01 0. -1.
</event>
<event>
11    1  0.8864208E-009  0.1446078E+03  0.7561462E-02  0.1102519E+00
         22   -1    0    0    0    0  0.00000000000E+00  0.00000000000E+00  0.33882875435E+03  0.33882875435E+03  0.00000000000E+00 0. -1.
         22   -1    0    0    0    0 -0.00000000000E+00 -0.00000000000E+00 -0.41849538631E+03  0.41849538631E+03  0.00000000000E+00 0. -1.
         24    2    1    2    0    0 -0.37680339886E+02  0.27534549036E+02 -0.21844921324E+03  0.23722637943E+03  0.79864491023E+02 0.  0.
         25    2    1    2    0    0 -0.31415181070E+02  0.18702647533E+01 -0.15688543620E+03  0.20310346338E+03  0.12509022844E+03 0.  0.
        -24    2    1    2    0    0  0.69095520955E+02 -0.29404813790E+02  0.29566801748E+03  0.31699429785E+03  0.86179894519E+02 0.  0.
        -13    1    3    3    0    0  0.18505648037E+02 -0.13365342787E+01 -0.14007116142E+02  0.23247465147E+02  0.00000000000E+00 0.  1.
         14    1    3    3    0    0 -0.56185987923E+02  0.28871083315E+02 -0.20444209710E+03  0.21397891428E+03  0.00000000000E+00 0. -1.
         11    1    5    5    0    0  0.54309129775E+02  0.11550112149E+02  0.23989762437E+03  0.24623922687E+03  0.00000000000E+00 0. -1.
        -12    1    5    5    0    0  0.14786391180E+02 -0.40954925939E+02  0.55770393105E+02  0.70755070983E+02  0.00000000000E+00 0.  1.
          5    1    4    4  501    0  0.33227737970E+02 -0.22283861152E+02 -0.11601662447E+03  0.12279243703E+03  0.41800000000E+01 0.  1.
         -5    1    4    4    0  501 -0.64642919040E+02  0.24154125905E+02 -0.40868811730E+02  0.80311026345E+02  0.41800000000E+01 0.  1.
</event>
<event>
11    1  0.8864208E-009  0.1729177E+03  0.7561462E-02  0.1075520E+00
         22   -1    0    0    0    0  0.00000000000E+00  0.00000000000E+00  0.24256525578E+04  0.24256525578E+04  0.00000000000E+00 0.  1.
         22   -1    0    0    0    0 -0.00000000000E+00 -0.00000000000E+00 -0.24590763977E+03  0.24590763977E+03  0.00000000000E+00 0.  1.
         24    2    1    2    0    0  0.15864857290E+02  0.11594504766E+03 -0.20402505548E+03  0.24728697829E+03  0.76352331936E+02 0.  0.
         25    2    1    2    0    0 -0.24122694453E+02 -0.22130321247E+03  0.92727133825E+03  0.96178805981E+03  0.12508845275E+03 0.  0.
        -24    2    1    2    0    0  0.82578371622E+01  0.10535816480E+03  0.14564986353E+04  0.14624851595E+04  0.79410530588E+02 0.  0.
        -13    1    3    3    0    0  0.39327481606E+02  0.10661278199E+03 -0.15563304909E+03  0.19270335249E+03  0.00000000000E+00 0.  1.
         14    1    3    3    0    0 -0.23462624316E+02  0.93322656754E+01 -0.48392006393E+02  0.54583625797E+02  0.00000000000E+00 0. -1.
         11    1    5    5    0    0  0.14503244502E+02  0.99996203216E+01  0.55446892510E+02  0.58178126445E+02  0.00000000000E+00 0. -1.
        -12    1    5    5    0    0 -0.62454073399E+01  0.95358544482E+02  0.14010517428E+04  0.14043070331E+04  0.00000000000E+00 0.  1.
          5    1    4    4  501    0 -0.16119619246E+02 -0.17941797376E+03  0.87884706912E+03  0.89712891757E+03  0.41800000000E+01 0. -1.
         -5    1    4    4    0  501 -0.80030752067E+01 -0.41885238710E+02  0.48424269128E+02  0.64659142239E+02  0.41800000000E+01 0. -1.
</event>
<event>
11    1  0.8864208E-009  0.3164201E+03  0.7561462E-02  0.9934718E-01
         22   -1    0    0    0    0  0.00000000000E+00  0.00000000000E+00  0.20928488442E+04  0.20928488442E+04  0.00000000000E+00 0.  1.
         22   -1    0    0    0    0 -0.00000000000E+00 -0.00000000000E+00 -0.44667325741E+03  0.44667325741E+03  0.00000000000E+00 0. -1.
        -24    2    1    2    0    0 -0.28270164919E+03 -0.54363646848E+02 -0.34062920518E+03  0.45328953534E+03  0.81040229967E+02 0.  0.
         25    2    1    2    0    0  0.32239623547E+03  0.23570275570E+02  0.57655833325E+03  0.67272849595E+03  0.12509687080E+03 0.  0.
         24    2    1    2    0    0 -0.39694586278E+02  0.30793371277E+02  0.14102464587E+04  0.14135040703E+04  0.81699391881E+02 0.  0.
        -11    1    5    5    0    0 -0.63475817831E+02  0.16260734157E+02  0.11225585083E+04  0.11244692951E+04  0.00000000000E+00 0.  1.
         12    1    5    5    0    0  0.23781231554E+02  0.14532637120E+02  0.28768795036E+03  0.28903477524E+03  0.00000000000E+00 0. -1.
         11    1    3    3    0    0 -0.13496778656E+03  0.12806772143E+02 -0.17544210098E+03  0.22172110323E+03  0.00000000000E+00 0. -1.
        -12    1    3    3    0    0 -0.14773386263E+03 -0.67170418991E+02 -0.16518710420E+03  0.23156843211E+03  0.00000000000E+00 0.  1.
          5    1    4    4  501    0  0.49946068442E+02  0.28355650762E+02  0.37563403998E+02  0.68754159167E+02  0.41800000000E+01 0. -1.
         -5    1    4    4    0  501  0.27245016703E+03 -0.47853751917E+01  0.53899492925E+03  0.60397433678E+03  0.41800000000E+01 0. -1.
</event>
<event>
11    1  0.8864208E-009  0.1422419E+03  0.7561462E-02  0.1105080E+00
         22   -1    0    0    0    0  0.00000000000E+00  0.00000000000E+00  0.73533091920E+02  0.73533091920E+02  0.00000000000E+00 0. -1.
         22   -1    0    0    0    0 -0.00000000000E+00 -0.00000000000E+00 -0.13105141032E+04  0.13105141032E+04  0.00000000000E+00 0.  1.
         24    2    1    2    0    0  0.44581762187E+02 -0.29964015677E+02 -0.79384838868E+03  0.79958909205E+03  0.79133280996E+02 0.  0.
         25    2    1    2    0    0  0.24495384781E+02  0.46882099783E+02 -0.45423416843E+03  0.47410081582E+03  0.12507976908E+03 0.  0.
        -24    2    1    2    0    0 -0.69077146968E+02 -0.16918084107E+02  0.11101545863E+02  0.11035728722E+03  0.83651734704E+02 0.  0.
        -13    1    3    3    0    0  0.50677572779E+02 -0.48791867861E+02 -0.48120379779E+03  0.48631878203E+03  0.00000000000E+00 0.  1.
         14    1    3    3    0    0 -0.60958105921E+01  0.18827852185E+02 -0.31264459089E+03  0.31327031002E+03  0.00000000000E+00 0. -1.
         11    1    5    5    0    0 -0.53454502001E+02 -0.72990950014E+01  0.46020382115E+02  0.70912172030E+02  0.00000000000E+00 0. -1.
        -12    1    5    5    0    0 -0.15622644967E+02 -0.96189891053E+01 -0.34918836252E+02  0.39445115190E+02  0.00000000000E+00 0.  1.
          5    1    4    4  501    0  0.36432682897E+02  0.40778734072E+02 -0.45658059986E+03  0.45986254697E+03  0.41800000000E+01 0. -1.
         -5    1    4    4    0  501 -0.11937298116E+02  0.61033657116E+01  0.23464314308E+01  0.14238268848E+02  0.41800000000E+01 0. -1.
</event>
<event>
11    1  0.8864208E-009  0.1314023E+03  0.7561462E-02  0.1117558E+00
         22   -1    0    0    0    0  0.00000000000E+00  0.00000000000E+00  0.34577586038E+04  0.34577586038E+04  0.00000000000E+00 0.  1.
         22   -1    0    0    0    0 -0.00000000000E+00 -0.00000000000E+00 -0.12915864503E+03  0.12915864503E+03  0.00000000000E+00 0. -1.
         24    2    1    2    0    0  0.82669029974E+01  0.40213487799E+02 -0.86451938533E+02  0.12332852767E+03  0.77785099954E+02 0.  0.
         25    2    1    2    0    0  0.52081158876E+01 -0.34256092687E+02  0.15353989228E+03  0.20104827398E+03  0.12508119598E+03 0.  0.
        -24    2    1    2    0    0 -0.13475018885E+02 -0.59573951119E+01  0.32615120051E+04  0.32625404472E+04  0.80576323458E+02 0.  0.
        -13    1    3    3    0    0  0.39664964406E+01  0.33423676130E+02  0.27452489523E+01  0.33769980928E+02  0.00000000000E+00 0.  1.
         14    1    3    3    0    0  0.43004065567E+01  0.67898116682E+01 -0.89197187485E+02  0.89558546741E+02  0.00000000000E+00 0. -1.
         13    1    5    5    0    0  0.26003580010E+00 -0.39252256265E+01  0.72472179928E+01  0.82460404724E+01  0.00000000000E+00 0. -1.
        -14    1    5    5    0    0 -0.13735054685E+02 -0.20321694853E+01  0.32542647871E+04  0.32542944068E+04  0.00000000000E+00 0.  1.
          5    1    4    4  501    0  0.10591242650E+01  0.33061597709E+02  0.49982381265E-01  0.33341653911E+02  0.41800000000E+01 0. -1.
         -5    1    4    4    0  501  0.41489916226E+01 -0.67317690396E+02  0.15348990990E+03  0.16770662006E+03  0.41800000000E+01 0. -1.
</event>
<event>
11    1  0.8864208E-009  0.1363206E+03  0.7561462E-02  0.1111738E+00
         22   -1    0    0    0    0  0.00000000000E+00  0.00000000000E+00  0.85827150718E+03  0.85827150718E+03  0.00000000000E+00 0. -1.
         22   -1    0    0    0    0 -0.00000000000E+00 -0.00000000000E+00 -0.12894697581E+03  0.12894697581E+03  0.00000000000E+00 0. -1.
        -24    2    1    2    0    0  0.20693701656E+02 -0.45873959202E+02 -0.32876959043E+02  0.10059905935E+03  0.80663665211E+02 0.  0.
         25    2    1    2    0    0 -0.56508451652E+02  0.41368591912E+02  0.27516164036E+02  0.14597789903E+03  0.12509133550E+03 0.  0.
         24    2    1    2    0    0  0.35814749996E+02  0.45053672901E+01  0.73468532638E+03  0.74064152460E+03  0.86512106175E+02 0.  0.
        -11    1    5    5    0    0 -0.14731044905E+02  0.24403676542E+02  0.11124052028E+03  0.11483464836E+03  0.00000000000E+00 0.  1.
         12    1    5    5    0    0  0.50545794901E+02 -0.19898309252E+02  0.62344480610E+03  0.62580687624E+03  0.00000000000E+00 0. -1.
         11    1    3    3    0    0  0.26422448263E+02 -0.62899945780E+02 -0.42340464135E+02  0.80294855716E+02  0.00000000000E+00 0. -1.
        -12    1    3    3    0    0 -0.57287466068E+01  0.17025986578E+02  0.94635050914E+01  0.20304203635E+02  0.00000000000E+00 0.  1.
          5    1    4    4  501    0 -0.26191357068E+02 -0.28257644094E+02 -0.31313998803E+02  0.49824898954E+02  0.41800000000E+01 0. -1.
         -5    1    4    4    0  501 -0.30317094584E+02  0.69626236005E+02  0.58830162839E+02  0.96153000078E+02  0.41800000000E+01 0. -1.
</event>
<event>
11    1  0.8864208E-009  0.1399242E+03  0.7561462E-02  0.1107643E+00
         22   -1    0    0    0    0  0.00000000000E+00  0.00000000000E+00  0.43953599150E+03  0.43953599150E+03  0.00000000000E+00 0. -1.
         22   -1    0    0    0    0 -0.00000000000E+00 -0.00000000000E+00 -0.56641455477E+03  0.56641455477E+03  0.00000000000E+00 0.  1.
         24    2    1    2    0    0 -0.62650032626E+02  0.13641589898E+02 -0.48773694303E+03  0.49849059496E+03  0.80588014633E+02 0.  0.
         25    2    1    2    0    0  0.36537558149E+02 -0.39758148912E+02 -0.15461901261E+00  0.13624792043E+03  0.12509104026E+03 0.  0.
        -24    2    1    2    0    0  0.26112474477E+02  0.26116559014E+02  0.36101299878E+03  0.37121203089E+03  0.78128423858E+02 0.  0.
        -13    1    3    3    0    0 -0.30585797023E+02 -0.20795769733E+02 -0.36778192260E+03  0.36963698084E+03  0.00000000000E+00 0.  1.
         14    1    3    3    0    0 -0.32064235603E+02  0.34437359631E+02 -0.11995502043E+03  0.12885361411E+03  0.00000000000E+00 0. -1.
         13    1    5    5    0    0  0.31497820897E+02  0.50743315255E+02  0.21995969193E+03  0.22792380928E+03  0.00000000000E+00 0. -1.
        -14    1    5    5    0    0 -0.53853464200E+01 -0.24626756242E+02  0.14105330685E+03  0.14328822161E+03  0.00000000000E+00 0.  1.
          5    1    4    4  501    0  0.52555639274E+02  0.25325008277E+02  0.26222515051E+02  0.64097924766E+02  0.41800000000E+01 0. -1.
         -5    1    4    4    0  501 -0.16018081124E+02 -0.65083157190E+02 -0.26377134063E+02  0.72149995662E+02  0.41800000000E+01 0. -1.
</event>
<event>
11    1  0.8864208E-009  0.1378944E+03  0.7561462E-02  0.1109933E+00
         22   -1    0    0    0    0  0.00000000000E+00  0.00000000000E+00  0.27902505680E+03  0.27902505680E+03  0.00000000000E+00 0. -1.
         22   -1    0    0    0    0 -0.00000000000E+00 -0.00000000000E+00 -0.33642172715E+03  0.33642172715E+03  0.00000000000E+00 0. -1.
         24    2    1    2    0    0 -0.14326518375E+02 -0.26753405270E+02 -0.22528500767E+03  0.24295339166E+03  0.85743932807E+02 0.  0.
         25    2    1    2    0    0  0.63791702033E+02 -0.38380252809E+01 -0.36226628100E+02  0.14505782671E+03  0.12508114494E+03 0.  0.
        -24    2    1    2    0    0 -0.49465183658E+02  0.30591430551E+02  0.20411496543E+03  0.22743556558E+03  0.81739692710E+02 0.  0.
        -13    1    3    3    0    0  0.25756379804E+02  0.17542929426E+02 -0.81226606029E+02  0.86999465518E+02  0.00000000000E+00 0.  1.
         14    1    3    3    0    0 -0.40082898179E+02 -0.44296334696E+02 -0.14405840164E+03  0.15595392614E+03  0.00000000000E+00 0. -1.
         11    1    5    5    0    0 -0.13075119906E+02  0.54534820208E+02  0.12780988740E+03  0.13957210571E+03  0.00000000000E+00 0. -1.
        -12    1    5    5    0    0 -0.36390063751E+02 -0.23943389658E+02  0.76305078024E+02  0.87863459870E+02  0.00000000000E+00 0.  1.
          5    1    4    4  501    0  0.83131936873E+02  0.13530402384E+02 -0.64690744038E+02  0.10628431437E+03  0.41800000000E+01 0. -1.
         -5    1    4    4    0  501 -0.19340234840E+02 -0.17368427665E+02  0.28464115938E+02  0.38773512342E+02  0.41800000000E+01 0. -1.
</event>
<event>
11    1  0.8864208E-009  0.3111929E+03  0.7561462E-02  0.9955623E-01
         22   -1    0    0    0    0  0.00000000000E+00  0.00000000000E+00  0.37193288855E+03  0.37193288855E+03  0.00000000000E+00 0. -1.
         22   -1    0    0    0    0 -0.00000000000E+00 -0.00000000000E+00 -0.90155998659E+03  0.90155998659E+03  0.00000000000E+00 0. -1.
        -24    2    1    2    0    0  0.27018621003E+03  0.82665588070E+02 -0.73639847343E+03  0.79288411311E+03  0.80921675726E+02 0.  0.
         25    2    1    2    0    0 -0.30473681247E+03 -0.48018027872E+02  0.13263396809E+03  0.35834070881E+03  0.12508412461E+03 0.  0.
         24    2    1    2    0    0  0.34550602434E+02 -0.34647560197E+02  0.74137407305E+02  0.12226805323E+03  0.84017403684E+02 0.  0.
        -13    1    5    5    0    0  0.23225111728E+02 -0.57334919799E+02  0.24512329434E+02  0.66539861267E+02  0.00000000000E+00 0.  1.
         14    1    5    5    0    0  0.11325490706E+02  0.22687359602E+02  0.49625077871E+02  0.55728191960E+02  0.00000000000E+00 0. -1.
         13    1    3    3    0    0  0.19041228059E+03  0.42341169502E+02 -0.40322900589E+03  0.44793218507E+03  0.00000000000E+00 0. -1.
        -14    1    3    3    0    0  0.79773929442E+02  0.40324418568E+02 -0.33316946754E+03  0.34495192803E+03  0.00000000000E+00 0.  1.
          5    1    4    4  501    0 -0.20161112043E+02 -0.33387127613E+02  0.46058505163E+02  0.60498173749E+02  0.41800000000E+01 0.  1.
         -5    1    4    4    0  501 -0.28457570042E+03 -0.14630900260E+02  0.86575462924E+02  0.29784253506E+03  0.41800000000E+01 0.  1.
</event>
<event>
11    1  0.8864208E-009  0.1388447E+03  0.7561462E-02  0.1108855E+00
         22   -1    0    0    0    0  0.00000000000E+00  0.00000000000E+00  0.88381432815E+03  0.88381432815E+03  0.00000000000E+00 0.  1.
         22   -1    0    0    0    0 -0.00000000000E+00 -0.00000000000E+00 -0.23134623394E+03  0.23134623394E+03  0.00000000000E+00 0. -1.
         24    2    1    2    0    0  0.10149494642E+02 -0.32420219028E+02 -0.15380556553E+03  0.17670624684E+03  0.80092838887E+02 0.  0.
         25    2    1    2    0    0 -0.11884819874E+02 -0.29694027631E+02  0.47872401316E+01  0.12920194700E+03  0.12508893325E+03 0.  0.
        -24    2    1    2    0    0  0.17353252324E+01  0.62114246659E+02  0.80148641961E+03  0.80925236824E+03  0.92993137940E+02 0.  0.
        -11    1    3    3    0    0  0.10898043722E+02 -0.34579280753E+02 -0.17283095698E+02  0.40164653755E+02  0.00000000000E+00 0.  1.
         12    1    3    3    0    0 -0.74854907973E+00  0.21590617248E+01 -0.13652246983E+03  0.13654159308E+03  0.00000000000E+00 0. -1.
         11    1    5    5    0    0  0.12952962537E+02  0.62358959595E+02  0.26132056587E+03  0.26896999317E+03  0.00000000000E+00 0. -1.
        -12    1    5    5    0    0 -0.11217637305E+02 -0.24471293554E+00  0.54016585374E+03  0.54028237507E+03  0.00000000000E+00 0.  1.
          5    1    4    4  501    0 -0.36607833111E+02 -0.59185054391E+02 -0.31170872648E+02  0.76368185850E+02  0.41800000000E+01 0. -1.
         -5    1    4    4    0  501  0.24723013236E+02  0.29491026760E+02  0.35958112780E+02  0.52833761152E+02  0.41800000000E+01 0. -1.
</event>
<event>
11    1  0.8864208E-009  0.1611481E+03  0.7561462E-02  0.1086002E+00
         22   -1    0    0    0    0  0.00000000000E+00  0.00000000000E+00  0.15642305955E+03  0.15642305955E+03  0.00000000000E+00 0.  1.
         22   -1    0    0    0    0 -0.00000000000E+00 -0.00000000000E+00 -0.21108013222E+04  0.21108013222E+04  0.00000000000E+00 0. -1.
         24    2    1    2    0    0 -0.97483222818E+02  0.26809532065E+02 -0.19822324111E+04  0.19864621298E+04  0.81023033328E+02 0.  0.
         25    2    1    2    0    0  0.10527181146E+03 -0.73575496607E+02 -0.11669063970E+02  0.17966192815E+03  0.12508690333E+03 0.  0.
        -24    2    1    2    0    0 -0.77885886395E+01  0.46765964542E+02  0.39523212444E+02  0.10110032373E+03  0.80071677785E+02 0.  0.
        -13    1    3    3    0    0 -0.37495910107E+01 -0.15915101110E+00 -0.85757682342E+03  0.85758503533E+03  0.00000000000E+00 0.  1.
         14    1    3    3    0    0 -0.93733631807E+02  0.26968683076E+02 -0.11246555877E+04  0.11288770945E+04  0.00000000000E+00 0. -1.
         11    1    5    5    0    0  0.34600299582E+02  0.21461485646E+02  0.30600849001E+02  0.50933172460E+02  0.00000000000E+00 0. -1.
        -12    1    5    5    0    0 -0.42388888222E+02  0.25304478896E+02  0.89223634432E+01  0.50167151267E+02  0.00000000000E+00 0.  1.
          5    1    4    4  501    0  0.45390084934E+02  0.32502779971E+02 -0.14179295385E+02  0.57751323221E+02  0.41800000000E+01 0. -1.
         -5    1    4    4    0  501  0.59881726523E+02 -0.10607827658E+03  0.25102314154E+01  0.12191060493E+03  0.41800000000E+01 0. -1.
</event>
<event>
11    1  0.1060074E-008  0.1597012E+03  0.7561462E-02  0.1087359E+00
         22   -1    0    0    0    0  0.00000000000E+00  0.00000000000E+00  0.35912533087E+03  0.35912533087E+03  0.00000000000E+00 0. -1.
         22   -1    0    0    0    0 -0.00000000000E+00 -0.00000000000E+00 -0.25504990542E+04  0.25504990542E+04  0.00000000000E+00 0. -1.
        -24    2    1    2    0    0 -0.32521605111E+02 -0.15723328010E+02 -0.22079315595E+04  0.22097418829E+04  0.81807943197E+02 0.  0.
         25    2    1    2    0    0 -0.57749384710E+02  0.59105553177E+02 -0.31124877025E+03  0.34547264660E+03  0.12508834765E+03 0.  0.
         24    2    1    2    0    0  0.90270989821E+02 -0.43382225167E+02  0.32780660641E+03  0.35440985563E+03  0.90101639800E+02 0.  0.
        -13    1    5    5    0    0  0.28359659173E+02  0.87140452753E+01  0.19122009957E+02  0.35296687072E+02  0.00000000000E+00 0.  1.
         14    1    5    5    0    0  0.61911330648E+02 -0.52096270442E+02  0.30868459646E+03  0.31911316856E+03  0.00000000000E+00 0. -1.
         13    1    3    3    0    0 -0.55635731454E+02 -0.13381833408E+02 -0.19276396877E+04  0.19284888316E+04  0.00000000000E+00 0. -1.
        -14    1    3    3    0    0  0.23114126343E+02 -0.23414946027E+01 -0.28029187180E+03  0.28125305124E+03  0.00000000000E+00 0.  1.
          5    1    4    4  501    0  0.81897804132E+01  0.12325589743E+02 -0.23090318271E+03  0.23141465998E+03  0.41800000000E+01 0.  1.
         -5    1    4    4    0  501 -0.65939165123E+02  0.46779963434E+02 -0.80345587536E+02  0.11405798662E+03  0.41800000000E+01 0.  1.
</event>
<event>
11    1  0.8864208E-009  0.1427955E+03  0.7561462E-02  0.1104476E+00
         22   -1    0    0    0    0  0.00000000000E+00  0.00000000000E+00  0.58954586134E+03  0.58954586134E+03  0.00000000000E+00 0. -1.
         22   -1    0    0    0    0 -0.00000000000E+00 -0.00000000000E+00 -0.73898612389E+03  0.73898612389E+03  0.00000000000E+00 0.  1.
         24    2    1    2    0    0 -0.22971662401E+02 -0.25211550147E+01 -0.55547609944E+03  0.56161507486E+03  0.79521957771E+02 0.  0.
         25    2    1    2    0    0 -0.26752459652E+02 -0.45819097665E+02 -0.14940968878E+03  0.20195527469E+03  0.12509034361E+03 0.  0.
        -24    2    1    2    0    0  0.49724122053E+02  0.48340252679E+02  0.55544552567E+03  0.56496163568E+03  0.76502610830E+02 0.  0.
        -11    1    3    3    0    0 -0.47964953198E+02  0.62202572958E+01 -0.45999156812E+03  0.46252737333E+03  0.00000000000E+00 0.  1.
         12    1    3    3    0    0  0.24993290797E+02 -0.87414123104E+01 -0.95484531322E+02  0.99087701537E+02  0.00000000000E+00 0. -1.
         13    1    5    5    0    0  0.44878708264E+02  0.67322480181E+02  0.38608987096E+03  0.39447661940E+03  0.00000000000E+00 0. -1.
        -14    1    5    5    0    0  0.48454137890E+01 -0.18982227502E+02  0.16935565470E+03  0.17048501628E+03  0.00000000000E+00 0.  1.
          5    1    4    4  501    0 -0.51656559481E+02 -0.16643917430E+02 -0.75645856189E+01  0.54955577336E+02  0.41800000000E+01 0.  1.
         -5    1    4    4    0  501  0.24904099828E+02 -0.29175180235E+02 -0.14184510316E+03  0.14699969735E+03  0.41800000000E+01 0.  1.
</event>
<event>
11    1  0.8864208E-009  0.1757865E+03  0.7561462E-02  0.1073103E+00
         22   -1    0    0    0    0  0.00000000000E+00  0.00000000000E+00  0.88469422520E+03  0.88469422520E+03  0.00000000000E+00 0.  1.
         22   -1    0    0    0    0 -0.00000000000E+00 -0.00000000000E+00 -0.11548957287E+03  0.11548957287E+03  0.00000000000E+00 0. -1.
         24    2    1    2    0    0  0.24494410271E+02 -0.12022306849E+03 -0.29548822241E+02  0.14938221580E+03  0.79927161655E+02 0.  0.
         25    2    1    2    0    0  0.29744716248E+02  0.13677627462E+03  0.42948730410E+03  0.46872045788E+03  0.12508807218E+03 0.  0.
        -24    2    1    2    0    0 -0.54239126519E+02 -0.16553206135E+02  0.36926617047E+03  0.38208112439E+03  0.80078645607E+02 0.  0.
        -13    1    3    3    0    0 -0.22330330660E+02 -0.24185135662E+02  0.11579382068E+02  0.34894792498E+02  0.00000000000E+00 0.  1.
         14    1    3    3    0    0  0.46824740931E+02 -0.96037932825E+02 -0.41128204309E+02  0.11448742330E+03  0.00000000000E+00 0. -1.
         11    1    5    5    0    0  0.21139639577E+02 -0.42094718793E+01  0.71877960234E+02  0.75040290393E+02  0.00000000000E+00 0. -1.
        -12    1    5    5    0    0 -0.75378766096E+02 -0.12343734255E+02  0.29738821024E+03  0.30704083400E+03  0.00000000000E+00 0.  1.
          5    1    4    4  501    0 -0.23818724917E+02  0.20719562004E+01  0.12638076819E+02  0.27364539917E+02  0.41800000000E+01 0. -1.
         -5    1    4    4    0  501  0.53563441165E+02  0.13470431842E+03  0.41684922729E+03  0.44135591796E+03  0.41800000000E+01 0. -1.
</event>
<event>
11    1  0.8864208E-009  0.1695058E+03  0.7561462E-02  0.1078463E+00
         22   -1    0    0    0    0  0.00000000000E+00  0.00000000000E+00  0.29177304459E+03  0.29177304459E+03  0.00000000000E+00 0.  1.
         22   -1    0    0    0    0 -0.00000000000E+00 -0.00000000000E+00 -0.11901385113E+04  0.11901385113E+04  0.00000000000E+00 0. -1.
        -24    2    1    2    0    0 -0.23121859369E+02 -0.10881302548E+03 -0.10008002479E+04  0.10102496196E+04  0.81414143906E+02 0.  0.
         25    2    1    2    0    0  0.21522774565E+01  0.15517243065E+03 -0.11672341651E+03  0.23098291031E+03  0.12508250621E+03 0.  0.
         24    2    1    2    0    0  0.20969581912E+02 -0.46359405172E+02  0.21915819762E+03  0.24067902605E+03  0.85481928971E+02 0.  0.
        -13    1    5    5    0    0  0.52648777276E+02 -0.26163466925E+02  0.10301631679E+03  0.11861189770E+03  0.00000000000E+00 0.  1.
         14    1    5    5    0    0 -0.31679195364E+02 -0.20195938247E+02  0.11614188083E+03  0.12206712835E+03  0.00000000000E+00 0. -1.
         13    1    3    3    0    0 -0.53055324585E+02 -0.74578028007E+02 -0.61368510534E+03  0.62047252819E+03  0.00000000000E+00 0. -1.
        -14    1    3    3    0    0  0.29933465217E+02 -0.34234997472E+02 -0.38711514253E+03  0.38977709139E+03  0.00000000000E+00 0.  1.
          5    1    4    4  501    0 -0.95062362620E+01  0.63422069601E+02 -0.12237941793E+03  0.13822778944E+03  0.41800000000E+01 0. -1.
         -5    1    4    4    0  501  0.11658513718E+02  0.91750361050E+02  0.56560014195E+01  0.92755120867E+02  0.41800000000E+01 0. -1.
</event>
<event>
11    1  0.8864208E-009  0.1433606E+03  0.7561462E-02  0.1103863E+00
         22   -1    0    0    0    0  0.00000000000E+00  0.00000000000E+00  0.21485099701E+04  0.21485099701E+04  0.00000000000E+00 0. -1.
         22   -1    0    0    0    0 -0.00000000000E+00 -0.00000000000E+00 -0.60407237642E+03  0.60407237642E+03  0.00000000000E+00 0. -1.
         24    2    1    2    0    0 -0.23035253649E+02 -0.43914482350E+02 -0.46586461398E+03  0.47562036138E+03  0.82010882943E+02 0.  0.
         25    2    1    2    0    0 -0.81788869239E+01 -0.19363791775E+02 -0.10141611225E+03  0.16240409971E+03  0.12509201875E+03 0.  0.
        -24    2    1    2    0    0  0.31214140573E+02  0.63278274125E+02  0.21117183199E+04  0.21145578854E+04  0.83799317321E+02 0.  0.
        -13    1    3    3    0    0  0.25886517112E+02  0.50480319056E+01 -0.14440606577E+03  0.14679477588E+03  0.00000000000E+00 0.  1.
         14    1    3    3    0    0 -0.48921770761E+02 -0.48962514256E+02 -0.32145854822E+03  0.32882558550E+03  0.00000000000E+00 0. -1.
         13    1    5    5    0    0  0.31734775558E+02  0.29165102203E+02  0.18643251234E+04  0.18648232798E+04  0.00000000000E+00 0. -1.
        -14    1    5    5    0    0 -0.52063498504E+00  0.34113171923E+02  0.24739319644E+03  0.24973460554E+03  0.00000000000E+00 0.  1.
          5    1    4    4  501    0  0.56620302724E+02  0.51565261657E+01 -0.52403661831E+02  0.77434259963E+02  0.41800000000E+01 0.  1.
         -5    1    4    4    0  501 -0.64799189648E+02 -0.24520317941E+02 -0.49012450424E+02  0.84969839752E+02  0.41800000000E+01 0.  1.
</event>
<event>
11    1  0.8864208E-009  0.1604068E+03  0.7561462E-02  0.1086695E+00
         22   -1    0    0    0    0  0.00000000000E+00  0.00000000000E+00  0.12777114741E+04  0.12777114741E+04  0.00000000000E+00 0. -1.
         22   -1    0    0    0    0 -0.00000000000E+00 -0.00000000000E+00 -0.14275114174E+03  0.14275114174E+03  0.00000000000E+00 0. -1.
        -24    2    1    2    0    0 -0.39818796632E+02  0.67106229705E+01 -0.75157310803E+02  0.11726887388E+03  0.80453703385E+02 0.  0.
         25    2    1    2    0    0  0.47339438286E+02 -0.10600453620E+03  0.12747947481E+03  0.21301732711E+03  0.12508949212E+03 0.  0.
         24    2    1    2    0    0 -0.75206416532E+01  0.99293913229E+02  0.10826381683E+04  0.10901764148E+04  0.80395090974E+02 0.  0.
        -11    1    5    5    0    0 -0.17603423652E+02  0.63413783131E+01  0.51245062223E+02  0.54554101637E+02  0.00000000000E+00 0.  1.
         12    1    5    5    0    0  0.10082781999E+02  0.92952534916E+02  0.10313931061E+04  0.10356223132E+04  0.00000000000E+00 0. -1.
         13    1    3    3    0    0 -0.52423515542E+02  0.24254562059E+02 -0.25548041965E+02  0.63160202745E+02  0.00000000000E+00 0. -1.
        -14    1    3    3    0    0  0.12604718910E+02 -0.17543939089E+02 -0.49609268838E+02  0.54108671137E+02  0.00000000000E+00 0.  1.
          5    1    4    4  501    0 -0.39789668368E+02 -0.15847171139E+02  0.48212606517E+02  0.64624131477E+02  0.41800000000E+01 0.  1.
         -5    1    4    4    0  501  0.87129106654E+02 -0.90157365060E+02  0.79266868297E+02  0.14839319563E+03  0.41800000000E+01 0.  1.
</event>
<event>
11    1  0.8864208E-009  0.1650193E+03  0.7561462E-02  0.1082449E+00
         22   -1    0    0    0    0  0.00000000000E+00  0.00000000000E+00  0.87207463423E+03  0.87207463423E+03  0.00000000000E+00 0.  1.
         22   -1    0    0    0    0 -0.00000000000E+00 -0.00000000000E+00 -0.10534923036E+04  0.10534923036E+04  0.00000000000E+00 0. -1.
        -24    2    1    2    0    0 -0.16593535610E+01 -0.10977477677E+03 -0.10084036408E+04  0.10177673242E+04  0.83181537480E+02 0.  0.
         25    2    1    2    0    0 -0.52486654010E+02  0.42582446685E+02  0.10599724547E+03  0.17734626951E+03  0.12509264426E+03 0.  0.
         24    2    1    2    0    0  0.54146007571E+02  0.67192330085E+02  0.72098872596E+03  0.73045334420E+03  0.79314221502E+02 0.  0.
        -13    1    5    5    0    0  0.60854703834E+02  0.73213037856E+02  0.70945916714E+03  0.71581824071E+03  0.00000000000E+00 0.  1.
         14    1    5    5    0    0 -0.67086962628E+01 -0.60207077710E+01  0.11529558817E+02  0.14635103489E+02  0.00000000000E+00 0. -1.
         13    1    3    3    0    0 -0.25014728547E+02 -0.11111533711E+03 -0.80340850996E+03  0.81144167299E+03  0.00000000000E+00 0. -1.
        -14    1    3    3    0    0  0.23355374986E+02  0.13405603378E+01 -0.20499513089E+03  0.20632565117E+03  0.00000000000E+00 0.  1.
          5    1    4    4  501    0 -0.60600792755E+02  0.31844070839E+01 -0.31883450820E+01  0.60911694077E+02  0.41800000000E+01 0. -1.
         -5    1    4    4    0  501  0.81141387453E+01  0.39398039602E+02  0.10918559056E+03  0.11643457544E+03  0.41800000000E+01 0. -1.
</event>
<event>
11    1  0.8864208E-009  0.1388596E+03  0.7561462E-02  0.1108839E+00
         22   -1    0    0    0    0  0.00000000000E+00  0.00000000000E+00  0.63421919148E+03  0.63421919148E+03  0.00000000000E+00 0. -1.
         22   -1    0    0    0    0 -0.00000000000E+00 -0.00000000000E+00 -0.97964212122E+03  0.97964212122E+03  0.00000000000E+00 0. -1.
         24    2    1    2    0    0 -0.25901686321E+02  0.53688422194E+02 -0.93072946478E+03  0.93605271271E+03  0.79899939507E+02 0.  0.
         25    2    1    2    0    0  0.13662908462E+02 -0.10687450956E+03  0.12433751519E+03  0.20667899101E+03  0.12509017460E+03 0.  0.
        -24    2    1    2    0    0  0.12238777859E+02  0.53186087368E+02  0.46096901986E+03  0.47112960898E+03  0.80573715399E+02 0.  0.
        -13    1    3    3    0    0 -0.25905400008E+02  0.67095839315E+02 -0.50330327122E+03  0.50841629028E+03  0.00000000000E+00 0.  1.
         14    1    3    3    0    0  0.37136871657E-02 -0.13407417120E+02 -0.42742619356E+03  0.42763642243E+03  0.00000000000E+00 0. -1.
         11    1    5    5    0    0  0.37713838803E+02  0.41313808007E+02  0.40121374665E+03  0.40509459990E+03  0.00000000000E+00 0. -1.
        -12    1    5    5    0    0 -0.25475060944E+02  0.11872279361E+02  0.59755273208E+02  0.66035009075E+02  0.00000000000E+00 0.  1.
          5    1    4    4  501    0 -0.29694745507E+02 -0.11545581834E+03  0.10215005769E+03  0.15704754243E+03  0.41800000000E+01 0.  1.
         -5    1    4    4    0  501  0.43357653969E+02  0.85813087752E+01  0.22187457497E+02  0.49631448580E+02  0.41800000000E+01 0.  1.
</event>
<event>
11    1  0.8864208E-009  0.1319787E+03  0.7561462E-02  0.1116861E+00
         22   -1    0    0    0    0  0.00000000000E+00  0.00000000000E+00  0.12804325104E+03  0.12804325104E+03  0.00000000000E+00 0. -1.
         22   -1    0    0    0    0 -0.00000000000E+00 -0.00000000000E+00 -0.90847483937E+03  0.90847483937E+03  0.00000000000E+00 0.  1.
        -24    2    1    2    0    0 -0.47681674917E+02 -0.36436821199E+01 -0.63452660305E+03  0.64062625307E+03  0.74102412959E+02 0.  0.
         25    2    1    2    0    0  0.84396407163E+02  0.15985510540E+02 -0.22757065145E+03  0.27349939232E+03  0.12504089775E+03 0.  0.
         24    2    1    2    0    0 -0.36714732246E+02 -0.12341828420E+02  0.81665666162E+02  0.12239244502E+03  0.82524767648E+02 0.  0.
        -11    1    5    5    0    0  0.25321080978E+01 -0.41913160496E+02  0.39264571500E+02  0.57487661017E+02  0.00000000000E+00 0.  1.
         12    1    5    5    0    0 -0.39246840344E+02  0.29571332076E+02  0.42401094663E+02  0.64904784002E+02  0.00000000000E+00 0. -1.
         11    1    3    3    0    0 -0.17223227371E+02 -0.16349894847E+01 -0.25382430237E+02  0.30717755719E+02  0.00000000000E+00 0. -1.
        -12    1    3    3    0    0 -0.30458447546E+02 -0.20086926353E+01 -0.60914417281E+03  0.60990849735E+03  0.00000000000E+00 0.  1.
          5    1    4    4  501    0  0.59712651365E+02  0.33747028811E+02 -0.23247152982E+03  0.24241482476E+03  0.41800000000E+01 0. -1.
         -5    1    4    4    0  501  0.24683755798E+02 -0.17761518271E+02  0.49008783732E+01  0.31084567560E+02  0.41800000000E+01 0. -1.
</event>
<event>
11    1  0.8864208E-009  0.1307752E+03  0.7561462E-02  0.1118320E+00
         22   -1    0    0    0    0  0.00000000000E+00  0.00000000000E+00  0.67216461310E+03  0.67216461310E+03  0.00000000000E+00 0. -1.
         22   -1    0    0    0    0 -0.00000000000E+00 -0.00000000000E+00 -0.11772251965E+04  0.11772251965E+04  0.00000000000E+00 0. -1.
        -24    2    1    2    0    0 -0.61509052815E+01  0.39019464415E+02 -0.10510532161E+04  0.10550008169E+04  0.82179731673E+02 0.  0.
         25    2    1    2    0    0 -0.48196292179E+01 -0.16456749907E+02 -0.88648540893E+02  0.15427237202E+03  0.12508935815E+03 0.  0.
         24    2    1    2    0    0  0.10970534499E+02 -0.22562714508E+02  0.63464117363E+03  0.64011662066E+03  0.79689648458E+02 0.  0.
        -13    1    5    5    0    0 -0.13137049245E+01  0.10778608629E+02  0.10973870476E+02  0.15437942150E+02  0.00000000000E+00 0.  1.
         14    1    5    5    0    0  0.12284239424E+02 -0.33341323137E+02  0.62366730315E+03  0.62467867851E+03  0.00000000000E+00 0. -1.
         11    1    3    3    0    0  0.26827379729E+02  0.36961070475E+02 -0.32467453590E+03  0.32787098575E+03  0.00000000000E+00 0. -1.
        -12    1    3    3    0    0 -0.32978285010E+02  0.20583939391E+01 -0.72637868021E+03  0.72712983114E+03  0.00000000000E+00 0.  1.
          5    1    4    4  501    0  0.55532733431E+02  0.87633824959E+01 -0.61215471769E+02  0.83219515373E+02  0.41800000000E+01 0. -1.
         -5    1    4    4    0  501 -0.60352362649E+02 -0.25220132403E+02 -0.27433069125E+02  0.71052856644E+02  0.41800000000E+01 0. -1.
</event>
<event>
11    1  0.8864208E-009  0.1384138E+03  0.7561462E-02  0.1109343E+00
         22   -1    0    0    0    0  0.00000000000E+00  0.00000000000E+00  0.12407506449E+04  0.12407506449E+04  0.00000000000E+00 0. -1.
         22   -1    0    0    0    0 -0.00000000000E+00 -0.00000000000E+00 -0.36774044883E+03  0.36774044883E+03  0.00000000000E+00 0.  1.
        -24    2    1    2    0    0 -0.58580211568E+02 -0.90488091943E+01 -0.34695802246E+03  0.36112144487E+03  0.80717448308E+02 0.  0.
         25    2    1    2    0    0  0.63999861904E+02 -0.39252969117E+02  0.48668081149E+03  0.50807748737E+03  0.12509093887E+03 0.  0.
         24    2    1    2    0    0 -0.54196503357E+01  0.48301778311E+02  0.73328740705E+03  0.73929216150E+03  0.80498722439E+02 0.  0.
        -11    1    5    5    0    0  0.21983882483E+02  0.57609695636E+02  0.39680249538E+03  0.40156492434E+03  0.00000000000E+00 0.  1.
         12    1    5    5    0    0 -0.27403532819E+02 -0.93079173249E+01  0.33648491167E+03  0.33772723715E+03  0.00000000000E+00 0. -1.
         11    1    3    3    0    0 -0.22003808418E+02 -0.40914456370E+02 -0.11280947688E+03  0.12200056720E+03  0.00000000000E+00 0. -1.
        -12    1    3    3    0    0 -0.36576403149E+02  0.31865647176E+02 -0.23414854559E+03  0.23912087767E+03  0.00000000000E+00 0.  1.
          5    1    4    4  501    0  0.73149461024E+02 -0.77245481178E+02  0.34598803743E+03  0.36199848405E+03  0.41800000000E+01 0.  1.
         -5    1    4    4    0  501 -0.91495991204E+01  0.37992512061E+02  0.14069277407E+03  0.14607900332E+03  0.41800000000E+01 0.  1.
</event>
<event>
11    1  0.8864208E-009  0.1412601E+03  0.7561462E-02  0.1106159E+00
         22   -1    0    0    0    0  0.00000000000E+00  0.00000000000E+00  0.32915121513E+03  0.32915121513E+03  0.00000000000E+00 0. -1.
         22   -1    0    0    0    0 -0.00000000000E+00 -0.00000000000E+00 -0.38381618399E+03  0.38381618399E+03  0.00000000000E+00 0. -1.
         24    2    1    2    0    0 -0.12039036026E+02  0.78359837820E+01 -0.27493531127E+03  0.28680728222E+03  0.80390613384E+02 0.  0.
         25    2    1    2    0    0 -0.54064684239E+02 -0.16741751386E+02 -0.42057809480E+02  0.14359076934E+03  0.12508466485E+03 0.  0.
        -24    2    1    2    0    0  0.66103720265E+02  0.89057676042E+01  0.26232815189E+03  0.28256934756E+03  0.81119432777E+02 0.  0.
        -13    1    3    3    0    0 -0.15945718084E+02  0.28130575587E+02 -0.42240024016E+02  0.53196003956E+02  0.00000000000E+00 0.  1.
         14    1    3    3    0    0  0.39066820578E+01 -0.20294591805E+02 -0.23269528725E+03  0.23361127826E+03  0.00000000000E+00 0. -1.
         11    1    5    5    0    0  0.62933647283E+02  0.38208434027E+01  0.26739153943E+03  0.27472436762E+03  0.00000000000E+00 0. -1.
        -12    1    5    5    0    0  0.31700729826E+01  0.50849242015E+01 -0.50633875389E+01  0.78449799374E+01  0.00000000000E+00 0.  1.
          5    1    4    4  501    0  0.35452220147E+02  0.18546177082E+02 -0.19341447449E+02  0.44636135441E+02  0.41800000000E+01 0.  1.
         -5    1    4    4    0  501 -0.89516904387E+02 -0.35287928468E+02 -0.22716362032E+02  0.98954633901E+02  0.41800000000E+01 0.  1.
</event>
<event>
11    1  0.8864208E-009  0.5078762E+03  0.7561462E-02  0.9376092E-01
         22   -1    0    0    0    0  0.00000000000E+00  0.00000000000E+00  0.13235014718E+04  0.13235014718E+04  0.00000000000E+00 0. -1.
         22   -1    0    0    0    0 -0.00000000000E+00 -0.00000000000E+00 -0.35021741488E+03  0.35021741488E+03  0.00000000000E+00 0.  1.
         24    2    1    2    0    0  0.38674429157E+03  0.79100679821E+02 -0.15857811757E+03  0.43313426669E+03  0.81426095342E+02 0.  0.
         25    2    1    2    0    0 -0.88249125606E+02 -0.72740970770E+02  0.21984871931E+03  0.27759609676E+03  0.12508787534E+03 0.  0.
        -24    2    1    2    0    0 -0.29849516596E+03 -0.63597090512E+01  0.91201345516E+03  0.96298852321E+03  0.80240534781E+02 0.  0.
        -13    1    3    3    0    0  0.35538240377E+03  0.76688042726E+02 -0.16771098083E+03  0.40038067123E+03  0.00000000000E+00 0.  1.
         14    1    3    3    0    0  0.31361887801E+02  0.24126370943E+01  0.91328632630E+01  0.32753595460E+02  0.00000000000E+00 0. -1.
         11    1    5    5    0    0 -0.15203785287E+03  0.52896442459E+01  0.58553660071E+03  0.60497652832E+03  0.00000000000E+00 0. -1.
        -12    1    5    5    0    0 -0.14645731309E+03 -0.11649353297E+02  0.32647685445E+03  0.35801199489E+03  0.00000000000E+00 0.  1.
          5    1    4    4  501    0 -0.13237813801E+02 -0.10454179798E+02  0.16447523713E+03  0.16539076642E+03  0.41800000000E+01 0. -1.
         -5    1    4    4    0  501 -0.75011311805E+02 -0.62286790972E+02  0.55373482183E+02  0.11220533034E+03  0.41800000000E+01 0. -1.
</event>
<event>
11    1  0.8864208E-009  0.1333927E+03  0.7561462E-02  0.1115169E+00
         22   -1    0    0    0    0  0.00000000000E+00  0.00000000000E+00  0.69157579862E+03  0.69157579862E+03  0.00000000000E+00 0. -1.
         22   -1    0    0    0    0 -0.00000000000E+00 -0.00000000000E+00 -0.30700356577E+03  0.30700356577E+03  0.00000000000E+00 0. -1.
         24    2    1    2    0    0  0.95938548414E+02  0.73556981274E+01 -0.24282776952E+03  0.27690726954E+03  0.91945630193E+02 0.  0.
         25    2    1    2    0    0  0.14739320366E+02 -0.10135622013E+01  0.61137337365E+02  0.14001334524E+03  0.12509071888E+03 0.  0.
        -24    2    1    2    0    0 -0.11067786878E+03 -0.63421359261E+01  0.56626266500E+03  0.58165874961E+03  0.73373577638E+02 0.  0.
        -13    1    3    3    0    0  0.10618023472E+03 -0.16192700330E+02 -0.19564618791E+03  0.22319022522E+03  0.00000000000E+00 0.  1.
         14    1    3    3    0    0 -0.10241686306E+02  0.23548398457E+02 -0.47181581610E+02  0.53717044329E+02  0.00000000000E+00 0. -1.
         13    1    5    5    0    0 -0.11457098718E+03  0.11618964482E+01  0.42592992494E+03  0.44107160651E+03  0.00000000000E+00 0. -1.
        -14    1    5    5    0    0  0.38931183955E+01 -0.75040323744E+01  0.14033274006E+03  0.14058714310E+03  0.00000000000E+00 0.  1.
          5    1    4    4  501    0  0.27294164491E+02  0.44712792937E+02  0.73946089952E+02  0.90717704373E+02  0.41800000000E+01 0. -1.
         -5    1    4    4    0  501 -0.12554844124E+02 -0.45726355138E+02 -0.12808752587E+02  0.49295640863E+02  0.41800000000E+01 0. -1.
</event>
<event>
11    1  0.8864208E-009  0.1477729E+03  0.7561462E-02  0.1099176E+00
         22   -1    0    0    0    0  0.00000000000E+00  0.00000000000E+00  0.83468058344E+03  0.83468058344E+03  0.00000000000E+00 0.  1.
         22   -1    0    0    0    0 -0.00000000000E+00 -0.00000000000E+00 -0.67800972423E+03  0.67800972423E+03  0.00000000000E+00 0. -1.
         24    2    1    2    0    0 -0.74581748363E+02 -0.18259181968E+02 -0.57091950554E+03  0.58199464881E+03  0.82902681081E+02 0.  0.
         25    2    1    2    0    0  0.10008294359E+03  0.15906744646E+02 -0.33929967672E+02  0.16452112901E+03  0.12508532712E+03 0.  0.
        -24    2    1    2    0    0 -0.25501195231E+02  0.23524373227E+01  0.76152033242E+03  0.76617452984E+03  0.80338960464E+02 0.  0.
        -11    1    3    3    0    0 -0.45157378308E+02 -0.70309223155E+01 -0.99157388992E+02  0.10918246414E+03  0.00000000000E+00 0.  1.
         12    1    3    3    0    0 -0.29424370055E+02 -0.11228259653E+02 -0.47176211654E+03  0.47281218467E+03  0.00000000000E+00 0. -1.
         13    1    5    5    0    0 -0.29530894999E+02  0.17803394078E+02  0.13131526173E+03  0.13576719988E+03  0.00000000000E+00 0. -1.
        -14    1    5    5    0    0  0.40296997679E+01 -0.15450956756E+02  0.63020507068E+03  0.63040732995E+03  0.00000000000E+00 0.  1.
          5    1    4    4  501    0  0.76236472762E+02 -0.18580513573E+02 -0.72855140163E+02  0.10715679685E+03  0.41800000000E+01 0. -1.
         -5    1    4    4    0  501  0.23846470832E+02  0.34487258219E+02  0.38925172491E+02  0.57364332159E+02  0.41800000000E+01 0. -1.
</event>
<event>
11    1  0.8864208E-009  0.1299279E+03  0.7561462E-02  0.1119358E+00
         22   -1    0    0    0    0  0.00000000000E+00  0.00000000000E+00  0.27834086724E+03  0.27834086724E+03  0.00000000000E+00 0. -1.
         22   -1    0    0    0    0 -0.00000000000E+00 -0.00000000000E+00 -0.30548850125E+04  0.30548850125E+04  0.00000000000E+00 0. -1.
         24    2    1    2    0    0 -0.26368865285E+02  0.23241422844E+02 -0.29661047405E+04  0.29673957036E+04  0.80152660400E+02 0.  0.
         25    2    1    2    0    0  0.13456849316E+02 -0.31584513000E+02 -0.28917694533E+02  0.13290688795E+03  0.12509732032E+03 0.  0.
        -24    2    1    2    0    0  0.12912015968E+02  0.83430901566E+01  0.21847828974E+03  0.23292328827E+03  0.79272743242E+02 0.  0.
        -13    1    3    3    0    0  0.23148600081E+02  0.12326545871E+02 -0.43923354584E+03  0.44001580564E+03  0.00000000000E+00 0.  1.
         14    1    3    3    0    0 -0.49517465366E+02  0.10914876973E+02 -0.25268711947E+04  0.25273798979E+04  0.00000000000E+00 0. -1.
         11    1    5    5    0    0 -0.18491168056E+02 -0.26634023448E+02  0.11046114917E+03  0.11512150093E+03  0.00000000000E+00 0. -1.
        -12    1    5    5    0    0  0.31403184024E+02  0.34977113604E+02  0.10801714057E+03  0.11780178734E+03  0.00000000000E+00 0.  1.
          5    1    4    4  501    0 -0.36720940635E+02  0.46629790036E+01  0.29632647611E+02  0.47599759020E+02  0.41800000000E+01 0.  1.
         -5    1    4    4    0  501  0.50177789951E+02 -0.36247492004E+02 -0.58550342144E+02  0.85307128929E+02  0.41800000000E+01 0.  1.
</event>
<event>
11    1  0.8864208E-009  0.1435802E+03  0.7561462E-02  0.1103625E+00
         22   -1    0    0    0    0  0.00000000000E+00  0.00000000000E+00  0.19070385679E+04  0.19070385679E+04  0.00000000000E+00 0. -1.
         22   -1    0    0    0    0 -0.00000000000E+00 -0.00000000000E+00 -0.23381577612E+04  0.23381577612E+04  0.00000000000E+00 0.  1.
        -24    2    1    2    0    0  0.38213712251E+02  0.59590125045E+02 -0.22694294866E+04  0.22719195226E+04  0.79352704591E+02 0.  0.
         25    2    1    2    0    0 -0.64772177845E+02 -0.16301680036E+02  0.96716945547E+01  0.14215672661E+03  0.12511520072E+03 0.  0.
         24    2    1    2    0    0  0.26558465593E+02 -0.43288445009E+02  0.18286385987E+04  0.18311200800E+04  0.80637342472E+02 0.  0.
        -13    1    5    5    0    0  0.20778275631E+02 -0.55743604559E+02  0.73762732894E+03  0.74002240681E+03  0.00000000000E+00 0.  1.
         14    1    5    5    0    0  0.57801899623E+01  0.12455159550E+02  0.10910112698E+04  0.10910976732E+04  0.00000000000E+00 0. -1.
         11    1    3    3    0    0 -0.17836438156E+02  0.19350086806E+02 -0.26516779552E+03  0.26647049399E+03  0.00000000000E+00 0. -1.
        -12    1    3    3    0    0  0.56050150408E+02  0.40240038238E+02 -0.20042616911E+04  0.20054490286E+04  0.00000000000E+00 0.  1.
          5    1    4    4  501    0 -0.40378011112E+01  0.50801287948E+02  0.10394497803E+01  0.51143206301E+02  0.41800000000E+01 0.  1.
         -5    1    4    4    0  501 -0.60734376734E+02 -0.67102967984E+02  0.86322447744E+01  0.91013520310E+02  0.41800000000E+01 0.  1.
</event>
<event>
11    1  0.8864208E-009  0.2060938E+03  0.7561462E-02  0.1050296E+00
         22   -1    0    0    0    0  0.00000000000E+00  0.00000000000E+00  0.55046194648E+03  0.55046194648E+03  0.00000000000E+00 0.  1.
         22   -1    0    0    0    0 -0.00000000000E+00 -0.00000000000E+00 -0.59664749071E+03  0.59664749071E+03  0.00000000000E+00 0.  1.
        -24    2    1    2    0    0  0.15411891881E+02  0.96178660422E+02 -0.45864433767E+03  0.47533265534E+03  0.78093812935E+02 0.  0.
         25    2    1    2    0    0 -0.61766988782E+02 -0.23813403920E+03  0.62609469613E+02  0.28300246579E+03  0.12508984144E+03 0.  0.
         24    2    1    2    0    0  0.46355096901E+02  0.14195537877E+03  0.34984932383E+03  0.38877431607E+03  0.80316840615E+02 0.  0.
        -11    1    5    5    0    0  0.36459539309E+02  0.30355514967E+02  0.17329563295E+03  0.17967228972E+03  0.00000000000E+00 0.  1.
         12    1    5    5    0    0  0.98955575914E+01  0.11159986381E+03  0.17655369088E+03  0.20910202635E+03  0.00000000000E+00 0. -1.
         11    1    3    3    0    0  0.26830116767E+01 -0.55601391180E+01 -0.89195897101E+00  0.62377311160E+01  0.00000000000E+00 0. -1.
        -12    1    3    3    0    0  0.12728880204E+02  0.10173879954E+03 -0.45775237870E+03  0.46909492422E+03  0.00000000000E+00 0.  1.
          5    1    4    4  501    0 -0.25181468458E+02 -0.11669536241E+02 -0.24823044687E+02  0.37469192376E+02  0.41800000000E+01 0.  1.
         -5    1    4    4    0  501 -0.36585520324E+02 -0.22646450295E+03  0.87432514300E+02  0.24553327341E+03  0.41800000000E+01 0.  1.
</event>
<event>
11    1  0.8864208E-009  0.2085984E+03  0.7561462E-02  0.1048604E+00
         22   -1    0    0    0    0  0.00000000000E+00  0.00000000000E+00  0.25998849990E+03  0.25998849990E+03  0.00000000000E+00 0.  1.
         22   -1    0    0    0    0 -0.00000000000E+00 -0.00000000000E+00 -0.69197764866E+03  0.69197764866E+03  0.00000000000E+00 0.  1.
        -24    2    1    2    0    0 -0.54546104224E+02 -0.11989915593E+03 -0.23908900137E+03  0.28458270679E+03  0.80452975994E+02 0.  0.
         25    2    1    2    0    0  0.19119606563E+02  0.27216266517E+03 -0.32909748168E+03  0.44540948123E+03  0.12508548221E+03 0.  0.
         24    2    1    2    0    0  0.35426497660E+02 -0.15226350924E+03  0.13619733428E+03  0.22197396054E+03  0.79268608603E+02 0.  0.
        -11    1    5    5    0    0  0.57609333865E+01 -0.10387582264E+03  0.12749209136E+03  0.16455275215E+03  0.00000000000E+00 0.  1.
         12    1    5    5    0    0  0.29665564274E+02 -0.48387686596E+02  0.87052429237E+01  0.57421208383E+02  0.00000000000E+00 0. -1.
         13    1    3    3    0    0 -0.11898113825E+02  0.70022078473E+01 -0.56562587315E+02  0.58223039349E+02  0.00000000000E+00 0. -1.
        -14    1    3    3    0    0 -0.42647990398E+02 -0.12690136378E+03 -0.18252641406E+03  0.22635966744E+03  0.00000000000E+00 0.  1.
          5    1    4    4  501    0  0.63036684674E+02  0.12173861924E+03 -0.19905447518E+03  0.24173140367E+03  0.41800000000E+01 0.  1.
         -5    1    4    4    0  501 -0.43917078111E+02  0.15042404593E+03 -0.13004300649E+03  0.20367807756E+03  0.41800000000E+01 0.  1.
</event>
<event>
11    1  0.8864208E-009  0.2031345E+03  0.7561462E-02  0.1052329E+00
         22   -1    0    0    0    0  0.00000000000E+00  0.00000000000E+00  0.82264122247E+03  0.82264122247E+03  0.00000000000E+00 0. -1.
         22   -1    0    0    0    0 -0.00000000000E+00 -0.00000000000E+00 -0.77356016100E+03  0.77356016100E+03  0.00000000000E+00 0.  1.
         24    2    1    2    0    0 -0.49401423912E+02  0.16283498179E+03 -0.45628202580E+03  0.49348819640E+03  0.79884797943E+02 0.  0.
         25    2    1    2    0    0  0.16532469249E+03 -0.74365503094E+02 -0.24777656002E+03  0.33149854869E+03  0.12504232120E+03 0.  0.
        -24    2    1    2    0    0 -0.11592326858E+03 -0.88469478698E+02  0.75313964729E+03  0.77121463838E+03  0.79294623280E+02 0.  0.
        -13    1    3    3    0    0 -0.26182919174E+02  0.80762036268E+01 -0.11209940276E+03  0.11539950789E+03  0.00000000000E+00 0.  1.
         14    1    3    3    0    0 -0.23218504738E+02  0.15475877817E+03 -0.34418262303E+03  0.37808868851E+03  0.00000000000E+00 0. -1.
         11    1    5    5    0    0 -0.34670996699E+02 -0.70224259508E+02  0.45375154134E+03  0.46046062362E+03  0.00000000000E+00 0. -1.
        -12    1    5    5    0    0 -0.81252271882E+02 -0.18245219190E+02  0.29938810595E+03  0.31075401477E+03  0.00000000000E+00 0.  1.
          5    1    4    4  501    0  0.53394681866E+02  0.10184967491E+02 -0.10045256568E+02  0.55435595008E+02  0.41800000000E+01 0.  1.
         -5    1    4    4    0  501  0.11193001063E+03 -0.84550470585E+02 -0.23773130345E+03  0.27606295368E+03  0.41800000000E+01 0.  1.
</event>
<event>
11    1  0.8864208E-009  0.1774205E+03  0.7561462E-02  0.1071749E+00
         22   -1    0    0    0    0  0.00000000000E+00  0.00000000000E+00  0.74023917290E+02  0.74023917290E+02  0.00000000000E+00 0. -1.
         22   -1    0    0    0    0 -0.00000000000E+00 -0.00000000000E+00 -0.77433541136E+03  0.77433541136E+03  0.00000000000E+00 0. -1.
        -24    2    1    2    0    0 -0.95253378789E+02  0.74699723256E+02 -0.38133753723E+03  0.40587248288E+03  0.68270786054E+02 0.  0.
         25    2    1    2    0    0  0.13998394833E+03 -0.38532372973E+02 -0.27434677482E+03  0.33465317871E+03  0.12508536128E+03 0.  0.
         24    2    1    2    0    0 -0.44730569539E+02 -0.36167350283E+02 -0.44627182015E+02  0.10783366707E+03  0.79546296589E+02 0.  0.
        -11    1    5    5    0    0  0.28607118580E+01  0.22334345586E+02 -0.13454030096E+02  0.26230089419E+02  0.00000000000E+00 0.  1.
         12    1    5    5    0    0 -0.47591281397E+02 -0.58501695869E+02 -0.31173151919E+02  0.81603577649E+02  0.00000000000E+00 0. -1.
         13    1    3    3    0    0 -0.98637357575E+02  0.78783917214E+02 -0.31545121484E+03  0.33977301668E+03  0.00000000000E+00 0. -1.
        -14    1    3    3    0    0  0.33839787865E+01 -0.40841939587E+01 -0.65886322398E+02  0.66099466199E+02  0.00000000000E+00 0.  1.
          5    1    4    4  501    0  0.12952335989E+03 -0.76735745499E+02 -0.20066962514E+03  0.25089927511E+03  0.41800000000E+01 0. -1.
         -5    1    4    4    0  501  0.10460588433E+02  0.38203372526E+02 -0.73677149683E+02  0.83753903600E+02  0.41800000000E+01 0. -1.
</event>
<event>
11    1  0.8864208E-009  0.1920852E+03  0.7561462E-02  0.1060266E+00
         22   -1    0    0    0    0  0.00000000000E+00  0.00000000000E+00  0.15783693301E+03  0.15783693301E+03  0.00000000000E+00 0.  1.
         22   -1    0    0    0    0 -0.00000000000E+00 -0.00000000000E+00 -0.16977513928E+04  0.16977513928E+04  0.00000000000E+00 0.  1.
         24    2    1    2    0    0 -0.70530606325E+02 -0.50062914875E+02 -0.12574004190E+04  0.12629828298E+04  0.81172363823E+02 0.  0.
         25    2    1    2    0    0 -0.77160795573E+02  0.88113214120E+02 -0.36369049890E+03  0.40203946883E+03  0.12508888292E+03 0.  0.
        -24    2    1    2    0    0  0.14769140190E+03 -0.38050299245E+02  0.81176458170E+02  0.19056602717E+03  0.80406578603E+02 0.  0.
        -11    1    3    3    0    0 -0.25646350250E+02 -0.63182709554E+02 -0.58557072283E+03  0.58952765966E+03  0.00000000000E+00 0.  1.
         12    1    3    3    0    0 -0.44884256076E+02  0.13119794679E+02 -0.67182969621E+03  0.67345517013E+03  0.00000000000E+00 0. -1.
         11    1    5    5    0    0  0.38740031596E+02  0.16748139122E+02 -0.31072575149E+01  0.42319561215E+02  0.00000000000E+00 0. -1.
        -12    1    5    5    0    0  0.10895137030E+03 -0.54798438368E+02  0.84283715685E+02  0.14824646595E+03  0.00000000000E+00 0.  1.
          5    1    4    4  501    0  0.28556250095E+01 -0.28930619721E+02 -0.68922287478E+02  0.74919219582E+02  0.41800000000E+01 0.  1.
         -5    1    4    4    0  501 -0.80016420582E+02  0.11704383384E+03 -0.29476821142E+03  0.32712024925E+03  0.41800000000E+01 0.  1.
</event>
<event>
11    1  0.1217734E-008  0.1653496E+03  0.7561462E-02  0.1082151E+00
         22   -1    0    0    0    0  0.00000000000E+00  0.00000000000E+00  0.88792858855E+03  0.88792858855E+03  0.00000000000E+00 0. -1.
         22   -1    0    0    0    0 -0.00000000000E+00 -0.00000000000E+00 -0.23592476138E+03  0.23592476138E+03  0.00000000000E+00 0. -1.
        -24    2    1    2    0    0 -0.25854448986E+02 -0.30309618252E+02 -0.10179411778E+03  0.13446505371E+03  0.78305062176E+02 0.  0.
         25    2    1    2    0    0  0.13036525786E+03  0.51444309093E+02 -0.33489876119E+02  0.19081569985E+03  0.12508973624E+03 0.  0.
         24    2    1    2    0    0 -0.10451080887E+03 -0.21134690841E+02  0.78728782107E+03  0.79857259637E+03  0.80789195666E+02 0.  0.
        -13    1    5    5    0    0  0.12798568422E+02 -0.91170480198E+00  0.44741042309E+02  0.46544553131E+02  0.00000000000E+00 0.  1.
         14    1    5    5    0    0 -0.11730937730E+03 -0.20222986039E+02  0.74254677876E+03  0.75202804324E+03  0.00000000000E+00 0. -1.
         13    1    3    3    0    0 -0.43248022171E+02 -0.34380917700E+02 -0.10265755321E+03  0.11658049646E+03  0.00000000000E+00 0. -1.
        -14    1    3    3    0    0  0.17393573185E+02  0.40712994484E+01  0.86343542355E+00  0.17884557251E+02  0.00000000000E+00 0.  1.
          5    1    4    4  501    0 -0.13510753108E+02  0.34841374713E+02 -0.26029615398E+02  0.45732648286E+02  0.41800000000E+01 0. -1.
         -5    1    4    4    0  501  0.14387601097E+03  0.16602934380E+02 -0.74602607201E+01  0.14508305157E+03  0.41800000000E+01 0. -1.
</event>
<event>
11    1  0.8864208E-009  0.1296278E+03  0.7561462E-02  0.1119727E+00
         22   -1    0    0    0    0  0.00000000000E+00  0.00000000000E+00  0.50840329913E+03  0.50840329913E+03  0.00000000000E+00 0.  1.
         22   -1    0    0    0    0 -0.00000000000E+00 -0.00000000000E+00 -0.87260777222E+03  0.87260777222E+03  0.00000000000E+00 0.  1.
        -24    2    1    2    0    0 -0.12949332947E+02  0.22967495962E+02 -0.83239552934E+03  0.83680163031E+03  0.81605515320E+02 0.  0.
         25    2    1    2    0    0 -0.16094711854E+02  0.10500146654E+01  0.89740234508E+02  0.15475902038E+03  0.12504760061E+03 0.  0.
         24    2    1    2    0    0  0.29044044802E+02 -0.24017510628E+02  0.37845082175E+03  0.38945042066E+03  0.83822480983E+02 0.  0.
        -11    1    5    5    0    0  0.23927271740E+02 -0.64858392453E+01  0.36712387584E+03  0.36795994436E+03  0.00000000000E+00 0.  1.
         12    1    5    5    0    0  0.51167730611E+01 -0.17531671382E+02  0.11326945907E+02  0.21490476300E+02  0.00000000000E+00 0. -1.
         13    1    3    3    0    0 -0.42090279666E+02 -0.72789762696E+01 -0.35454832995E+03  0.35711215802E+03  0.00000000000E+00 0. -1.
        -14    1    3    3    0    0  0.29140946719E+02  0.30246472232E+02 -0.47784719939E+03  0.47968947229E+03  0.00000000000E+00 0.  1.
          5    1    4    4  501    0 -0.30916775157E+02 -0.17342786836E+02  0.11470875852E+03  0.12013405397E+03  0.41800000000E+01 0.  1.
         -5    1    4    4    0  501  0.14822063303E+02  0.18392801501E+02 -0.24968524013E+02  0.34624966411E+02  0.41800000000E+01 0.  1.
</event>
<event>
11    1  0.8864208E-009  0.1909950E+03  0.7561462E-02  0.1061081E+00
         22   -1    0    0    0    0  0.00000000000E+00  0.00000000000E+00  0.51435848487E+03  0.51435848487E+03  0.00000000000E+00 0. -1.
         22   -1    0    0    0    0 -0.00000000000E+00 -0.00000000000E+00 -0.78647777455E+03  0.78647777455E+03  0.00000000000E+00 0. -1.
         24    2    1    2    0    0  0.74232849688E+02 -0.12503929449E+03 -0.72911243231E+03  0.74795531592E+03  0.81773311771E+02 0.  0.
         25    2    1    2    0    0 -0.55340998189E+02  0.11072685040E+03  0.13913572821E+03  0.22434091061E+03  0.12508809627E+03 0.  0.
        -24    2    1    2    0    0 -0.18891851499E+02  0.14312444095E+02  0.31785741442E+03  0.32854003289E+03  0.79645898828E+02 0.  0.
        -13    1    3    3    0    0  0.12049687003E+02  0.94812618018E+01 -0.35203270286E+02  0.38397389508E+02  0.00000000000E+00 0.  1.
         14    1    3    3    0    0  0.62183162685E+02 -0.13452055630E+03 -0.69390916202E+03  0.70955792641E+03  0.00000000000E+00 0. -1.
         11    1    5    5    0    0  0.25877204467E+02  0.61777663307E+01  0.20707444312E+03  0.20877648215E+03  0.00000000000E+00 0. -1.
        -12    1    5    5    0    0 -0.44769055965E+02  0.81346777644E+01  0.11078297130E+03  0.11976355074E+03  0.00000000000E+00 0.  1.
          5    1    4    4  501    0 -0.45771598370E+02  0.67034438672E+00  0.94561821718E+02  0.10514228029E+03  0.41800000000E+01 0.  1.
         -5    1    4    4    0  501 -0.95693998192E+01  0.11005650601E+03  0.44573906494E+02  0.11919863031E+03  0.41800000000E+01 0.  1.
</event>
<event>
11    1  0.8864208E-009  0.1348385E+03  0.7561462E-02  0.1113463E+00
         22   -1    0    0    0    0  0.00000000000E+00  0.00000000000E+00  0.74172660758E+03  0.74172660758E+03  0.00000000000E+00 0. -1.
         22   -1    0    0    0    0 -0.00000000000E+00 -0.00000000000E+00 -0.22816043853E+03  0.22816043853E+03  0.00000000000E+00 0. -1.
         24    2    1    2    0    0 -0.28112404668E+02 -0.19430165632E+02 -0.12280673801E+03  0.15079284705E+03  0.80555255493E+02 0.  0.
         25    2    1    2    0    0  0.28969718009E+02  0.68793100044E+02 -0.26034137695E+02  0.14797664978E+03  0.12509027691E+03 0.  0.
        -24    2    1    2    0    0 -0.85731334060E+00 -0.49362934412E+02  0.66240704476E+03  0.67111754929E+03  0.95803119690E+02 0.  0.
        -13    1    3    3    0    0 -0.30198644260E+02 -0.18613840224E+02 -0.85187491146E+01  0.36482903523E+02  0.00000000000E+00 0.  1.
         14    1    3    3    0    0  0.20862395917E+01 -0.81632540781E+00 -0.11428798890E+03  0.11430994353E+03  0.00000000000E+00 0. -1.
         11    1    5    5    0    0  0.42227166938E+02 -0.47147298895E+02  0.34050895300E+03  0.34634137566E+03  0.00000000000E+00 0. -1.
        -12    1    5    5    0    0 -0.43084480278E+02 -0.22156355171E+01  0.32189809176E+03  0.32477617363E+03  0.00000000000E+00 0.  1.
          5    1    4    4  501    0  0.46056833585E+02  0.46100990459E+02 -0.69832334113E+02  0.95606278710E+02  0.41800000000E+01 0. -1.
         -5    1    4    4    0  501 -0.17087115576E+02  0.22692109585E+02  0.43798196417E+02  0.52370371066E+02  0.41800000000E+01 0. -1.
</event>
<event>
11    1  0.8864208E-009  0.2302989E+03  0.7561462E-02  0.1034951E+00
         22   -1    0    0    0    0  0.00000000000E+00  0.00000000000E+00  0.24168281107E+03  0.24168281107E+03  0.00000000000E+00 0.  1.
         22   -1    0    0    0    0 -0.00000000000E+00 -0.00000000000E+00 -0.19448538810E+04  0.19448538810E+04  0.00000000000E+00 0. -1.
        -24    2    1    2    0    0  0.31146375850E+02  0.14109106098E+02 -0.13482825078E+04  0.13510993024E+04  0.80214964310E+02 0.  0.
         25    2    1    2    0    0  0.15853965235E+03  0.36291648350E+02 -0.52458438909E+03  0.56328331714E+03  0.12508960382E+03 0.  0.
         24    2    1    2    0    0 -0.18968602820E+03 -0.50400754449E+02  0.16969582695E+03  0.27215407255E+03  0.82159236715E+02 0.  0.
        -13    1    5    5    0    0 -0.18297891687E+03 -0.44941678632E+02  0.17869121997E+03  0.25967593379E+03  0.00000000000E+00 0.  1.
         14    1    5    5    0    0 -0.67071113306E+01 -0.54590758166E+01 -0.89953930217E+01  0.12478138755E+02  0.00000000000E+00 0. -1.
         11    1    3    3    0    0  0.11088675101E+02  0.15974160222E+02 -0.12735791126E+04  0.12737275567E+04  0.00000000000E+00 0. -1.
        -12    1    3    3    0    0  0.20057700749E+02 -0.18650541237E+01 -0.74703395187E+02  0.77371745738E+02  0.00000000000E+00 0.  1.
          5    1    4    4  501    0  0.32671353086E+02  0.51107770943E+02 -0.77163461929E+02  0.98239980762E+02  0.41800000000E+01 0.  1.
         -5    1    4    4    0  501  0.12586829926E+03 -0.14816122593E+02 -0.44742092716E+03  0.46504333638E+03  0.41800000000E+01 0.  1.
</event>
<event>
11    1  0.8864208E-009  0.1764505E+03  0.7561462E-02  0.1072551E+00
         22   -1    0    0    0    0  0.00000000000E+00  0.00000000000E+00  0.45302911525E+03  0.45302911525E+03  0.00000000000E+00 0.  1.
         22   -1    0    0    0    0 -0.00000000000E+00 -0.00000000000E+00 -0.22632872167E+03  0.22632872167E+03  0.00000000000E+00 0.  1.
        -24    2    1    2    0    0 -0.71044587714E+01 -0.12144401838E+03 -0.11107089725E+03  0.18048577741E+03  0.73751262332E+02 0.  0.
         25    2    1    2    0    0 -0.18337568700E+02  0.13431619268E+03  0.39711859727E+02  0.18868265303E+03  0.12508799187E+03 0.  0.
         24    2    1    2    0    0  0.25442027472E+02 -0.12872174302E+02  0.29805943111E+03  0.31018940647E+03  0.81025019496E+02 0.  0.
        -11    1    5    5    0    0  0.60249354438E+01  0.25048212094E+02  0.21784946438E+03  0.21936750422E+03  0.00000000000E+00 0.  1.
         12    1    5    5    0    0  0.19417092028E+02 -0.37920386395E+02  0.80209966726E+02  0.90821902256E+02  0.00000000000E+00 0. -1.
         13    1    3    3    0    0  0.28924997843E+02 -0.71521101111E+02 -0.41562695392E+02  0.87632077760E+02  0.00000000000E+00 0. -1.
        -14    1    3    3    0    0 -0.36029456614E+02 -0.49922917272E+02 -0.69508201860E+02  0.92853699650E+02  0.00000000000E+00 0.  1.
          5    1    4    4  501    0  0.13416495041E+02  0.28896206200E+02 -0.41009899477E+02  0.52098726732E+02  0.41800000000E+01 0.  1.
         -5    1    4    4    0  501 -0.31754063742E+02  0.10541998648E+03  0.80721759204E+02  0.13658392630E+03  0.41800000000E+01 0.  1.
</event>
<event>
11    1  0.8864208E-009  0.1705305E+03  0.7561462E-02  0.1077571E+00
         22   -1    0    0    0    0  0.00000000000E+00  0.00000000000E+00  0.10676582073E+03  0.10676582073E+03  0.00000000000E+00 0.  1.
         22   -1    0    0    0    0 -0.00000000000E+00 -0.00000000000E+00 -0.52649923767E+03  0.52649923767E+03  0.00000000000E+00 0.  1.
         24    2    1    2    0    0  0.94444222434E+02  0.90221018500E+02 -0.10915834131E+03  0.18869360853E+03  0.81425985361E+02 0.  0.
         25    2    1    2    0    0 -0.12484896422E+03  0.20686952728E+02 -0.17767416247E+03  0.25145723512E+03  0.12508964467E+03 0.  0.
        -24    2    1    2    0    0  0.30404741785E+02 -0.11090797123E+03 -0.13290091317E+03  0.19311421476E+03  0.80033872921E+02 0.  0.
        -11    1    3    3    0    0  0.75024626732E+02  0.96106611899E+02 -0.60781831871E+02  0.13623364692E+03  0.00000000000E+00 0.  1.
         12    1    3    3    0    0  0.19419595702E+02 -0.58855933986E+01 -0.48376509437E+02  0.52459961611E+02  0.00000000000E+00 0. -1.
         11    1    5    5    0    0  0.27897182178E+02 -0.40445272220E+02 -0.81323168642E+01  0.49801680654E+02  0.00000000000E+00 0. -1.
        -12    1    5    5    0    0  0.25075596071E+01 -0.70462699008E+02 -0.12476859631E+03  0.14331253410E+03  0.00000000000E+00 0.  1.
          5    1    4    4  501    0 -0.12082160120E+03 -0.31623950200E+02 -0.11771331366E+03  0.17167361520E+03  0.41800000000E+01 0. -1.
         -5    1    4    4    0  501 -0.40273630234E+01  0.52310902928E+02 -0.59960848804E+02  0.79783619919E+02  0.41800000000E+01 0. -1.
</event>
<event>
11    1  0.2222520E-008  0.1837317E+03  0.7561462E-02  0.1066664E+00
         22   -1    0    0    0    0  0.00000000000E+00  0.00000000000E+00  0.67037539856E+03  0.67037539856E+03  0.00000000000E+00 0. -1.
         22   -1    0    0    0    0 -0.00000000000E+00 -0.00000000000E+00 -0.41987685641E+03  0.41987685641E+03  0.00000000000E+00 0. -1.
         24    2    1    2    0    0  0.24423711236E+01  0.34947562318E+02 -0.18252280663E+03  0.20185414915E+03  0.78760556758E+02 0.  0.
         25    2    1    2    0    0 -0.51688069086E+02 -0.15863901587E+03 -0.16797618015E+03  0.26777098405E+03  0.12508920400E+03 0.  0.
        -24    2    1    2    0    0  0.49245697963E+02  0.12369145356E+03  0.60099752893E+03  0.62062712177E+03  0.79090328400E+02 0.  0.
        -11    1    3    3    0    0 -0.27531102530E+02 -0.10256425281E+02 -0.42253672779E+02  0.51463858477E+02  0.00000000000E+00 0.  1.
         12    1    3    3    0    0  0.29973473654E+02  0.45203987599E+02 -0.14026913385E+03  0.15039029067E+03  0.00000000000E+00 0. -1.
         13    1    5    5    0    0  0.31848845224E+02  0.13184669770E+03  0.52528328940E+03  0.54251307335E+03  0.00000000000E+00 0. -1.
        -14    1    5    5    0    0  0.17396852739E+02 -0.81552441480E+01  0.75714239531E+02  0.78114048417E+02  0.00000000000E+00 0.  1.
          5    1    4    4  501    0 -0.22775702328E+02 -0.13659428321E+03 -0.55079157183E+02  0.14909029740E+03  0.41800000000E+01 0. -1.
         -5    1    4    4    0  501 -0.28912366759E+02 -0.22044732665E+02 -0.11289702296E+03  0.11868068665E+03  0.41800000000E+01 0. -1.
</event>
<event>
11    1  0.8864208E-009  0.2073271E+03  0.7561462E-02  0.1049460E+00
         22   -1    0    0    0    0  0.00000000000E+00  0.00000000000E+00  0.17736422459E+04  0.17736422459E+04  0.00000000000E+00 0. -1.
         22   -1    0    0    0    0 -0.00000000000E+00 -0.00000000000E+00 -0.47863466585E+03  0.47863466585E+03  0.00000000000E+00 0. -1.
        -24    2    1    2    0    0  0.38604122865E+02 -0.42035315471E+02 -0.43648655150E+03  0.44829207654E+03  0.84782251645E+02 0.  0.
         25    2    1    2    0    0  0.10843739788E+03  0.12202283753E+03  0.31985326734E+03  0.38026370151E+03  0.12508448313E+03 0.  0.
         24    2    1    2    0    0 -0.14704152074E+03 -0.79987522058E+02  0.14116408642E+04  0.14237211337E+04  0.78947606408E+02 0.  0.
        -11    1    5    5    0    0 -0.23949074147E+02 -0.20937199645E+02  0.58651925901E+03  0.58738127794E+03  0.00000000000E+00 0.  1.
         12    1    5    5    0    0 -0.12309244659E+03 -0.59050322413E+02  0.82512160517E+03  0.83633985574E+03  0.00000000000E+00 0. -1.
         13    1    3    3    0    0  0.23219200836E+02 -0.17826516148E+02 -0.40357430855E+03  0.40463457401E+03  0.00000000000E+00 0. -1.
        -14    1    3    3    0    0  0.15384922029E+02 -0.24208799323E+02 -0.32912242957E+02  0.43657502528E+02  0.00000000000E+00 0.  1.
          5    1    4    4  501    0 -0.14820658220E+02 -0.13932747367E+02  0.47345236826E+02  0.51699296024E+02  0.41800000000E+01 0. -1.
         -5    1    4    4    0  501  0.12325805610E+03  0.13595558490E+03  0.27250803051E+03  0.32856440549E+03  0.41800000000E+01 0. -1.
</event>
<event>
11    1  0.8864208E-009  0.1395692E+03  0.7561462E-02  0.1108040E+00
         22   -1    0    0    0    0  0.00000000000E+00  0.00000000000E+00  0.26216085590E+03  0.26216085590E+03  0.00000000000E+00 0.  1.
         22   -1    0    0    0    0 -0.00000000000E+00 -0.00000000000E+00 -0.76084842811E+03  0.76084842811E+03  0.00000000000E+00 0.  1.
        -24    2    1    2    0    0  0.33516783140E+02 -0.24344070358E+02 -0.60644957076E+03  0.61460547321E+03  0.90789852474E+02 0.  0.
         25    2    1    2    0    0 -0.11205721144E+02  0.81143245222E+02 -0.98378707776E+02  0.17898370307E+03  0.12508797460E+03 0.  0.
         24    2    1    2    0    0 -0.22311061996E+02 -0.56799174865E+02  0.20614070633E+03  0.22942010773E+03  0.80097848093E+02 0.  0.
        -13    1    5    5    0    0 -0.17882900605E+02 -0.77025548642E+02  0.17485079909E+03  0.19189980516E+03  0.00000000000E+00 0.  1.
         14    1    5    5    0    0 -0.44281613916E+01  0.20226373777E+02  0.31289907244E+02  0.37520302569E+02  0.00000000000E+00 0. -1.
         13    1    3    3    0    0  0.48905355173E+02 -0.21668720684E+01 -0.15954158086E+03  0.16688302827E+03  0.00000000000E+00 0. -1.
        -14    1    3    3    0    0 -0.15388572033E+02 -0.22177198289E+02 -0.44690798990E+03  0.44772244495E+03  0.00000000000E+00 0.  1.
          5    1    4    4  501    0 -0.56598447877E+02  0.31875819532E+02 -0.90391219867E+02  0.11138894560E+03  0.41800000000E+01 0.  1.
         -5    1    4    4    0  501  0.45392726733E+02  0.49267425691E+02 -0.79874879095E+01  0.67594757471E+02  0.41800000000E+01 0.  1.
</event>
<event>
11    1  0.8864208E-009  0.1592335E+03  0.7561462E-02  0.1087800E+00
         22   -1    0    0    0    0  0.00000000000E+00  0.00000000000E+00  0.22758188774E+03  0.22758188774E+03  0.00000000000E+00 0. -1.
         22   -1    0    0    0    0 -0.00000000000E+00 -0.00000000000E+00 -0.98557928930E+03  0.98557928930E+03  0.00000000000E+00 0.  1.
        -24    2    1    2    0    0  0.96452035272E+02  0.45462845896E+02 -0.72491734243E+03  0.73714219205E+03  0.80644854005E+02 0.  0.
         25    2    1    2    0    0 -0.65364178052E+02 -0.26101790720E+02 -0.22051188692E+03  0.26311172930E+03  0.12509400695E+03 0.  0.
         24    2    1    2    0    0 -0.31087857220E+02 -0.19361055176E+02  0.18743182779E+03  0.21290725569E+03  0.94114314180E+02 0.  0.
        -11    1    5    5    0    0 -0.64241065005E+01  0.37984500098E+02  0.74484921715E+02  0.83857587342E+02  0.00000000000E+00 0.  1.
         12    1    5    5    0    0 -0.24663750720E+02 -0.57345555274E+02  0.11294690608E+03  0.12904966835E+03  0.00000000000E+00 0. -1.
         13    1    3    3    0    0 -0.69783264350E+01  0.23257623699E+02 -0.79923560135E+02  0.83530770166E+02  0.00000000000E+00 0. -1.
        -14    1    3    3    0    0  0.10343036171E+03  0.22205222198E+02 -0.64499378229E+03  0.65361142188E+03  0.00000000000E+00 0.  1.
          5    1    4    4  501    0 -0.10001451492E+03 -0.27154462315E+02 -0.13139847369E+03  0.16740161083E+03  0.41800000000E+01 0.  1.
         -5    1    4    4    0  501  0.34650336869E+02  0.10526715948E+01 -0.89113413224E+02  0.95710118477E+02  0.41800000000E+01 0.  1.
</event>
<event>
11    1  0.8864208E-009  0.1329843E+03  0.7561462E-02  0.1115656E+00
         22   -1    0    0    0    0  0.00000000000E+00  0.00000000000E+00  0.50791688306E+03  0.50791688306E+03  0.00000000000E+00 0.  1.
         22   -1    0    0    0    0 -0.00000000000E+00 -0.00000000000E+00 -0.12382832693E+04  0.12382832693E+04  0.00000000000E+00 0. -1.
        -24    2    1    2    0    0  0.39720689966E+02  0.21003039771E+02 -0.12028180534E+04  0.12069448399E+04  0.89026490510E+02 0.  0.
         25    2    1    2    0    0 -0.55121603877E+02 -0.25685860729E+02  0.14141570232E+03  0.19835681735E+03  0.12509544944E+03 0.  0.
         24    2    1    2    0    0  0.15400913911E+02  0.46828209577E+01  0.33103596485E+03  0.34089849512E+03  0.79798853294E+02 0.  0.
        -13    1    5    5    0    0  0.44642209801E+02  0.18824851938E+02  0.21583662451E+03  0.22120748275E+03  0.00000000000E+00 0.  1.
         14    1    5    5    0    0 -0.29241295890E+02 -0.14142030981E+02  0.11519934035E+03  0.11969101237E+03  0.00000000000E+00 0. -1.
         13    1    3    3    0    0  0.55709746896E+02  0.35180602300E+02 -0.10977562132E+04  0.10997317647E+04  0.00000000000E+00 0. -1.
        -14    1    3    3    0    0 -0.15989056930E+02 -0.14177562529E+02 -0.10506184026E+03  0.10721307523E+03  0.00000000000E+00 0.  1.
          5    1    4    4  501    0  0.12660726941E+02 -0.38718075852E+02  0.11870980226E+03  0.12557417313E+03  0.41800000000E+01 0. -1.
         -5    1    4    4    0  501 -0.67782330817E+02  0.13032215122E+02  0.22705900063E+02  0.72782644220E+02  0.41800000000E+01 0. -1.
</event>
<event>
11    1  0.8864208E-009  0.1980246E+03  0.7561462E-02  0.1055929E+00
         22   -1    0    0    0    0  0.00000000000E+00  0.00000000000E+00  0.31242699557E+03  0.31242699557E+03  0.00000000000E+00 0. -1.
         22   -1    0    0    0    0 -0.00000000000E+00 -0.00000000000E+00 -0.29336827238E+03  0.29336827238E+03  0.00000000000E+00 0.  1.
         24    2    1    2    0    0 -0.39336205676E+02 -0.13899628262E+03 -0.12486662653E+03  0.20670865108E+03  0.79180100720E+02 0.  0.
         25    2    1    2    0    0  0.68142264890E+02  0.16290733958E+03 -0.16274732274E+02  0.21701245214E+03  0.12508943967E+03 0.  0.
        -24    2    1    2    0    0 -0.28806059214E+02 -0.23911056962E+02  0.16020008199E+03  0.18207416474E+03  0.78009021932E+02 0.  0.
        -11    1    3    3    0    0 -0.46593890533E+02 -0.14668702386E+03 -0.11947250432E+03  0.19483776043E+03  0.00000000000E+00 0.  1.
         12    1    3    3    0    0  0.72576848566E+01  0.76907412363E+01 -0.53941222139E+01  0.11870890645E+02  0.00000000000E+00 0. -1.
         11    1    5    5    0    0 -0.84544457622E+01 -0.21229378576E+02  0.15992040157E+03  0.16154472758E+03  0.00000000000E+00 0. -1.
        -12    1    5    5    0    0 -0.20351613452E+02 -0.26816783867E+01  0.27968041655E+00  0.20529437162E+02  0.00000000000E+00 0.  1.
          5    1    4    4  501    0  0.42623411217E+02  0.96474241478E+02 -0.70940359598E+02  0.12717720500E+03  0.41800000000E+01 0. -1.
         -5    1    4    4    0  501  0.25518853673E+02  0.66433098106E+02  0.54665627324E+02  0.89835247133E+02  0.41800000000E+01 0. -1.
</event>
<event>
11    1  0.8864208E-009  0.1289523E+03  0.7561462E-02  0.1120563E+00
         22   -1    0    0    0    0  0.00000000000E+00  0.00000000000E+00  0.10219692445E+04  0.10219692445E+04  0.00000000000E+00 0.  1.
         22   -1    0    0    0    0 -0.00000000000E+00 -0.00000000000E+00 -0.29411837335E+03  0.29411837335E+03  0.00000000000E+00 0. -1.
         24    2    1    2    0    0  0.31278549761E+02  0.55094015118E+01 -0.27055274069E+03  0.28472402125E+03  0.82826816908E+02 0.  0.
         25    2    1    2    0    0 -0.14873119817E+02  0.51164482330E+01  0.26888724468E+03  0.29697717096E+03  0.12509077498E+03 0.  0.
        -24    2    1    2    0    0 -0.16405429944E+02 -0.10625849745E+02  0.72951636715E+03  0.73438642562E+03  0.82141617830E+02 0.  0.
        -11    1    3    3    0    0  0.22519293590E+02  0.36661525971E+02 -0.74608108475E+02  0.86125233936E+02  0.00000000000E+00 0.  1.
         12    1    3    3    0    0  0.87592561713E+01 -0.31152124459E+02 -0.19594463222E+03  0.19859878731E+03  0.00000000000E+00 0. -1.
         11    1    5    5    0    0 -0.45442102244E+02  0.88174226031E+01  0.31268132027E+03  0.31608913243E+03  0.00000000000E+00 0. -1.
        -12    1    5    5    0    0  0.29036672300E+02 -0.19443272348E+02  0.41683504688E+03  0.41829729319E+03  0.00000000000E+00 0.  1.
          5    1    4    4  501    0  0.47363546377E+02  0.32869977953E+02  0.12332643064E+03  0.13620066766E+03  0.41800000000E+01 0. -1.
         -5    1    4    4    0  501 -0.62236666194E+02 -0.27753529720E+02  0.14556081403E+03  0.16077650330E+03  0.41800000000E+01 0. -1.
</event>
<event>
11    1  0.8864208E-009  0.1475662E+03  0.7561462E-02  0.1099392E+00
         22   -1    0    0    0    0  0.00000000000E+00  0.00000000000E+00  0.75432754126E+03  0.75432754126E+03  0.00000000000E+00 0. -1.
         22   -1    0    0    0    0 -0.00000000000E+00 -0.00000000000E+00 -0.26994143185E+03  0.26994143185E+03  0.00000000000E+00 0.  1.
         24    2    1    2    0    0  0.22225031959E+02 -0.60185287693E+02 -0.23451482219E+03  0.25679498883E+03  0.82645287564E+02 0.  0.
         25    2    1    2    0    0 -0.92067655082E+02  0.40764082609E+02  0.41064914383E+03  0.44092963877E+03  0.12509221990E+03 0.  0.
        -24    2    1    2    0    0  0.69842623123E+02  0.19421205084E+02  0.30825178778E+03  0.32654434550E+03  0.79729979934E+02 0.  0.
        -13    1    3    3    0    0  0.16963046703E+02  0.17738641722E+01 -0.15459965371E+03  0.15553759827E+03  0.00000000000E+00 0.  1.
         14    1    3    3    0    0  0.52619852567E+01 -0.61959151865E+02 -0.79915168485E+02  0.10125739056E+03  0.00000000000E+00 0. -1.
         13    1    5    5    0    0  0.82418026580E+02  0.11605472909E+02  0.19080743778E+03  0.20817035432E+03  0.00000000000E+00 0. -1.
        -14    1    5    5    0    0 -0.12575403457E+02  0.78157321748E+01  0.11744435000E+03  0.11837399118E+03  0.00000000000E+00 0.  1.
          5    1    4    4  501    0 -0.92193884585E+02  0.18929440747E+02  0.40777114033E+03  0.41851261794E+03  0.41800000000E+01 0.  1.
         -5    1    4    4    0  501  0.12622950253E+00  0.21834641862E+02  0.28780034931E+01  0.22417020838E+02  0.41800000000E+01 0.  1.
</event>
<event>
11    1  0.8864208E-009  0.1969717E+03  0.7561462E-02  0.1056686E+00
         22   -1    0    0    0    0  0.00000000000E+00  0.00000000000E+00  0.10430834598E+04  0.10430834598E+04  0.00000000000E+00 0. -1.
         22   -1    0    0    0    0 -0.00000000000E+00 -0.00000000000E+00 -0.38762805487E+03  0.38762805487E+03  0.00000000000E+00 0. -1.
         24    2    1    2    0    0  0.51092983173E+02 -0.22053847409E+02 -0.34149794323E+03  0.35493823440E+03  0.79141897205E+02 0.  0.
         25    2    1    2    0    0  0.96398913012E+02 -0.57293518751E+02  0.21901416414E+03  0.27602788206E+03  0.12509552294E+03 0.  0.
        -24    2    1    2    0    0 -0.14749189619E+03  0.79347366160E+02  0.77793918404E+03  0.79974539822E+03  0.79708619063E+02 0.  0.
        -11    1    3    3    0    0 -0.17400345456E+02  0.20195614533E+01 -0.13327859946E+03  0.13442483299E+03  0.00000000000E+00 0.  1.
         12    1    3    3    0    0  0.68493328629E+02 -0.24073408862E+02 -0.20821934377E+03  0.22051340141E+03  0.00000000000E+00 0. -1.
         13    1    5    5    0    0 -0.83589702855E+02  0.48368454532E+02  0.60710962389E+03  0.61474290662E+03  0.00000000000E+00 0. -1.
        -14    1    5    5    0    0 -0.63902193330E+02  0.30978911628E+02  0.17082956015E+03  0.18500249160E+03  0.00000000000E+00 0.  1.
          5    1    4    4  501    0  0.12247961883E+03 -0.33211824528E+02  0.13825950719E+03  0.18771639792E+03  0.41800000000E+01 0.  1.
         -5    1    4    4    0  501 -0.26080705819E+02 -0.24081694223E+02  0.80754656947E+02  0.88311484141E+02  0.41800000000E+01 0.  1.
</event>
<event>
11    1  0.8864208E-009  0.1425331E+03  0.7561462E-02  0.1104762E+00
         22   -1    0    0    0    0  0.00000000000E+00  0.00000000000E+00  0.27217872639E+04  0.27217872639E+04  0.00000000000E+00 0. -1.
         22   -1    0    0    0    0 -0.00000000000E+00 -0.00000000000E+00 -0.14367240056E+03  0.14367240056E+03  0.00000000000E+00 0. -1.
         24    2    1    2    0    0  0.63836524897E+01  0.69088755382E+02 -0.11543671633E+03  0.15698097820E+03  0.80643567014E+02 0.  0.
         25    2    1    2    0    0  0.10447877286E+02 -0.36096874230E+02  0.64699902849E+03  0.66005098973E+03  0.12508966268E+03 0.  0.
        -24    2    1    2    0    0 -0.16831529776E+02 -0.32991881151E+02  0.20465525512E+04  0.20484276965E+04  0.79416109926E+02 0.  0.
        -13    1    3    3    0    0 -0.12550800311E+02 -0.14595073925E+02 -0.31734266514E+02  0.37116067174E+02  0.00000000000E+00 0.  1.
         14    1    3    3    0    0  0.18934452800E+02  0.83683829307E+02 -0.83702449815E+02  0.11986491103E+03  0.00000000000E+00 0. -1.
         13    1    5    5    0    0 -0.30560834277E+02 -0.23440880840E+02  0.19537844184E+04  0.19541640139E+04  0.00000000000E+00 0. -1.
        -14    1    5    5    0    0  0.13729304501E+02 -0.95510003115E+01  0.92768132748E+02  0.94263682628E+02  0.00000000000E+00 0.  1.
          5    1    4    4  501    0 -0.32948862610E+02 -0.64505319331E+02  0.46980008725E+03  0.47536949644E+03  0.41800000000E+01 0. -1.
         -5    1    4    4    0  501  0.43396739896E+02  0.28408445100E+02  0.17719894124E+03  0.18468149329E+03  0.41800000000E+01 0. -1.
</event>
<event>
11    1  0.9993331E-009  0.1487317E+03  0.7561462E-02  0.1098182E+00
         22   -1    0    0    0    0  0.00000000000E+00  0.00000000000E+00  0.12630413456E+03  0.12630413456E+03  0.00000000000E+00 0. -1.
         22   -1    0    0    0    0 -0.00000000000E+00 -0.00000000000E+00 -0.21692263581E+04  0.21692263581E+04  0.00000000000E+00 0. -1.
        -24    2    1    2    0    0 -0.13429457451E+02 -0.55466163062E+02 -0.94366845979E+03  0.94877407068E+03  0.80032678530E+02 0.  0.
         25    2    1    2    0    0 -0.48086054512E+02  0.10645776973E+03 -0.11902401445E+04  0.12024829171E+04  0.12509212174E+03 0.  0.
         24    2    1    2    0    0  0.61515511963E+02 -0.50991606669E+02  0.90986380806E+02  0.14427350484E+03  0.78434817161E+02 0.  0.
        -13    1    5    5    0    0 -0.17695717560E+02 -0.11700386899E+02  0.30466254363E+02  0.37124521929E+02  0.00000000000E+00 0.  1.
         14    1    5    5    0    0  0.79211229523E+02 -0.39291219769E+02  0.60520126443E+02  0.10714898291E+03  0.00000000000E+00 0. -1.
         13    1    3    3    0    0  0.27236015048E+02 -0.34232897963E+02 -0.65732469072E+03  0.65877874954E+03  0.00000000000E+00 0. -1.
        -14    1    3    3    0    0 -0.40665472499E+02 -0.21233265099E+02 -0.28634376907E+03  0.28999532115E+03  0.00000000000E+00 0.  1.
          5    1    4    4  501    0 -0.82977900680E+02  0.10544338186E+03 -0.86609998199E+03  0.87644183492E+03  0.41800000000E+01 0.  1.
         -5    1    4    4    0  501  0.34891846168E+02  0.10143878707E+01 -0.32414016251E+03  0.32604108218E+03  0.41800000000E+01 0.  1.
</event>
<event>
11    1  0.8864208E-009  0.1351729E+03  0.7561462E-02  0.1113072E+00
         22   -1    0    0    0    0  0.00000000000E+00  0.00000000000E+00  0.13554173010E+03  0.13554173010E+03  0.00000000000E+00 0.  1.
         22   -1    0    0    0    0 -0.00000000000E+00 -0.00000000000E+00 -0.24812583216E+04  0.24812583216E+04  0.00000000000E+00 0. -1.
         24    2    1    2    0    0  0.18496608450E+02 -0.34113356621E+02 -0.17475574235E+04  0.17496293563E+04  0.75763385220E+02 0.  0.
         25    2    1    2    0    0 -0.58560191156E+02  0.64643066095E+02 -0.70671267491E+03  0.72297841005E+03  0.12508778732E+03 0.  0.
        -24    2    1    2    0    0  0.40063582705E+02 -0.30529709475E+02  0.10855350686E+03  0.14419228534E+03  0.80438780946E+02 0.  0.
        -11    1    3    3    0    0 -0.29263869460E+02 -0.13035437004E+02 -0.54683564995E+03  0.54777324207E+03  0.00000000000E+00 0.  1.
         12    1    3    3    0    0  0.47760477910E+02 -0.21077919617E+02 -0.12007217735E+04  0.12018561143E+04  0.00000000000E+00 0. -1.
         13    1    5    5    0    0  0.75529860287E+01  0.19711707348E+02  0.10259770262E+01  0.21134134318E+02  0.00000000000E+00 0. -1.
        -14    1    5    5    0    0  0.32510596677E+02 -0.50241416823E+02  0.10752752984E+03  0.12305815102E+03  0.00000000000E+00 0.  1.
          5    1    4    4  501    0 -0.20302754006E+02 -0.23639643593E+02 -0.48779254335E+02  0.58033805863E+02  0.41800000000E+01 0. -1.
         -5    1    4    4    0  501 -0.38257437150E+02  0.88282709688E+02 -0.65793342057E+03  0.66494460418E+03  0.41800000000E+01 0. -1.
</event>
<event>
11    1  0.8864208E-009  0.1704849E+03  0.7561462E-02  0.1077610E+00
         22   -1    0    0    0    0  0.00000000000E+00  0.00000000000E+00  0.58853553304E+03  0.58853553304E+03  0.00000000000E+00 0. -1.
         22   -1    0    0    0    0 -0.00000000000E+00 -0.00000000000E+00 -0.23365019571E+03  0.23365019571E+03  0.00000000000E+00 0.  1.
        -24    2    1    2    0    0 -0.13385796271E+02  0.19865569465E+02 -0.11986174340E+03  0.14939953416E+03  0.85904382211E+02 0.  0.
         25    2    1    2    0    0  0.67050766843E+02 -0.11971740701E+03  0.85405897914E+01  0.18586056654E+03  0.12507256152E+03 0.  0.
         24    2    1    2    0    0 -0.53664970572E+02  0.99851837544E+02  0.46620649094E+03  0.48692562805E+03  0.83052733416E+02 0.  0.
        -11    1    5    5    0    0 -0.45375923282E+02  0.27927370652E+02  0.96837871328E+02  0.11052821255E+03  0.00000000000E+00 0.  1.
         12    1    5    5    0    0 -0.82890472901E+01  0.71924466892E+02  0.36936861961E+03  0.37639741550E+03  0.00000000000E+00 0. -1.
         13    1    3    3    0    0 -0.48511927209E+02  0.19440121574E+02 -0.56595676003E+02  0.77035030672E+02  0.00000000000E+00 0. -1.
        -14    1    3    3    0    0  0.35126130938E+02  0.42544789100E+00 -0.63266067398E+02  0.72364503485E+02  0.00000000000E+00 0.  1.
          5    1    4    4  501    0  0.90865703015E+02 -0.11026868204E+03  0.36679808027E+02  0.14757587519E+03  0.41800000000E+01 0. -1.
         -5    1    4    4    0  501 -0.23814936171E+02 -0.94487249735E+01 -0.28139218236E+02  0.38284691345E+02  0.41800000000E+01 0. -1.
</event>
<event>
11    1  0.8864208E-009  0.1445908E+03  0.7561462E-02  0.1102538E+00
         22   -1    0    0    0    0  0.00000000000E+00  0.00000000000E+00  0.13037737271E+04  0.13037737271E+04  0.00000000000E+00 0. -1.
         22   -1    0    0    0    0 -0.00000000000E+00 -0.00000000000E+00 -0.37107136052E+03  0.37107136052E+03  0.00000000000E+00 0.  1.
         24    2    1    2    0    0  0.30392129277E+02  0.64608129915E+02 -0.33288954486E+03  0.34985860875E+03  0.80546291442E+02 0.  0.
         25    2    1    2    0    0 -0.62090702097E+02 -0.85713836363E+02  0.21191805271E+03  0.26787931162E+03  0.12509175631E+03 0.  0.
        -24    2    1    2    0    0  0.31698572820E+02  0.21105706448E+02  0.10536738587E+04  0.10571071672E+04  0.76136142130E+02 0.  0.
        -13    1    3    3    0    0 -0.52554642776E+01  0.64104709515E+02 -0.14512882603E+03  0.15874321980E+03  0.00000000000E+00 0.  1.
         14    1    3    3    0    0  0.35647593554E+02  0.50342040021E+00 -0.18776071883E+03  0.19111538895E+03  0.00000000000E+00 0. -1.
         13    1    5    5    0    0  0.18283323270E+02 -0.10035587078E+02  0.87475524048E+03  0.87500384208E+03  0.00000000000E+00 0. -1.
        -14    1    5    5    0    0  0.13415249550E+02  0.31141293526E+02  0.17891861823E+03  0.18210332515E+03  0.00000000000E+00 0.  1.
          5    1    4    4  501    0 -0.13163647157E+02  0.11167145708E+02  0.13160027301E+03  0.13279341477E+03  0.41800000000E+01 0.  1.
         -5    1    4    4    0  501 -0.48927054940E+02 -0.96880982071E+02  0.80317779706E+02  0.13508589685E+03  0.41800000000E+01 0.  1.
</event>
<event>
11    1  0.8864208E-009  0.1646085E+03  0.7561462E-02  0.1082821E+00
         22   -1    0    0    0    0  0.00000000000E+00  0.00000000000E+00  0.48309948893E+03  0.48309948893E+03  0.00000000000E+00 0. -1.
         22   -1    0    0    0    0 -0.00000000000E+00 -0.00000000000E+00 -0.52883904298E+03  0.52883904298E+03  0.00000000000E+00 0.  1.
        -24    2    1    2    0    0 -0.97619395422E+02  0.40705961230E+02 -0.44563147333E+03  0.47061833655E+03  0.10820206576E+03 0.  0.
         25    2    1    2    0    0  0.13195254990E+03  0.93990278120E+01  0.63498831124E+02  0.19281898963E+03  0.12508894460E+03 0.  0.
         24    2    1    2    0    0 -0.34333154475E+02 -0.50104989042E+02  0.33639308816E+03  0.34850120573E+03  0.67849135661E+02 0.  0.
        -11    1    5    5    0    0  0.18924513354E+01  0.25720737823E+01 -0.22307267112E+01  0.38952634389E+01  0.00000000000E+00 0.  1.
         12    1    5    5    0    0 -0.36225605810E+02 -0.52677062824E+02  0.33862381487E+03  0.34460594229E+03  0.00000000000E+00 0. -1.
         13    1    3    3    0    0 -0.53145594071E+01  0.42115905646E+02 -0.56404842612E+02  0.70593911353E+02  0.00000000000E+00 0. -1.
        -14    1    3    3    0    0 -0.92304836015E+02 -0.14099444167E+01 -0.38922663072E+03  0.40002442520E+03  0.00000000000E+00 0.  1.
          5    1    4    4  501    0  0.32253359361E+02  0.23397096964E+02  0.81168209700E+02  0.90517699939E+02  0.41800000000E+01 0.  1.
         -5    1    4    4    0  501  0.99699190535E+02 -0.13998069152E+02 -0.17669378576E+02  0.10230128969E+03  0.41800000000E+01 0.  1.
</event>
<event>
11    1  0.8864208E-009  0.1595945E+03  0.7561462E-02  0.1087459E+00
         22   -1    0    0    0    0  0.00000000000E+00  0.00000000000E+00  0.56376061414E+03  0.56376061414E+03  0.00000000000E+00 0. -1.
         22   -1    0    0    0    0 -0.00000000000E+00 -0.00000000000E+00 -0.73818577045E+02  0.73818577045E+02  0.00000000000E+00 0.  1.
        -24    2    1    2    0    0  0.26378201440E+02  0.53718671259E+01  0.49525383498E+02  0.89114396958E+02  0.69021342111E+02 0.  0.
         25    2    1    2    0    0  0.53678801412E+02  0.61634034954E+02  0.91869267902E+02  0.17542762569E+03  0.12511882945E+03 0.  0.
         24    2    1    2    0    0 -0.80057002853E+02 -0.67005902080E+02  0.34854738570E+03  0.37303716854E+03  0.82295409466E+02 0.  0.
        -13    1    5    5    0    0 -0.80333825623E+02 -0.16221748821E+02  0.22486527265E+03  0.23933461831E+03  0.00000000000E+00 0.  1.
         14    1    5    5    0    0  0.27682276991E+00 -0.50784153260E+02  0.12368211304E+03  0.13370255024E+03  0.00000000000E+00 0. -1.
         13    1    3    3    0    0  0.67435084515E+00  0.26260975512E+02  0.49447805809E+02  0.55992669906E+02  0.00000000000E+00 0. -1.
        -14    1    3    3    0    0  0.25703850595E+02 -0.20889108386E+02  0.77577689348E-01  0.33121727052E+02  0.00000000000E+00 0.  1.
          5    1    4    4  501    0  0.54473258171E+02  0.66455621361E+02  0.11939491938E+03  0.14716081217E+03  0.41800000000E+01 0. -1.
         -5    1    4    4    0  501 -0.79445675834E+00 -0.48215864070E+01 -0.27525651475E+02  0.28266813513E+02  0.41800000000E+01 0. -1.
</event>
<event>
11    1  0.8864208E-009  0.1372672E+03  0.7561462E-02  0.1110649E+00
         22   -1    0    0    0    0  0.00000000000E+00  0.00000000000E+00  0.17422350647E+04  0.17422350647E+04  0.00000000000E+00 0.  1.
         22   -1    0    0    0    0 -0.00000000000E+00 -0.00000000000E+00 -0.12681046914E+03  0.12681046914E+03  0.00000000000E+00 0.  1.
        -24    2    1    2    0    0  0.12922153769E+02  0.44822543726E+02 -0.56242418450E+02  0.10768509257E+03  0.79100107742E+02 0.  0.
         25    2    1    2    0    0  0.34553476560E+02 -0.74609848507E+02  0.86395161132E+02  0.17283073914E+03  0.12508304556E+03 0.  0.
         24    2    1    2    0    0 -0.47475630329E+02  0.29787304781E+02  0.15852718529E+04  0.15885297022E+04  0.84844257570E+02 0.  0.
        -13    1    5    5    0    0 -0.67868456795E+01  0.61604889275E+01  0.12435595700E+04  0.12435933487E+04  0.00000000000E+00 0.  1.
         14    1    5    5    0    0 -0.40688784650E+02  0.23626815854E+02  0.34171228294E+03  0.34493635346E+03  0.00000000000E+00 0. -1.
         13    1    3    3    0    0  0.35499938774E+02  0.43772581201E+02 -0.11445234000E+02  0.57508937560E+02  0.00000000000E+00 0. -1.
        -14    1    3    3    0    0 -0.22577785005E+02  0.10499625244E+01 -0.44797184450E+02  0.50176155011E+02  0.00000000000E+00 0.  1.
          5    1    4    4  501    0  0.27102438884E+01 -0.66653922158E+02  0.11238329056E+03  0.13075766577E+03  0.41800000000E+01 0.  1.
         -5    1    4    4    0  501  0.31843232672E+02 -0.79559263491E+01 -0.25988129430E+02  0.42073073364E+02  0.41800000000E+01 0.  1.
</event>
<event>
11    1  0.8864208E-009  0.4018090E+03  0.7561462E-02  0.9644435E-01
         22   -1    0    0    0    0  0.00000000000E+00  0.00000000000E+00  0.41749028578E+03  0.41749028578E+03  0.00000000000E+00 0. -1.
         22   -1    0    0    0    0 -0.00000000000E+00 -0.00000000000E+00 -0.10741909708E+04  0.10741909708E+04  0.00000000000E+00 0. -1.
         24    2    1    2    0    0 -0.27284092212E+02  0.37769833718E+03 -0.79459672661E+03  0.88399862028E+03  0.81664846282E+02 0.  0.
         25    2    1    2    0    0  0.44250861756E+02 -0.39311989048E+03 -0.34046410262E+02  0.41630289900E+03  0.12509020189E+03 0.  0.
        -24    2    1    2    0    0 -0.16966769544E+02  0.15421553299E+02  0.17194245190E+03  0.19137973726E+03  0.80847396324E+02 0.  0.
        -13    1    3    3    0    0  0.75041310458E+01  0.10349761746E+01 -0.30100680390E+02  0.31039235145E+02  0.00000000000E+00 0.  1.
         14    1    3    3    0    0 -0.34788223258E+02  0.37666336100E+03 -0.76449604622E+03  0.85295938513E+03  0.00000000000E+00 0. -1.
         13    1    5    5    0    0  0.38936343119E+01  0.17245573988E+02  0.16936091801E+03  0.17028121083E+03  0.00000000000E+00 0. -1.
        -14    1    5    5    0    0 -0.20860403855E+02 -0.18240206892E+01  0.25815338917E+01  0.21098526435E+02  0.00000000000E+00 0.  1.
          5    1    4    4  501    0 -0.33417327998E+01 -0.26824889392E+03  0.26355017976E+02  0.26959357492E+03  0.41800000000E+01 0. -1.
         -5    1    4    4    0  501  0.47592594556E+02 -0.12487099656E+03 -0.60401428238E+02  0.14670932408E+03  0.41800000000E+01 0. -1.
</event>
<event>
11    1  0.8864208E-009  0.1807236E+03  0.7561462E-02  0.1069059E+00
         22   -1    0    0    0    0  0.00000000000E+00  0.00000000000E+00  0.22361250299E+04  0.22361250299E+04  0.00000000000E+00 0.  1.
         22   -1    0    0    0    0 -0.00000000000E+00 -0.00000000000E+00 -0.21047917331E+03  0.21047917331E+03  0.00000000000E+00 0. -1.
         24    2    1    2    0    0 -0.67655331858E+02 -0.16816371644E+02 -0.16062261734E+03  0.19344420576E+03  0.82225307897E+02 0.  0.
         25    2    1    2    0    0 -0.37747132353E+02  0.99951333737E+02  0.19223739881E+03  0.25301660534E+03  0.12508824869E+03 0.  0.
        -24    2    1    2    0    0  0.10540246421E+03 -0.83134962093E+02  0.19940310752E+04  0.20001433921E+04  0.79953480454E+02 0.  0.
        -13    1    3    3    0    0 -0.36600971255E+02  0.31276172173E+02 -0.93944152883E+02  0.10556199081E+03  0.00000000000E+00 0.  1.
         14    1    3    3    0    0 -0.31054360604E+02 -0.48092543817E+02 -0.66678464454E+02  0.87882214954E+02  0.00000000000E+00 0. -1.
         13    1    5    5    0    0  0.20972652074E+02 -0.26719115551E+02  0.17415203898E+03  0.17743363816E+03  0.00000000000E+00 0. -1.
        -14    1    5    5    0    0  0.84429812137E+02 -0.56415846543E+02  0.18198790362E+04  0.18227097540E+04  0.00000000000E+00 0.  1.
          5    1    4    4  501    0 -0.42922990638E+02  0.11312524780E+03  0.92936429246E+02  0.15262489016E+03  0.41800000000E+01 0. -1.
         -5    1    4    4    0  501  0.51758582847E+01 -0.13173914065E+02  0.99300969560E+02  0.10039171518E+03  0.41800000000E+01 0. -1.
</event>
<event>
11    1  0.8864208E-009  0.1943346E+03  0.7561462E-02  0.1058604E+00
         22   -1    0    0    0    0  0.00000000000E+00  0.00000000000E+00  0.55763915404E+03  0.55763915404E+03  0.00000000000E+00 0.  1.
         22   -1    0    0    0    0 -0.00000000000E+00 -0.00000000000E+00 -0.18169821486E+04  0.18169821486E+04  0.00000000000E+00 0.  1.
         24    2    1    2    0    0 -0.18102651247E+02 -0.46344038230E+01 -0.14017586419E+04  0.14045261118E+04  0.86122732415E+02 0.  0.
         25    2    1    2    0    0 -0.11881495417E+03 -0.54955178561E+02 -0.37997875519E+03  0.42091262532E+03  0.12508604545E+03 0.  0.
        -24    2    1    2    0    0  0.13691760542E+03  0.59589582384E+02  0.52239440250E+03  0.54918256551E+03  0.80051417775E+02 0.  0.
        -13    1    3    3    0    0  0.25332059930E+02  0.24262357269E+02 -0.46913001200E+03  0.47043952151E+03  0.00000000000E+00 0.  1.
         14    1    3    3    0    0 -0.43434711177E+02 -0.28896761092E+02 -0.93262862988E+03  0.93408659032E+03  0.00000000000E+00 0. -1.
         13    1    5    5    0    0  0.74927516041E+02 -0.57696829066E+01  0.17824601259E+03  0.19344007574E+03  0.00000000000E+00 0. -1.
        -14    1    5    5    0    0  0.61990089379E+02  0.65359265291E+02  0.34414838992E+03  0.35574248976E+03  0.00000000000E+00 0.  1.
          5    1    4    4  501    0 -0.74252619019E+02 -0.67244808093E+02 -0.35356946693E+03  0.36751075630E+03  0.41800000000E+01 0.  1.
         -5    1    4    4    0  501 -0.44562335154E+02  0.12289629532E+02 -0.26409288261E+02  0.53401869020E+02  0.41800000000E+01 0.  1.
</event>
<event>
11    1  0.8864208E-009  0.1522649E+03  0.7561462E-02  0.1094587E+00
         22   -1    0    0    0    0  0.00000000000E+00  0.00000000000E+00  0.35217931520E+03  0.35217931520E+03  0.00000000000E+00 0.  1.
         22   -1    0    0    0    0 -0.00000000000E+00 -0.00000000000E+00 -0.42622090431E+03  0.42622090431E+03  0.00000000000E+00 0. -1.
        -24    2    1    2    0    0  0.60140544206E+02  0.55826405110E+02 -0.35683232682E+03  0.37513418267E+03  0.81626423284E+02 0.  0.
         25    2    1    2    0    0 -0.93135781423E+02  0.31494521812E+02  0.11785375677E+03  0.19800808000E+03  0.12510600734E+03 0.  0.
         24    2    1    2    0    0  0.32995237218E+02 -0.87320926922E+02  0.16493698093E+03  0.20525795685E+03  0.78822529865E+02 0.  0.
        -11    1    5    5    0    0  0.41311288773E+02 -0.99296536104E+02  0.14334318273E+03  0.17920293719E+03  0.00000000000E+00 0.  1.
         12    1    5    5    0    0 -0.83160515554E+01  0.11975609182E+02  0.21593798199E+02  0.26055019659E+02  0.00000000000E+00 0. -1.
         11    1    3    3    0    0  0.34410889915E+02  0.20054333781E+01 -0.25338430259E+03  0.25571807896E+03  0.00000000000E+00 0. -1.
        -12    1    3    3    0    0  0.25729654291E+02  0.53820971732E+02 -0.10344802423E+03  0.11941610371E+03  0.00000000000E+00 0.  1.
          5    1    4    4  501    0  0.57469167330E+01 -0.18860585240E+02  0.77148844371E+02  0.79738104539E+02  0.41800000000E+01 0.  1.
         -5    1    4    4    0  501 -0.98882698157E+02  0.50355107052E+02  0.40704912403E+02  0.11826997546E+03  0.41800000000E+01 0.  1.
</event>
<event>
11    1  0.8864208E-009  0.1264129E+03  0.7561462E-02  0.1123757E+00
         22   -1    0    0    0    0  0.00000000000E+00  0.00000000000E+00  0.47248435379E+03  0.47248435379E+03  0.00000000000E+00 0.  1.
         22   -1    0    0    0    0 -0.00000000000E+00 -0.00000000000E+00 -0.37498832790E+03  0.37498832790E+03  0.00000000000E+00 0. -1.
         24    2    1    2    0    0  0.37980213457E+02 -0.11548590266E+02 -0.21752699139E+03  0.23235538092E+03  0.71380421038E+02 0.  0.
         25    2    1    2    0    0 -0.45364407423E+02 -0.49512370992E+01 -0.11542507590E+03  0.17621729495E+03  0.12508853938E+03 0.  0.
        -24    2    1    2    0    0  0.73841939664E+01  0.16499827365E+02  0.43044809318E+03  0.43890000582E+03  0.83790712896E+02 0.  0.
        -13    1    3    3    0    0  0.29717393470E+02  0.27210440126E+02 -0.85685451503E+02  0.94686472771E+02  0.00000000000E+00 0.  1.
         14    1    3    3    0    0  0.82628199868E+01 -0.38759030392E+02 -0.13184153988E+03  0.13766890815E+03  0.00000000000E+00 0. -1.
         13    1    5    5    0    0 -0.22545190624E+02  0.24929608514E+02  0.76126307563E+02  0.83216498989E+02  0.00000000000E+00 0. -1.
        -14    1    5    5    0    0  0.29929384590E+02 -0.84297811485E+01  0.35432178561E+03  0.35568350683E+03  0.00000000000E+00 0.  1.
          5    1    4    4  501    0 -0.23837226831E+02 -0.64637493509E+02 -0.68019680027E+02  0.96903912310E+02  0.41800000000E+01 0. -1.
         -5    1    4    4    0  501 -0.21527180592E+02  0.59686256409E+02 -0.47405395872E+02  0.79313382642E+02  0.41800000000E+01 0. -1.
</event>
<event>
11    1  0.8864208E-009  0.1809243E+03  0.7561462E-02  0.1068898E+00
         22   -1    0    0    0    0  0.00000000000E+00  0.00000000000E+00  0.10638301475E+04  0.10638301475E+04  0.00000000000E+00 0. -1.
         22   -1    0    0    0    0 -0.00000000000E+00 -0.00000000000E+00 -0.67058798339E+03  0.67058798339E+03  0.00000000000E+00 0. -1.
        -24    2    1    2    0    0  0.96569413697E+02 -0.82083475177E+02 -0.36487457618E+03  0.39483639875E+03  0.81847277772E+02 0.  0.
         25    2    1    2    0    0 -0.30769871573E+02  0.16255936775E+03 -0.24897472670E+03  0.32404979406E+03  0.12509005339E+03 0.  0.
         24    2    1    2    0    0 -0.65799542124E+02 -0.80475892569E+02  0.10070914670E+04  0.10155319381E+04  0.79157724446E+02 0.  0.
        -13    1    5    5    0    0 -0.65043905845E+02 -0.17933693859E+02  0.57265842930E+03  0.57661946178E+03  0.00000000000E+00 0.  1.
         14    1    5    5    0    0 -0.75563627901E+00 -0.62542198710E+02  0.43443303771E+03  0.43891247631E+03  0.00000000000E+00 0. -1.
         11    1    3    3    0    0  0.61637362988E+02 -0.57559113109E+02 -0.32724067547E+03  0.33793294557E+03  0.00000000000E+00 0. -1.
        -12    1    3    3    0    0  0.34932050709E+02 -0.24524362069E+02 -0.37633900705E+02  0.56903453180E+02  0.00000000000E+00 0.  1.
          5    1    4    4  501    0 -0.79110138243E+02  0.11295986506E+03 -0.16207739061E+03  0.21284947272E+03  0.41800000000E+01 0.  1.
         -5    1    4    4    0  501  0.48340266671E+02  0.49599502683E+02 -0.86897336091E+02  0.11120032135E+03  0.41800000000E+01 0.  1.
</event>
<event>
11    1  0.8864208E-009  0.1467027E+03  0.7561462E-02  0.1100296E+00
         22   -1    0    0    0    0  0.00000000000E+00  0.00000000000E+00  0.15272024573E+03  0.15272024573E+03  0.00000000000E+00 0.  1.
         22   -1    0    0    0    0 -0.00000000000E+00 -0.00000000000E+00 -0.38005061454E+04  0.38005061454E+04  0.00000000000E+00 0.  1.
         24    2    1    2    0    0  0.38859661216E+02  0.34611983475E+01 -0.36377649751E+04  0.36388920399E+04  0.81726438264E+02 0.  0.
         25    2    1    2    0    0  0.44082026625E+02 -0.12407707781E+02 -0.10021458906E+03  0.16668987382E+03  0.12508146902E+03 0.  0.
        -24    2    1    2    0    0 -0.82941687841E+02  0.89465094339E+01  0.90193664517E+02  0.14764447739E+03  0.81881810988E+02 0.  0.
        -11    1    3    3    0    0  0.19537702768E+02 -0.26850129750E+02 -0.29511241390E+04  0.29513109520E+04  0.00000000000E+00 0.  1.
         12    1    3    3    0    0  0.19321958448E+02  0.30311328097E+02 -0.68664083609E+03  0.68758108792E+03  0.00000000000E+00 0. -1.
         11    1    5    5    0    0 -0.52549206774E+02 -0.49273679997E+01  0.14272526479E+01  0.52799006980E+02  0.00000000000E+00 0. -1.
        -12    1    5    5    0    0 -0.30392481068E+02  0.13873877434E+02  0.88766411869E+02  0.94845470406E+02  0.00000000000E+00 0.  1.
          5    1    4    4  501    0  0.21048762239E+00 -0.63492204874E+02 -0.33937503947E+02  0.72114706953E+02  0.41800000000E+01 0.  1.
         -5    1    4    4    0  501  0.43871539003E+02  0.51084497092E+02 -0.66277085113E+02  0.94575166871E+02  0.41800000000E+01 0.  1.
</event>
<event>
11    1  0.8864208E-009  0.1629820E+03  0.7561462E-02  0.1084306E+00
         22   -1    0    0    0    0  0.00000000000E+00  0.00000000000E+00  0.11603559603E+03  0.11603559603E+03  0.00000000000E+00 0.  1.
         22   -1    0    0    0    0 -0.00000000000E+00 -0.00000000000E+00 -0.75448235101E+03  0.75448235101E+03  0.00000000000E+00 0. -1.
         24    2    1    2    0    0  0.30522639093E+02  0.45993595665E+02 -0.42210684552E+03  0.43207184831E+03  0.73924628708E+02 0.  0.
         25    2    1    2    0    0  0.68855100659E+02 -0.83129643141E+02 -0.25179710010E+03  0.30116433566E+03  0.12508643010E+03 0.  0.
        -24    2    1    2    0    0 -0.99377739753E+02  0.37136047476E+02  0.35457190643E+02  0.13728176307E+03  0.79586738361E+02 0.  0.
        -11    1    3    3    0    0  0.84760140168E+01 -0.13543058109E+02 -0.23350983889E+02  0.28293562610E+02  0.00000000000E+00 0.  1.
         12    1    3    3    0    0  0.22046625077E+02  0.59536653774E+02 -0.39875586163E+03  0.40377828570E+03  0.00000000000E+00 0. -1.
         13    1    5    5    0    0 -0.27893779890E+02  0.22655176839E+02 -0.23974107550E+02  0.43198122957E+02  0.00000000000E+00 0. -1.
        -14    1    5    5    0    0 -0.71483959862E+02  0.14480870636E+02  0.59431298193E+02  0.94083640113E+02  0.00000000000E+00 0.  1.
          5    1    4    4  501    0  0.73386715082E+02 -0.22033327152E+02 -0.21791294617E+03  0.23102943960E+03  0.41800000000E+01 0.  1.
         -5    1    4    4    0  501 -0.45316144223E+01 -0.61096315989E+02 -0.33884153939E+02  0.70134896057E+02  0.41800000000E+01 0.  1.
</event>
<event>
11    1  0.9575381E-009  0.1477285E+03  0.7561462E-02  0.1099223E+00
         22   -1    0    0    0    0  0.00000000000E+00  0.00000000000E+00  0.15952449475E+03  0.15952449475E+03  0.00000000000E+00 0. -1.
         22   -1    0    0    0    0 -0.00000000000E+00 -0.00000000000E+00 -0.17564238148E+04  0.17564238148E+04  0.00000000000E+00 0. -1.
         24    2    1    2    0    0 -0.86826688254E+02  0.68745250797E+01 -0.14162311520E+04  0.14211423277E+04  0.79678772229E+02 0.  0.
         25    2    1    2    0    0  0.27132194797E+02  0.53096116456E+02 -0.29843643643E+03  0.32904072938E+03  0.12509253144E+03 0.  0.
        -24    2    1    2    0    0  0.59694493457E+02 -0.59970641536E+02  0.11776826832E+03  0.16576525255E+03  0.80304691857E+02 0.  0.
        -13    1    3    3    0    0 -0.40298393615E+02  0.26317695667E+02 -0.10876239389E+04  0.10886883917E+04  0.00000000000E+00 0.  1.
         14    1    3    3    0    0 -0.46528294640E+02 -0.19443170587E+02 -0.32860721303E+03  0.33245393597E+03  0.00000000000E+00 0. -1.
         11    1    5    5    0    0 -0.41721761851E+00 -0.35233343587E+02  0.86967468860E+02  0.93834445759E+02  0.00000000000E+00 0. -1.
        -12    1    5    5    0    0  0.60111711076E+02 -0.24737297949E+02  0.30800799462E+02  0.71930806792E+02  0.00000000000E+00 0.  1.
          5    1    4    4  501    0  0.21971536359E+02  0.93779345949E+02 -0.22583699920E+03  0.24555475305E+03  0.41800000000E+01 0. -1.
         -5    1    4    4    0  501  0.51606584384E+01 -0.40683229493E+02 -0.72599437236E+02  0.83485976334E+02  0.41800000000E+01 0. -1.
</event>
<event>
11    1  0.8864208E-009  0.1270014E+03  0.7561462E-02  0.1123009E+00
         22   -1    0    0    0    0  0.00000000000E+00  0.00000000000E+00  0.79670669596E+02  0.79670669596E+02  0.00000000000E+00 0. -1.
         22   -1    0    0    0    0 -0.00000000000E+00 -0.00000000000E+00 -0.19809994563E+04  0.19809994563E+04  0.00000000000E+00 0. -1.
         24    2    1    2    0    0  0.75597216056E+01  0.20721923055E+02 -0.18068211754E+04  0.18086956745E+04  0.79314156934E+02 0.  0.
         25    2    1    2    0    0 -0.88748790219E+01 -0.17382439193E+02 -0.11205898429E+03  0.16907009686E+03  0.12508624634E+03 0.  0.
        -24    2    1    2    0    0  0.13151574163E+01 -0.33394838617E+01  0.17551372954E+02  0.82904354597E+02  0.80945657864E+02 0.  0.
        -13    1    3    3    0    0 -0.32823883556E+02  0.14401558181E+02 -0.52459566820E+03  0.52581881604E+03  0.00000000000E+00 0.  1.
         14    1    3    3    0    0  0.40383605161E+02  0.63203648746E+01 -0.12822255072E+04  0.12828768584E+04  0.00000000000E+00 0. -1.
         13    1    5    5    0    0 -0.84317044406E+01 -0.15348586621E+01  0.49096276963E+02  0.49838678177E+02  0.00000000000E+00 0. -1.
        -14    1    5    5    0    0  0.97468618569E+01 -0.18046251996E+01 -0.31544904008E+02  0.33065676419E+02  0.00000000000E+00 0.  1.
          5    1    4    4  501    0  0.48030220079E+02 -0.10203268030E+02 -0.98266726869E+02  0.10993102714E+03  0.41800000000E+01 0. -1.
         -5    1    4    4    0  501 -0.56905099101E+02 -0.71791711639E+01 -0.13792257422E+02  0.59139069718E+02  0.41800000000E+01 0. -1.
</event>
<event>
11    1  0.8864208E-009  0.1654442E+03  0.7561462E-02  0.1082066E+00
         22   -1    0    0    0    0  0.00000000000E+00  0.00000000000E+00  0.17755148952E+04  0.17755148952E+04  0.00000000000E+00 0.  1.
         22   -1    0    0    0    0 -0.00000000000E+00 -0.00000000000E+00 -0.15539263883E+03  0.15539263883E+03  0.00000000000E+00 0. -1.
         24    2    1    2    0    0 -0.10427257106E+03 -0.24018185892E+02 -0.71994044969E+02  0.15233562588E+03  0.81076248502E+02 0.  0.
         25    2    1    2    0    0  0.11097671541E+03  0.24589419776E+02  0.12728110447E+03  0.21158504624E+03  0.12508909349E+03 0.  0.
        -24    2    1    2    0    0 -0.67041443451E+01 -0.57123388427E+00  0.15648351969E+04  0.15669868619E+04  0.81812958628E+02 0.  0.
        -11    1    3    3    0    0 -0.66323238836E+01  0.15466183265E+02  0.93566693363E+01  0.19254552863E+02  0.00000000000E+00 0.  1.
         12    1    3    3    0    0 -0.97640247178E+02 -0.39484369157E+02 -0.81350714305E+02  0.13308107301E+03  0.00000000000E+00 0. -1.
         13    1    5    5    0    0 -0.86622483864E+01 -0.11665562796E+02  0.48978205089E+02  0.51088007166E+02  0.00000000000E+00 0. -1.
        -14    1    5    5    0    0  0.19581040414E+01  0.11094328912E+02  0.15158569918E+04  0.15158988548E+04  0.00000000000E+00 0.  1.
          5    1    4    4  501    0  0.88442855214E+02 -0.40029275060E+02  0.53737286036E+02  0.11103895628E+03  0.41800000000E+01 0. -1.
         -5    1    4    4    0  501  0.22533860193E+02  0.64618694836E+02  0.73543818431E+02  0.10054608996E+03  0.41800000000E+01 0. -1.
</event>
<event>
11    1  0.8864208E-009  0.2140949E+03  0.7561462E-02  0.1044981E+00
         22   -1    0    0    0    0  0.00000000000E+00  0.00000000000E+00  0.35485755496E+03  0.35485755496E+03  0.00000000000E+00 0.  1.
         22   -1    0    0    0    0 -0.00000000000E+00 -0.00000000000E+00 -0.47557534732E+03  0.47557534732E+03  0.00000000000E+00 0.  1.
         24    2    1    2    0    0 -0.60957648477E+02 -0.16492507457E+03 -0.34877566009E+03  0.39917254277E+03  0.82329476515E+02 0.  0.
         25    2    1    2    0    0  0.15280540146E+03  0.10630291270E+03  0.15410784800E+03  0.27211647241E+03  0.12509334826E+03 0.  0.
        -24    2    1    2    0    0 -0.91847752983E+02  0.58622161876E+02  0.73950019734E+02  0.15914388710E+03  0.89362205603E+02 0.  0.
        -11    1    3    3    0    0  0.53962490797E+01 -0.36299881508E+02 -0.14274543233E+03  0.14738744638E+03  0.00000000000E+00 0.  1.
         12    1    3    3    0    0 -0.66353897557E+02 -0.12862519306E+03 -0.20603022776E+03  0.25178509639E+03  0.00000000000E+00 0. -1.
         13    1    5    5    0    0 -0.66453586479E+02  0.60717263895E+02  0.91382451083E+02  0.12827087611E+03  0.00000000000E+00 0. -1.
        -14    1    5    5    0    0 -0.25394166504E+02 -0.20951020187E+01 -0.17432431349E+02  0.30873010991E+02  0.00000000000E+00 0.  1.
          5    1    4    4  501    0  0.16598374815E+03  0.61934243104E+02  0.12985538932E+03  0.21969603923E+03  0.41800000000E+01 0. -1.
         -5    1    4    4    0  501 -0.13178346686E+02  0.44368669592E+02  0.24252458679E+02  0.52420433179E+02  0.41800000000E+01 0. -1.
</event>
<event>
11    1  0.8864208E-009  0.1312678E+03  0.7561462E-02  0.1117721E+00
         22   -1    0    0    0    0  0.00000000000E+00  0.00000000000E+00  0.66919138230E+03  0.66919138230E+03  0.00000000000E+00 0.  1.
         22   -1    0    0    0    0 -0.00000000000E+00 -0.00000000000E+00 -0.30496783680E+03  0.30496783680E+03  0.00000000000E+00 0.  1.
        -24    2    1    2    0    0  0.10852387297E+02  0.10829352479E+02 -0.24294091387E+03  0.25592566236E+03  0.79010175529E+02 0.  0.
         25    2    1    2    0    0 -0.49716857957E+02 -0.57625393653E+01  0.35337020950E+02  0.13928669599E+03  0.12508839197E+03 0.  0.
         24    2    1    2    0    0  0.38864470661E+02 -0.50668131135E+01  0.57182743842E+03  0.57894686074E+03  0.81588777149E+02 0.  0.
        -13    1    5    5    0    0  0.22999250645E+02 -0.11114750713E+02  0.55301790184E+03  0.55360753514E+03  0.00000000000E+00 0.  1.
         14    1    5    5    0    0  0.15865220016E+02  0.60479375998E+01  0.18809536584E+02  0.25339325600E+02  0.00000000000E+00 0. -1.
         13    1    3    3    0    0 -0.30921341995E+02 -0.10991529097E+02 -0.85484102442E+02  0.91566778217E+02  0.00000000000E+00 0. -1.
        -14    1    3    3    0    0  0.41773729292E+02  0.21820881576E+02 -0.15745681143E+03  0.16435888415E+03  0.00000000000E+00 0.  1.
          5    1    4    4  501    0 -0.50151620399E+02 -0.14058385434E+02 -0.38476168590E+02  0.64889992904E+02  0.41800000000E+01 0. -1.
         -5    1    4    4    0  501  0.43476244131E+00  0.82958460687E+01  0.73813189540E+02  0.74396703089E+02  0.41800000000E+01 0. -1.
</event>
<event>
11    1  0.8864208E-009  0.1357187E+03  0.7561462E-02  0.1112436E+00
         22   -1    0    0    0    0  0.00000000000E+00  0.00000000000E+00  0.19889805904E+04  0.19889805904E+04  0.00000000000E+00 0. -1.
         22   -1    0    0    0    0 -0.00000000000E+00 -0.00000000000E+00 -0.34926500876E+03  0.34926500876E+03  0.00000000000E+00 0.  1.
         24    2    1    2    0    0 -0.43287632421E+01 -0.45454424988E+02 -0.20387653399E+03  0.22343979309E+03  0.79213995505E+02 0.  0.
         25    2    1    2    0    0  0.22725549232E+02  0.80308956044E+02 -0.92667131723E+02  0.17664561087E+03  0.12510194055E+03 0.  0.
        -24    2    1    2    0    0 -0.18396785990E+02 -0.34854531056E+02  0.19362592473E+04  0.19381601952E+04  0.76235091837E+02 0.  0.
        -13    1    3    3    0    0  0.31547140803E+02 -0.45502090526E+02 -0.11664818473E+03  0.12912188558E+03  0.00000000000E+00 0.  1.
         14    1    3    3    0    0 -0.35875904045E+02  0.47665538078E-01 -0.87228349258E+02  0.94317907512E+02  0.00000000000E+00 0. -1.
         11    1    5    5    0    0 -0.32101738995E+02 -0.27454216756E+02  0.18514997166E+04  0.18519814945E+04  0.00000000000E+00 0. -1.
        -12    1    5    5    0    0  0.13704953005E+02 -0.74003143003E+01  0.84759530756E+02  0.86178700631E+02  0.00000000000E+00 0.  1.
          5    1    4    4  501    0 -0.41366965818E+01 -0.33070082851E+02 -0.24650521037E+02  0.41663691936E+02  0.41800000000E+01 0.  1.
         -5    1    4    4    0  501  0.26862245814E+02  0.11337903889E+03 -0.68016610686E+02  0.13498191894E+03  0.41800000000E+01 0.  1.
</event>
<event>
11    1  0.8864208E-009  0.1455274E+03  0.7561462E-02  0.1101539E+00
         22   -1    0    0    0    0  0.00000000000E+00  0.00000000000E+00  0.40160817040E+03  0.40160817040E+03  0.00000000000E+00 0. -1.
         22   -1    0    0    0    0 -0.00000000000E+00 -0.00000000000E+00 -0.11742614373E+04  0.11742614373E+04  0.00000000000E+00 0.  1.
        -24    2    1    2    0    0 -0.59377599517E+02  0.38264426047E+01 -0.93328401754E+03  0.93868763728E+03  0.81086879400E+02 0.  0.
         25    2    1    2    0    0  0.82718481079E+02 -0.73626375100E+02 -0.20007671284E+03  0.26065616046E+03  0.12509097786E+03 0.  0.
         24    2    1    2    0    0 -0.23340881562E+02  0.69799932495E+02  0.36070746351E+03  0.37652580993E+03  0.79025211075E+02 0.  0.
        -13    1    5    5    0    0  0.15414780209E+02  0.27249893553E+01  0.13163066787E+02  0.20452563241E+02  0.00000000000E+00 0.  1.
         14    1    5    5    0    0 -0.38755661771E+02  0.67074943140E+02  0.34754439672E+03  0.35607324669E+03  0.00000000000E+00 0. -1.
         11    1    3    3    0    0 -0.29913518083E+02 -0.37333648494E+02 -0.35826516033E+03  0.36144507879E+03  0.00000000000E+00 0. -1.
        -12    1    3    3    0    0 -0.29464081434E+02  0.41160091099E+02 -0.57501885721E+03  0.57724255849E+03  0.00000000000E+00 0.  1.
          5    1    4    4  501    0  0.73211640896E+02  0.16786503658E+02 -0.10355849220E+03  0.12799829989E+03  0.41800000000E+01 0.  1.
         -5    1    4    4    0  501  0.95068401833E+01 -0.90412878757E+02 -0.96518220644E+02  0.13265786057E+03  0.41800000000E+01 0.  1.
</event>
<event>
11    1  0.8864208E-009  0.1358448E+03  0.7561462E-02  0.1112289E+00
         22   -1    0    0    0    0  0.00000000000E+00  0.00000000000E+00  0.88925079292E+02  0.88925079292E+02  0.00000000000E+00 0. -1.
         22   -1    0    0    0    0 -0.00000000000E+00 -0.00000000000E+00 -0.14126738168E+04  0.14126738168E+04  0.00000000000E+00 0. -1.
         24    2    1    2    0    0 -0.46371360222E+02  0.10762042326E+02 -0.68527086184E+03  0.69156918036E+03  0.80035320573E+02 0.  0.
         25    2    1    2    0    0  0.65496005513E+02 -0.41641644525E+01 -0.69584916097E+03  0.71004270467E+03  0.12509005006E+03 0.  0.
        -24    2    1    2    0    0 -0.19124645291E+02 -0.65978778733E+01  0.57371285352E+02  0.99987011011E+02  0.79351458322E+02 0.  0.
        -11    1    3    3    0    0  0.17532238016E+01 -0.60679106395E+01 -0.23364236700E+01  0.67344048582E+01  0.00000000000E+00 0.  1.
         12    1    3    3    0    0 -0.48124584024E+02  0.16829952965E+02 -0.68293443817E+03  0.68483477551E+03  0.00000000000E+00 0. -1.
         13    1    5    5    0    0 -0.30549046150E+02 -0.63073071438E+01  0.73715487005E+02  0.80043734099E+02  0.00000000000E+00 0. -1.
        -14    1    5    5    0    0  0.11424400859E+02 -0.29057072946E+00 -0.16344201653E+02  0.19943276912E+02  0.00000000000E+00 0.  1.
          5    1    4    4  501    0 -0.19453837117E+02 -0.22747100476E+02 -0.50534660992E+02  0.58882142626E+02  0.41800000000E+01 0. -1.
         -5    1    4    4    0  501  0.84949842631E+02  0.18582936024E+02 -0.64531449998E+03  0.65116056204E+03  0.41800000000E+01 0. -1.
</event>
<event>
11    1  0.8864208E-009  0.2603765E+03  0.7561462E-02  0.1018512E+00
         22   -1    0    0    0    0  0.00000000000E+00  0.00000000000E+00  0.43525209400E+03  0.43525209400E+03  0.00000000000E+00 0.  1.
         22   -1    0    0    0    0 -0.00000000000E+00 -0.00000000000E+00 -0.23937734496E+04  0.23937734496E+04  0.00000000000E+00 0.  1.
        -24    2    1    2    0    0  0.46766537994E+02  0.32796847111E+02 -0.16823577977E+04  0.16852441114E+04  0.80356786387E+02 0.  0.
         25    2    1    2    0    0  0.68496671303E+02 -0.22963441083E+03 -0.64669656250E+03  0.70091977062E+03  0.12509326233E+03 0.  0.
         24    2    1    2    0    0 -0.11526320930E+03  0.19683756372E+03  0.37053300460E+03  0.44286166163E+03  0.82468842192E+02 0.  0.
        -11    1    5    5    0    0 -0.11426087712E+03  0.12202194003E+03  0.26957965037E+03  0.31720354630E+03  0.00000000000E+00 0.  1.
         12    1    5    5    0    0 -0.10023321737E+01  0.74815623693E+02  0.10095335423E+03  0.12565811533E+03  0.00000000000E+00 0. -1.
         13    1    3    3    0    0  0.18203089709E+01 -0.22384621559E+02 -0.21701221514E+03  0.21817123166E+03  0.00000000000E+00 0. -1.
        -14    1    3    3    0    0  0.44946229023E+02  0.55181468671E+02 -0.14653455826E+04  0.14670728797E+04  0.00000000000E+00 0.  1.
          5    1    4    4  501    0 -0.19318662879E+02 -0.43970044977E+02 -0.24549649584E+03  0.25018508641E+03  0.41800000000E+01 0.  1.
         -5    1    4    4    0  501  0.87815334182E+02 -0.18566436586E+03 -0.40120006666E+03  0.45073468422E+03  0.41800000000E+01 0.  1.
</event>
<event>
11    1  0.8864208E-009  0.1403275E+03  0.7561462E-02  0.1107193E+00
         22   -1    0    0    0    0  0.00000000000E+00  0.00000000000E+00  0.12176885798E+04  0.12176885798E+04  0.00000000000E+00 0.  1.
         22   -1    0    0    0    0 -0.00000000000E+00 -0.00000000000E+00 -0.75067461492E+03  0.75067461492E+03  0.00000000000E+00 0. -1.
         24    2    1    2    0    0 -0.62395754630E+02  0.79477629946E+01 -0.59010778409E+03  0.59857264416E+03  0.78138443578E+02 0.  0.
         25    2    1    2    0    0  0.73569027592E+02  0.46783966395E+02 -0.11671998033E+03  0.19202935527E+03  0.12510227075E+03 0.  0.
        -24    2    1    2    0    0 -0.11173272962E+02 -0.54731729389E+02  0.11738417293E+04  0.11777611953E+04  0.78080877534E+02 0.  0.
        -13    1    3    3    0    0 -0.23491531664E+02  0.42312024312E+02 -0.28791814849E+03  0.29195722236E+03  0.00000000000E+00 0.  1.
         14    1    3    3    0    0 -0.38904222966E+02 -0.34364261318E+02 -0.30218963560E+03  0.30661542180E+03  0.00000000000E+00 0. -1.
         11    1    5    5    0    0  0.11457432723E+02  0.13942141779E+02  0.11049669368E+03  0.11196059752E+03  0.00000000000E+00 0. -1.
        -12    1    5    5    0    0 -0.22630705685E+02 -0.68673871168E+02  0.10633450357E+04  0.10658005978E+04  0.00000000000E+00 0.  1.
          5    1    4    4  501    0  0.27768401947E+02 -0.36546104077E+02 -0.67335708153E+01  0.46578055410E+02  0.41800000000E+01 0. -1.
         -5    1    4    4    0  501  0.45800625645E+02  0.83330070472E+02 -0.10998640951E+03  0.14545129986E+03  0.41800000000E+01 0. -1.
</event>
<event>
11    1  0.8864208E-009  0.1449841E+03  0.7561462E-02  0.1102117E+00
         22   -1    0    0    0    0  0.00000000000E+00  0.00000000000E+00  0.32635030511E+03  0.32635030511E+03  0.00000000000E+00 0. -1.
         22   -1    0    0    0    0 -0.00000000000E+00 -0.00000000000E+00 -0.14984999420E+04  0.14984999420E+04  0.00000000000E+00 0.  1.
        -24    2    1    2    0    0 -0.10315344560E+02  0.62553571438E+02 -0.14265051753E+04  0.14301533914E+04  0.80014700268E+02 0.  0.
         25    2    1    2    0    0 -0.44849398068E+02 -0.10083471787E+03  0.66635506864E+02  0.17963056366E+03  0.12509092609E+03 0.  0.
         24    2    1    2    0    0  0.55164742627E+02  0.38281146437E+02  0.18772003151E+03  0.21506629205E+03  0.80660428615E+02 0.  0.
        -11    1    5    5    0    0 -0.62191641359E+01  0.34067296836E+01 -0.57424691323E+01  0.91246787024E+01  0.00000000000E+00 0.  1.
         12    1    5    5    0    0  0.61383906763E+02  0.34874416753E+02  0.19346250065E+03  0.20594161335E+03  0.00000000000E+00 0. -1.
         11    1    3    3    0    0  0.25684539388E+02  0.41342946647E+02 -0.42516678420E+03  0.42794360515E+03  0.00000000000E+00 0. -1.
        -12    1    3    3    0    0 -0.35999883948E+02  0.21210624790E+02 -0.10013383911E+04  0.10022097862E+04  0.00000000000E+00 0.  1.
          5    1    4    4  501    0  0.39625857535E+01 -0.36661938374E+01 -0.32024492227E+02  0.32744214229E+02  0.41800000000E+01 0.  1.
         -5    1    4    4    0  501 -0.48811983821E+02 -0.97168524037E+02  0.98659999091E+02  0.14688634943E+03  0.41800000000E+01 0.  1.
</event>
<event>
11    1  0.8864208E-009  0.2260041E+03  0.7561462E-02  0.1037520E+00
         22   -1    0    0    0    0  0.00000000000E+00  0.00000000000E+00  0.77121669127E+03  0.77121669127E+03  0.00000000000E+00 0. -1.
         22   -1    0    0    0    0 -0.00000000000E+00 -0.00000000000E+00 -0.79968327083E+03  0.79968327083E+03  0.00000000000E+00 0. -1.
        -24    2    1    2    0    0  0.19176822381E+01 -0.51233190545E+02 -0.40579395887E+03  0.41714543192E+03  0.81933247222E+02 0.  0.
         25    2    1    2    0    0  0.20354593557E+02  0.23624290905E+03 -0.32571777505E+03  0.42185951183E+03  0.12509339387E+03 0.  0.
         24    2    1    2    0    0 -0.22272275795E+02 -0.18500971850E+03  0.70304515435E+03  0.73189501835E+03  0.81689525696E+02 0.  0.
        -13    1    5    5    0    0 -0.33278430472E+02 -0.95603222986E+02  0.24523723420E+03  0.26530874697E+03  0.00000000000E+00 0.  1.
         14    1    5    5    0    0  0.11006154677E+02 -0.89406495516E+02  0.45780792016E+03  0.46658627138E+03  0.00000000000E+00 0. -1.
         11    1    3    3    0    0  0.71725497949E+01 -0.66758078909E+02 -0.38426891239E+03  0.39009060948E+03  0.00000000000E+00 0. -1.
        -12    1    3    3    0    0 -0.52548675568E+01  0.15524888364E+02 -0.21525046475E+02  0.27054822445E+02  0.00000000000E+00 0.  1.
          5    1    4    4  501    0  0.47420053212E+02  0.21708696795E+03 -0.22719031623E+03  0.31781806948E+03  0.41800000000E+01 0. -1.
         -5    1    4    4    0  501 -0.27065459655E+02  0.19155941098E+02 -0.98527458821E+02  0.10404144236E+03  0.41800000000E+01 0. -1.
</event>
<event>
11    1  0.8864208E-009  0.1618050E+03  0.7561462E-02  0.1085392E+00
         22   -1    0    0    0    0  0.00000000000E+00  0.00000000000E+00  0.13951155102E+04  0.13951155102E+04  0.00000000000E+00 0. -1.
         22   -1    0    0    0    0 -0.00000000000E+00 -0.00000000000E+00 -0.69318340476E+03  0.69318340476E+03  0.00000000000E+00 0.  1.
         24    2    1    2    0    0  0.92066156764E+01  0.45982073069E+02 -0.54363082578E+03  0.55170202715E+03  0.81495639221E+02 0.  0.
         25    2    1    2    0    0 -0.72606987013E+02 -0.12554917498E+03 -0.77962196021E+02  0.20678101884E+03  0.12508363538E+03 0.  0.
        -24    2    1    2    0    0  0.63400371337E+02  0.79567101915E+02  0.13235251272E+04  0.13298158690E+04  0.79630095648E+02 0.  0.
        -13    1    3    3    0    0  0.39561485402E+01 -0.19805906097E+02 -0.24669118912E+03  0.24751660109E+03  0.00000000000E+00 0.  1.
         14    1    3    3    0    0  0.52504671362E+01  0.65787979166E+02 -0.29693963666E+03  0.30418542606E+03  0.00000000000E+00 0. -1.
         11    1    5    5    0    0  0.53417580870E+02  0.85328574043E+02  0.12969211373E+04  0.13008223706E+04  0.00000000000E+00 0. -1.
        -12    1    5    5    0    0  0.99827904669E+01 -0.57614721277E+01  0.26603989942E+02  0.28993498365E+02  0.00000000000E+00 0.  1.
          5    1    4    4  501    0  0.26220737501E+02 -0.33123071437E+01  0.75304828993E+01  0.27797104641E+02  0.41800000000E+01 0. -1.
         -5    1    4    4    0  501 -0.98827724514E+02 -0.12223686784E+03 -0.85492678920E+02  0.17898391420E+03  0.41800000000E+01 0. -1.
</event>
<event>
11    1  0.8864208E-009  0.1523603E+03  0.7561462E-02  0.1094491E+00
         22   -1    0    0    0    0  0.00000000000E+00  0.00000000000E+00  0.80044586185E+03  0.80044586185E+03  0.00000000000E+00 0. -1.
         22   -1    0    0    0    0 -0.00000000000E+00 -0.00000000000E+00 -0.17116479160E+03  0.17116479160E+03  0.00000000000E+00 0. -1.
        -24    2    1    2    0    0 -0.93749802419E+02  0.15208370348E+02 -0.10553828529E+03  0.16309307878E+03  0.80253988704E+02 0.  0.
         25    2    1    2    0    0 -0.96241007692E+01 -0.29102907520E+02  0.10958547631E+03  0.16910557151E+03  0.12509242645E+03 0.  0.
         24    2    1    2    0    0  0.10337390319E+03  0.13894537172E+02  0.62523387924E+03  0.63941200316E+03  0.83970733071E+02 0.  0.
        -13    1    5    5    0    0  0.13486084638E+02 -0.29872972290E+02  0.19325485056E+03  0.19601455614E+03  0.00000000000E+00 0.  1.
         14    1    5    5    0    0  0.89887818551E+02  0.43767509462E+02  0.43197902868E+03  0.44339744702E+03  0.00000000000E+00 0. -1.
         11    1    3    3    0    0 -0.25245077283E+02  0.43312043286E+02 -0.46751892013E+02  0.68549153368E+02  0.00000000000E+00 0. -1.
        -12    1    3    3    0    0 -0.68504725136E+02 -0.28103672938E+02 -0.58786393277E+02  0.94543925416E+02  0.00000000000E+00 0.  1.
          5    1    4    4  501    0  0.35390939343E+01 -0.26259518034E+02  0.13629117412E+03  0.13890588187E+03  0.41800000000E+01 0.  1.
         -5    1    4    4    0  501 -0.13163194703E+02 -0.28433894855E+01 -0.26705697815E+02  0.30199689640E+02  0.41800000000E+01 0.  1.
</event>
<event>
11    1  0.8864208E-009  0.1750739E+03  0.7561462E-02  0.1073699E+00
         22   -1    0    0    0    0  0.00000000000E+00  0.00000000000E+00  0.41952533918E+03  0.41952533918E+03  0.00000000000E+00 0.  1.
         22   -1    0    0    0    0 -0.00000000000E+00 -0.00000000000E+00 -0.26443759957E+03  0.26443759957E+03  0.00000000000E+00 0.  1.
        -24    2    1    2    0    0 -0.96980635065E+02  0.77041605557E+02 -0.19624528202E+03  0.24554549693E+03  0.80247914500E+02 0.  0.
         25    2    1    2    0    0  0.74133282300E+02 -0.85258758401E+02  0.16714483322E+03  0.23738009941E+03  0.12508843630E+03 0.  0.
         24    2    1    2    0    0  0.22847352765E+02  0.82171528438E+01  0.18418818841E+03  0.20103734241E+03  0.76819275991E+02 0.  0.
        -13    1    5    5    0    0  0.37997064570E+02 -0.57956906331E+01  0.17367424968E+03  0.17787667624E+03  0.00000000000E+00 0.  1.
         14    1    5    5    0    0 -0.15149711805E+02  0.14012843477E+02  0.10513938730E+02  0.23160666176E+02  0.00000000000E+00 0. -1.
         11    1    3    3    0    0  0.14052617349E+02  0.13735007412E+02 -0.29618484390E+02  0.35544072649E+02  0.00000000000E+00 0. -1.
        -12    1    3    3    0    0 -0.11103325241E+03  0.63306598146E+02 -0.16662679763E+03  0.21000142428E+03  0.00000000000E+00 0.  1.
          5    1    4    4  501    0  0.19923367450E+02 -0.10705907825E+03  0.96077572325E+02  0.14528234273E+03  0.41800000000E+01 0. -1.
         -5    1    4    4    0  501  0.54209914850E+02  0.21800319850E+02  0.71067260891E+02  0.92097756672E+02  0.41800000000E+01 0. -1.
</event>
<event>
11    1  0.8864208E-009  0.1291079E+03  0.7561462E-02  0.1120370E+00
         22   -1    0    0    0    0  0.00000000000E+00  0.00000000000E+00  0.52811623011E+03  0.52811623011E+03  0.00000000000E+00 0. -1.
         22   -1    0    0    0    0 -0.00000000000E+00 -0.00000000000E+00 -0.27882608281E+03  0.27882608281E+03  0.00000000000E+00 0. -1.
         24    2    1    2    0    0 -0.25665236963E+02  0.87308680831E+01 -0.12486591662E+03  0.16905116837E+03  0.11068815631E+03 0.  0.
         25    2    1    2    0    0  0.85466920087E+01 -0.53459777130E+02 -0.90632726701E+02  0.16367696015E+03  0.12507942444E+03 0.  0.
        -24    2    1    2    0    0  0.17118544955E+02  0.44728909047E+02  0.46478879062E+03  0.47421418440E+03  0.80973779123E+02 0.  0.
        -11    1    3    3    0    0  0.38213726860E+02  0.34446128124E+01 -0.13721153819E+02  0.40748304751E+02  0.00000000000E+00 0.  1.
         12    1    3    3    0    0 -0.63878963823E+02  0.52862552707E+01 -0.11114476280E+03  0.12830286362E+03  0.00000000000E+00 0. -1.
         11    1    5    5    0    0  0.18131553124E+02 -0.13949592610E+02  0.26495995570E+03  0.26594571341E+03  0.00000000000E+00 0. -1.
        -12    1    5    5    0    0 -0.10130081696E+01  0.58678501657E+02  0.19982883492E+03  0.20826847099E+03  0.00000000000E+00 0.  1.
          5    1    4    4  501    0  0.38555525123E+02  0.11784902706E+02 -0.81681954604E+02  0.91185670789E+02  0.41800000000E+01 0. -1.
         -5    1    4    4    0  501 -0.30008833114E+02 -0.65244679836E+02 -0.89507720969E+01  0.72491289359E+02  0.41800000000E+01 0. -1.
</event>
<event>
11    1  0.8864208E-009  0.1506358E+03  0.7561462E-02  0.1096231E+00
         22   -1    0    0    0    0  0.00000000000E+00  0.00000000000E+00  0.33188970917E+03  0.33188970917E+03  0.00000000000E+00 0.  1.
         22   -1    0    0    0    0 -0.00000000000E+00 -0.00000000000E+00 -0.11151907371E+04  0.11151907371E+04  0.00000000000E+00 0.  1.
        -24    2    1    2    0    0 -0.13862501023E+02  0.15921140727E+02 -0.10314728995E+04  0.10346339642E+04  0.78009267500E+02 0.  0.
         25    2    1    2    0    0 -0.70622799098E+02 -0.28323409922E+02  0.36897895591E+01  0.14645910958E+03  0.12508741315E+03 0.  0.
         24    2    1    2    0    0  0.84485300121E+02  0.12402269194E+02  0.24448208207E+03  0.26598737243E+03  0.60714179731E+02 0.  0.
        -13    1    5    5    0    0  0.58817402800E+02  0.36692332967E+02  0.16766270852E+03  0.18142931957E+03  0.00000000000E+00 0.  1.
         14    1    5    5    0    0  0.25667897321E+02 -0.24290063772E+02  0.76819373552E+02  0.84558052862E+02  0.00000000000E+00 0. -1.
         13    1    3    3    0    0 -0.11712038380E+02  0.53730478303E+01 -0.25199076267E+02  0.28302560497E+02  0.00000000000E+00 0. -1.
        -14    1    3    3    0    0 -0.21504626432E+01  0.10548092897E+02 -0.10062738233E+04  0.10063314037E+04  0.00000000000E+00 0.  1.
          5    1    4    4  501    0 -0.41751774222E+02  0.53626313098E+01  0.60770507351E+02  0.74043875027E+02  0.41800000000E+01 0.  1.
         -5    1    4    4    0  501 -0.28871024876E+02 -0.33686041231E+02 -0.57080717792E+02  0.72415234550E+02  0.41800000000E+01 0.  1.
</event>
<event>
11    1  0.8864208E-009  0.1326692E+03  0.7561462E-02  0.1116032E+00
         22   -1    0    0    0    0  0.00000000000E+00  0.00000000000E+00  0.35004371393E+03  0.35004371393E+03  0.00000000000E+00 0.  1.
         22   -1    0    0    0    0 -0.00000000000E+00 -0.00000000000E+00 -0.13032055554E+04  0.13032055554E+04  0.00000000000E+00 0. -1.
        -24    2    1    2    0    0  0.14120572666E+02 -0.30126202929E+02 -0.11932762728E+04  0.11964874503E+04  0.81036886193E+02 0.  0.
         25    2    1    2    0    0 -0.30959527607E+02 -0.12280857302E+02 -0.60100511366E+02  0.14271930668E+03  0.12508963677E+03 0.  0.
         24    2    1    2    0    0  0.16838954941E+02  0.42407060231E+02  0.30021494270E+03  0.31404251231E+03  0.80073582159E+02 0.  0.
        -13    1    5    5    0    0  0.52467307082E+01  0.57269058142E+02  0.28209370197E+03  0.28789604008E+03  0.00000000000E+00 0.  1.
         14    1    5    5    0    0  0.11592224233E+02 -0.14861997911E+02  0.18121240723E+02  0.26146472227E+02  0.00000000000E+00 0. -1.
         13    1    3    3    0    0  0.26332040068E+02 -0.26250289354E+02 -0.11632251304E+04  0.11638192120E+04  0.00000000000E+00 0. -1.
        -14    1    3    3    0    0 -0.12211467402E+02 -0.38759135753E+01 -0.30051142337E+02  0.32668238366E+02  0.00000000000E+00 0.  1.
          5    1    4    4  501    0  0.17666404119E+02  0.47211889251E+02 -0.12045275969E+02  0.51996397898E+02  0.41800000000E+01 0. -1.
         -5    1    4    4    0  501 -0.48625931725E+02 -0.59492746554E+02 -0.48055235397E+02  0.90722908781E+02  0.41800000000E+01 0. -1.
</event>
<event>
11    1  0.8864208E-009  0.1382126E+03  0.7561462E-02  0.1109571E+00
         22   -1    0    0    0    0  0.00000000000E+00  0.00000000000E+00  0.10745605651E+04  0.10745605651E+04  0.00000000000E+00 0.  1.
         22   -1    0    0    0    0 -0.00000000000E+00 -0.00000000000E+00 -0.95137821647E+02  0.95137821647E+02  0.00000000000E+00 0. -1.
        -24    2    1    2    0    0 -0.41434098989E+02  0.72711202635E+01 -0.45810232416E+02  0.10668196576E+03  0.86676471295E+02 0.  0.
         25    2    1    2    0    0  0.86522758618E+02 -0.22302522782E+02  0.41444549947E+03  0.44203717430E+03  0.12509277019E+03 0.  0.
         24    2    1    2    0    0 -0.45088659628E+02  0.15031402519E+02  0.61078747639E+03  0.62097924667E+03  0.10146404878E+03 0.  0.
        -11    1    5    5    0    0 -0.28402425166E+02  0.46852824803E+02  0.52662893931E+03  0.52947136340E+03  0.00000000000E+00 0.  1.
         12    1    5    5    0    0 -0.16686234462E+02 -0.31821422284E+02  0.84158537081E+02  0.91507883269E+02  0.00000000000E+00 0. -1.
         13    1    3    3    0    0 -0.34141372181E+02  0.43602621873E+02 -0.12316309882E+02  0.56731943539E+02  0.00000000000E+00 0. -1.
        -14    1    3    3    0    0 -0.72927268077E+01 -0.36331501609E+02 -0.33493922534E+02  0.49950022224E+02  0.00000000000E+00 0.  1.
          5    1    4    4  501    0  0.64401727750E+02 -0.49158265211E+02  0.39225982902E+03  0.40056131046E+03  0.41800000000E+01 0.  1.
         -5    1    4    4    0  501  0.22121030868E+02  0.26855742429E+02  0.22185670451E+02  0.41475863842E+02  0.41800000000E+01 0.  1.
</event>
<event>
11    1  0.8864208E-009  0.1477132E+03  0.7561462E-02  0.1099239E+00
         22   -1    0    0    0    0  0.00000000000E+00  0.00000000000E+00  0.73125356191E+03  0.73125356191E+03  0.00000000000E+00 0.  1.
         22   -1    0    0    0    0 -0.00000000000E+00 -0.00000000000E+00 -0.10935628675E+03  0.10935628675E+03  0.00000000000E+00 0. -1.
         24    2    1    2    0    0 -0.16103258649E+01 -0.84506126075E+02 -0.96110794656E+01  0.11815168767E+03  0.81997377743E+02 0.  0.
         25    2    1    2    0    0 -0.42574464594E+02  0.61654656198E+02  0.86684847421E+02  0.16963415086E+03  0.12509037013E+03 0.  0.
        -24    2    1    2    0    0  0.44184790459E+02  0.22851469877E+02  0.54482350720E+03  0.55282401014E+03  0.79418176798E+02 0.  0.
        -13    1    3    3    0    0  0.11781482815E+02 -0.87165223393E+02  0.15742581422E+02  0.89355516765E+02  0.00000000000E+00 0.  1.
         14    1    3    3    0    0 -0.13391808680E+02  0.26590973183E+01 -0.25353660888E+02  0.28796170903E+02  0.00000000000E+00 0. -1.
         13    1    5    5    0    0 -0.42420570809E+01 -0.93929394028E+01  0.85146482803E+01  0.13368679600E+02  0.00000000000E+00 0. -1.
        -14    1    5    5    0    0  0.48426847540E+02  0.32244409280E+02  0.53630885892E+03  0.53945533054E+03  0.00000000000E+00 0.  1.
          5    1    4    4  501    0  0.38905159137E+02  0.49022061520E+02  0.44630067494E+02  0.76981096691E+02  0.41800000000E+01 0.  1.
         -5    1    4    4    0  501 -0.81479623731E+02  0.12632594678E+02  0.42054779927E+02  0.92653054166E+02  0.41800000000E+01 0.  1.
</event>
<event>
11    1  0.8864208E-009  0.3757592E+03  0.7561462E-02  0.9724120E-01
         22   -1    0    0    0    0  0.00000000000E+00  0.00000000000E+00  0.69720610747E+03  0.69720610747E+03  0.00000000000E+00 0. -1.
         22   -1    0    0    0    0 -0.00000000000E+00 -0.00000000000E+00 -0.10449731754E+04  0.10449731754E+04  0.00000000000E+00 0.  1.
        -24    2    1    2    0    0 -0.34115391924E+03 -0.18112799797E+02 -0.79003159122E+03  0.86727182614E+03  0.10628468925E+03 0.  0.
         25    2    1    2    0    0  0.43638462462E+03  0.91690589327E+02  0.62949495644E+02  0.46738517716E+03  0.12509020766E+03 0.  0.
         24    2    1    2    0    0 -0.95230705382E+02 -0.73577789531E+02  0.37931502766E+03  0.40752227955E+03  0.87817650611E+02 0.  0.
        -11    1    5    5    0    0 -0.50455100942E+02  0.12120534284E+02  0.11859533802E+03  0.12945068081E+03  0.00000000000E+00 0.  1.
         12    1    5    5    0    0 -0.44775604440E+02 -0.85698323814E+02  0.26071968965E+03  0.27807159874E+03  0.00000000000E+00 0. -1.
         11    1    3    3    0    0 -0.14904541986E+03  0.36200189570E+02 -0.27465457538E+03  0.31457928521E+03  0.00000000000E+00 0. -1.
        -12    1    3    3    0    0 -0.19210849938E+03 -0.54312989367E+02 -0.51537701584E+03  0.55269254093E+03  0.00000000000E+00 0.  1.
          5    1    4    4  501    0  0.78798294051E+02  0.54405890180E+02  0.48806443401E+02  0.10755795344E+03  0.41800000000E+01 0. -1.
         -5    1    4    4    0  501  0.35758633057E+03  0.37284699147E+02  0.14143052243E+02  0.35982722372E+03  0.41800000000E+01 0. -1.
</event>
<event>
11    1  0.8864208E-009  0.1661026E+03  0.7561462E-02  0.1081474E+00
         22   -1    0    0    0    0  0.00000000000E+00  0.00000000000E+00  0.16274476651E+04  0.16274476651E+04  0.00000000000E+00 0.  1.
         22   -1    0    0    0    0 -0.00000000000E+00 -0.00000000000E+00 -0.13800900905E+03  0.13800900905E+03  0.00000000000E+00 0.  1.
        -24    2    1    2    0    0  0.31262382273E+02  0.95848527262E+02 -0.56576380227E+02  0.14017306925E+03  0.79267432285E+02 0.  0.
         25    2    1    2    0    0 -0.91204226211E+02 -0.15179863779E+03  0.27986326145E+03  0.35402354937E+03  0.12509272994E+03 0.  0.
         24    2    1    2    0    0  0.59941843938E+02  0.55950110531E+02  0.12661517748E+04  0.12712600555E+04  0.78983367608E+02 0.  0.
        -11    1    5    5    0    0  0.75484444961E+02  0.55757088975E+02  0.11793251535E+04  0.11830530724E+04  0.00000000000E+00 0.  1.
         12    1    5    5    0    0 -0.15542601023E+02  0.19302155651E+00  0.86826621272E+02  0.88206983088E+02  0.00000000000E+00 0. -1.
         11    1    3    3    0    0  0.15335831483E+02 -0.10218381489E+02  0.97111399829E+00  0.18453891458E+02  0.00000000000E+00 0. -1.
        -12    1    3    3    0    0  0.15926550790E+02  0.10606690875E+03 -0.57547494226E+02  0.12171917780E+03  0.00000000000E+00 0.  1.
          5    1    4    4  501    0 -0.18156662247E+02  0.63040586235E+00 -0.79131613915E+01  0.20252217624E+02  0.41800000000E+01 0. -1.
         -5    1    4    4    0  501 -0.73047563965E+02 -0.15242904366E+03  0.28777642284E+03  0.33377133174E+03  0.41800000000E+01 0. -1.
</event>
<event>
11    1  0.8864208E-009  0.1750247E+03  0.7561462E-02  0.1073740E+00
         22   -1    0    0    0    0  0.00000000000E+00  0.00000000000E+00  0.77895361365E+03  0.77895361365E+03  0.00000000000E+00 0. -1.
         22   -1    0    0    0    0 -0.00000000000E+00 -0.00000000000E+00 -0.22504724852E+03  0.22504724852E+03  0.00000000000E+00 0.  1.
         24    2    1    2    0    0 -0.14914086176E+02 -0.35464636397E+02 -0.93418772873E+02  0.12895452215E+03  0.80137577053E+02 0.  0.
         25    2    1    2    0    0 -0.10835867594E+03  0.26642938989E+02 -0.39802326558E+02  0.17228946743E+03  0.12509191236E+03 0.  0.
        -24    2    1    2    0    0  0.12327276211E+03  0.88216974074E+01  0.68712746456E+03  0.70275687259E+03  0.80306121749E+02 0.  0.
        -11    1    3    3    0    0  0.19324993190E+02  0.15353614918E+02 -0.13138641187E+02  0.27960914597E+02  0.00000000000E+00 0.  1.
         12    1    3    3    0    0 -0.34239079366E+02 -0.50818251314E+02 -0.80280131686E+02  0.10099360755E+03  0.00000000000E+00 0. -1.
         13    1    5    5    0    0  0.57342308321E+02  0.79525312041E+01  0.51809671234E+03  0.52132100132E+03  0.00000000000E+00 0. -1.
        -14    1    5    5    0    0  0.65930453794E+02  0.86916620332E+00  0.16903075222E+03  0.18143587127E+03  0.00000000000E+00 0.  1.
          5    1    4    4  501    0 -0.17765823413E+02  0.66212670111E+02 -0.16590590624E+02  0.70657358159E+02  0.41800000000E+01 0. -1.
         -5    1    4    4    0  501 -0.90592852526E+02 -0.39569731121E+02 -0.23211735935E+02  0.10163210927E+03  0.41800000000E+01 0. -1.
</event>
<event>
11    1  0.8864208E-009  0.1927318E+03  0.7561462E-02  0.1059786E+00
         22   -1    0    0    0    0  0.00000000000E+00  0.00000000000E+00  0.12656092325E+03  0.12656092325E+03  0.00000000000E+00 0.  1.
         22   -1    0    0    0    0 -0.00000000000E+00 -0.00000000000E+00 -0.14710236505E+04  0.14710236505E+04  0.00000000000E+00 0. -1.
         24    2    1    2    0    0  0.74810041163E+02  0.22636705335E+02 -0.99139785936E+03  0.99755479327E+03  0.78338287857E+02 0.  0.
         25    2    1    2    0    0 -0.19535646252E+03  0.44853175653E+02 -0.36979260561E+03  0.43882864004E+03  0.12509216336E+03 0.  0.
        -24    2    1    2    0    0  0.12054642136E+03 -0.67489880989E+02  0.16727737769E+02  0.16120114040E+03  0.81361334288E+02 0.  0.
        -13    1    3    3    0    0  0.29755118469E+01 -0.17845551591E+02 -0.64282985396E+02  0.66780383301E+02  0.00000000000E+00 0.  1.
         14    1    3    3    0    0  0.71834529316E+02  0.40482256927E+02 -0.92711487396E+03  0.93077440997E+03  0.00000000000E+00 0. -1.
         13    1    5    5    0    0  0.30146739381E+02 -0.44552943856E+02 -0.24646850415E+02  0.59171428384E+02  0.00000000000E+00 0. -1.
        -14    1    5    5    0    0  0.90399681979E+02 -0.22936937132E+02  0.41374588184E+02  0.10202971202E+03  0.00000000000E+00 0.  1.
          5    1    4    4  501    0  0.72588241859E+01 -0.20434080019E+02 -0.22958986673E+02  0.31856390628E+02  0.41800000000E+01 0.  1.
         -5    1    4    4    0  501 -0.20261528671E+03  0.65287255672E+02 -0.34683361894E+03  0.40697224941E+03  0.41800000000E+01 0.  1.
</event>
<event>
11    1  0.8864208E-009  0.1979806E+03  0.7561462E-02  0.1055961E+00
         22   -1    0    0    0    0  0.00000000000E+00  0.00000000000E+00  0.12164771773E+03  0.12164771773E+03  0.00000000000E+00 0.  1.
         22   -1    0    0    0    0 -0.00000000000E+00 -0.00000000000E+00 -0.18554801300E+04  0.18554801300E+04  0.00000000000E+00 0. -1.
         24    2    1    2    0    0 -0.11063699915E+03 -0.39900361181E+02 -0.13002159535E+04  0.13079582128E+04  0.79753220814E+02 0.  0.
         25    2    1    2    0    0  0.20663533156E+03  0.13822637688E+03 -0.42753525489E+03  0.51013561174E+03  0.12508899504E+03 0.  0.
        -24    2    1    2    0    0 -0.95998332404E+02 -0.98326015698E+02 -0.60812038582E+01  0.15903402319E+03  0.79819510798E+02 0.  0.
        -13    1    3    3    0    0 -0.39049918859E+02  0.21051381460E+01 -0.15940797748E+03  0.16413479538E+03  0.00000000000E+00 0.  1.
         14    1    3    3    0    0 -0.71587080293E+02 -0.42005499327E+02 -0.11408079760E+04  0.11438234174E+04  0.00000000000E+00 0. -1.
         13    1    5    5    0    0 -0.47957612993E+01  0.10480048157E+02 -0.12387517990E+02  0.16919850406E+02  0.00000000000E+00 0. -1.
        -14    1    5    5    0    0 -0.91202571105E+02 -0.10880606386E+03  0.63063141317E+01  0.14211417278E+03  0.00000000000E+00 0.  1.
          5    1    4    4  501    0  0.16769693171E+03  0.14907213268E+03 -0.40660902224E+03  0.46442774575E+03  0.41800000000E+01 0.  1.
         -5    1    4    4    0  501  0.38938399844E+02 -0.10845755799E+02 -0.20926232649E+02  0.45707865998E+02  0.41800000000E+01 0.  1.
</event>
<event>
11    1  0.8864208E-009  0.1389324E+03  0.7561462E-02  0.1108756E+00
         22   -1    0    0    0    0  0.00000000000E+00  0.00000000000E+00  0.14130405711E+04  0.14130405711E+04  0.00000000000E+00 0. -1.
         22   -1    0    0    0    0 -0.00000000000E+00 -0.00000000000E+00 -0.43369658257E+03  0.43369658257E+03  0.00000000000E+00 0.  1.
         24    2    1    2    0    0 -0.58604614136E+01  0.42453577617E+02 -0.36225645698E+03  0.37302042625E+03  0.77960544586E+02 0.  0.
         25    2    1    2    0    0 -0.60460202078E+01 -0.10053651710E+03  0.36313638305E+02  0.16465481993E+03  0.12509350010E+03 0.  0.
        -24    2    1    2    0    0  0.11906481621E+02  0.58082939483E+02  0.13052868072E+04  0.13090619075E+04  0.79712209791E+02 0.  0.
        -11    1    3    3    0    0 -0.26327082974E+02  0.56539668279E+02 -0.28939265552E+03  0.29603708966E+03  0.00000000000E+00 0.  1.
         12    1    3    3    0    0  0.20466621560E+02 -0.14086090662E+02 -0.72863801465E+02  0.76983336587E+02  0.00000000000E+00 0. -1.
         11    1    5    5    0    0  0.11282066138E+02  0.18199533375E+02  0.10838285342E+04  0.10840400359E+04  0.00000000000E+00 0. -1.
        -12    1    5    5    0    0  0.62441548309E+00  0.39883406109E+02  0.22145827300E+03  0.22502187151E+03  0.00000000000E+00 0.  1.
          5    1    4    4  501    0  0.10509642146E+02 -0.65726845539E+02  0.81372226438E+02  0.10521113267E+03  0.41800000000E+01 0.  1.
         -5    1    4    4    0  501 -0.16555662354E+02 -0.34809671561E+02 -0.45058588134E+02  0.59443687258E+02  0.41800000000E+01 0.  1.
</event>
<event>
11    1  0.8864208E-009  0.1641891E+03  0.7561462E-02  0.1083202E+00
         22   -1    0    0    0    0  0.00000000000E+00  0.00000000000E+00  0.63832279939E+03  0.63832279939E+03  0.00000000000E+00 0.  1.
         22   -1    0    0    0    0 -0.00000000000E+00 -0.00000000000E+00 -0.17859102852E+03  0.17859102852E+03  0.00000000000E+00 0.  1.
         24    2    1    2    0    0  0.39917173613E+02  0.97121968621E+01 -0.12444300793E+03  0.15332653875E+03  0.79594332371E+02 0.  0.
         25    2    1    2    0    0 -0.10389135393E+03 -0.82161312231E+02  0.26238408407E+03  0.31943281336E+03  0.12509204623E+03 0.  0.
        -24    2    1    2    0    0  0.63974180318E+02  0.72449115369E+02  0.32179069473E+03  0.34415447580E+03  0.74508267538E+02 0.  0.
        -13    1    3    3    0    0  0.33224629864E+02 -0.12786262868E+02 -0.12487436884E+03  0.12984980762E+03  0.00000000000E+00 0.  1.
         14    1    3    3    0    0  0.66925437494E+01  0.22498459731E+02  0.43136090883E+00  0.23476731125E+02  0.00000000000E+00 0. -1.
         13    1    5    5    0    0 -0.52177147627E-01  0.13742033465E+02  0.34416070445E+01  0.14166540342E+02  0.00000000000E+00 0. -1.
        -14    1    5    5    0    0  0.64026357466E+02  0.58707081904E+02  0.31834908769E+03  0.32998793546E+03  0.00000000000E+00 0.  1.
          5    1    4    4  501    0 -0.57729162174E+02 -0.28282248949E+02  0.23432926825E+03  0.24302308559E+03  0.41800000000E+01 0.  1.
         -5    1    4    4    0  501 -0.46162191757E+02 -0.53879063283E+02  0.28054815822E+02  0.76409727776E+02  0.41800000000E+01 0.  1.
</event>
<event>
11    1  0.8864208E-009  0.1372347E+03  0.7561462E-02  0.1110686E+00
         22   -1    0    0    0    0  0.00000000000E+00  0.00000000000E+00  0.51319986234E+03  0.51319986234E+03  0.00000000000E+00 0. -1.
         22   -1    0    0    0    0 -0.00000000000E+00 -0.00000000000E+00 -0.22797796900E+03  0.22797796900E+03  0.00000000000E+00 0.  1.
        -24    2    1    2    0    0 -0.46112711087E+02  0.54088569269E+02 -0.18274732459E+03  0.21202036006E+03  0.80647957106E+02 0.  0.
         25    2    1    2    0    0 -0.12595463192E+02  0.13492639422E+02  0.22817168881E+03  0.26086861269E+03  0.12509762786E+03 0.  0.
         24    2    1    2    0    0  0.58708174279E+02 -0.67581208691E+02  0.23979752912E+03  0.26828885860E+03  0.80387730296E+02 0.  0.
        -13    1    5    5    0    0  0.79001637694E+02 -0.56237743698E+02  0.18912271287E+03  0.21253551020E+03  0.00000000000E+00 0.  1.
         14    1    5    5    0    0 -0.20293463415E+02 -0.11343464992E+02  0.50674816250E+02  0.55753348396E+02  0.00000000000E+00 0. -1.
         13    1    3    3    0    0 -0.47647998055E+02  0.46760954988E+02 -0.62215240831E+02  0.91255985128E+02  0.00000000000E+00 0. -1.
        -14    1    3    3    0    0  0.15352869682E+01  0.73276142815E+01 -0.12053208376E+03  0.12076437493E+03  0.00000000000E+00 0.  1.
          5    1    4    4  501    0 -0.52985430297E+02 -0.27369500839E+02  0.16438974900E+03  0.17492286121E+03  0.41800000000E+01 0.  1.
         -5    1    4    4    0  501  0.40389967105E+02  0.40862140260E+02  0.63781939817E+02  0.85945751473E+02  0.41800000000E+01 0.  1.
</event>
<event>
11    1  0.8864208E-009  0.1757341E+03  0.7561462E-02  0.1073147E+00
         22   -1    0    0    0    0  0.00000000000E+00  0.00000000000E+00  0.16879215935E+04  0.16879215935E+04  0.00000000000E+00 0.  1.
         22   -1    0    0    0    0 -0.00000000000E+00 -0.00000000000E+00 -0.65894713976E+03  0.65894713976E+03  0.00000000000E+00 0. -1.
        -24    2    1    2    0    0  0.11609403740E+03 -0.32099210213E+02 -0.56498832466E+03  0.58293609300E+03  0.78067257572E+02 0.  0.
         25    2    1    2    0    0 -0.15873213486E+03  0.50695314507E+02  0.46198288365E+02  0.21341994719E+03  0.12509151235E+03 0.  0.
         24    2    1    2    0    0  0.42638097457E+02 -0.18596104293E+02  0.15477644900E+04  0.15505126931E+04  0.79692360108E+02 0.  0.
        -11    1    5    5    0    0  0.65193354521E+02 -0.44962962477E+01  0.11568986470E+04  0.11587427970E+04  0.00000000000E+00 0.  1.
         12    1    5    5    0    0 -0.22555257064E+02 -0.14099808046E+02  0.39086584305E+03  0.39176989608E+03  0.00000000000E+00 0. -1.
         13    1    3    3    0    0  0.74738848799E+02  0.15231699106E+02 -0.37946693589E+03  0.38705691521E+03  0.00000000000E+00 0. -1.
        -14    1    3    3    0    0  0.41355188603E+02 -0.47330909319E+02 -0.18552138877E+03  0.19587917779E+03  0.00000000000E+00 0.  1.
          5    1    4    4  501    0 -0.17062141827E+02  0.32146108987E+02 -0.33604681852E+02  0.49711528332E+02  0.41800000000E+01 0. -1.
         -5    1    4    4    0  501 -0.14166999303E+03  0.18549205519E+02  0.79802970217E+02  0.16370841886E+03  0.41800000000E+01 0. -1.
</event>
<event>
11    1  0.8864208E-009  0.1288280E+03  0.7561462E-02  0.1120717E+00
         22   -1    0    0    0    0  0.00000000000E+00  0.00000000000E+00  0.29644915056E+03  0.29644915056E+03  0.00000000000E+00 0.  1.
         22   -1    0    0    0    0 -0.00000000000E+00 -0.00000000000E+00 -0.63679623647E+03  0.63679623647E+03  0.00000000000E+00 0.  1.
        -24    2    1    2    0    0 -0.18533278660E+02  0.24518135016E+02 -0.49459485227E+03  0.50215158547E+03  0.81163572722E+02 0.  0.
         25    2    1    2    0    0  0.14790486693E+02 -0.28347653136E+02 -0.10036479881E+03  0.16352954427E+03  0.12508585481E+03 0.  0.
         24    2    1    2    0    0  0.37427919677E+01  0.38295181204E+01  0.25461256517E+03  0.26756425730E+03  0.82063388549E+02 0.  0.
        -11    1    5    5    0    0 -0.33249490577E+02  0.22701292018E+02  0.13932593497E+03  0.14502618191E+03  0.00000000000E+00 0.  1.
         12    1    5    5    0    0  0.36992282544E+02 -0.18871773898E+02  0.11528663020E+03  0.12253807539E+03  0.00000000000E+00 0. -1.
         11    1    3    3    0    0  0.31072881394E+02 -0.41496778394E+00 -0.19384314184E+03  0.19631826149E+03  0.00000000000E+00 0. -1.
        -12    1    3    3    0    0 -0.49606160054E+02  0.24933102800E+02 -0.30075171043E+03  0.30583332398E+03  0.00000000000E+00 0.  1.
          5    1    4    4  501    0 -0.40694632254E+02 -0.22808539624E+02  0.20081986750E+01  0.46880569919E+02  0.41800000000E+01 0.  1.
         -5    1    4    4    0  501  0.55485118946E+02 -0.55391135122E+01 -0.10237299748E+03  0.11664897435E+03  0.41800000000E+01 0.  1.
</event>
<event>
11    1  0.8864208E-009  0.1753354E+03  0.7561462E-02  0.1073480E+00
         22   -1    0    0    0    0  0.00000000000E+00  0.00000000000E+00  0.49738150020E+03  0.49738150020E+03  0.00000000000E+00 0.  1.
         22   -1    0    0    0    0 -0.00000000000E+00 -0.00000000000E+00 -0.15713913166E+04  0.15713913166E+04  0.00000000000E+00 0. -1.
         24    2    1    2    0    0  0.44347088931E+02 -0.10653574166E+03 -0.11045790290E+04  0.11136216825E+04  0.82109025609E+02 0.  0.
         25    2    1    2    0    0 -0.13189508900E+03  0.12158164351E+03 -0.42826645651E+03  0.48087162213E+03  0.12508776382E+03 0.  0.
        -24    2    1    2    0    0  0.87548000072E+02 -0.15045901851E+02  0.45883566904E+03  0.47427951215E+03  0.80745606599E+02 0.  0.
        -11    1    3    3    0    0 -0.13242954536E+01 -0.65771260318E+02 -0.81455898055E+03  0.81721107753E+03  0.00000000000E+00 0.  1.
         12    1    3    3    0    0  0.45671384385E+02 -0.40764481340E+02 -0.29002004840E+03  0.29641060502E+03  0.00000000000E+00 0. -1.
         13    1    5    5    0    0 -0.15745532930E+02 -0.76659902743E+00  0.61778325288E+02  0.63757908974E+02  0.00000000000E+00 0. -1.
        -14    1    5    5    0    0  0.10329353300E+03 -0.14279302823E+02  0.39705734375E+03  0.41052160318E+03  0.00000000000E+00 0.  1.
          5    1    4    4  501    0 -0.27450554031E+01  0.51153651316E+02 -0.21957484509E+03  0.22551012476E+03  0.41800000000E+01 0. -1.
         -5    1    4    4    0  501 -0.12915003360E+03  0.70427992192E+02 -0.20869161142E+03  0.25536149737E+03  0.41800000000E+01 0. -1.
</event>
<event>
11    1  0.8864208E-009  0.1760275E+03  0.7561462E-02  0.1072902E+00
         22   -1    0    0    0    0  0.00000000000E+00  0.00000000000E+00  0.35167152835E+03  0.35167152835E+03  0.00000000000E+00 0. -1.
         22   -1    0    0    0    0 -0.00000000000E+00 -0.00000000000E+00 -0.20263352298E+04  0.20263352298E+04  0.00000000000E+00 0. -1.
         24    2    1    2    0    0 -0.61682445396E+01 -0.14456467416E+02 -0.18144779416E+04  0.18164437846E+04  0.83010754798E+02 0.  0.
         25    2    1    2    0    0 -0.25167844273E+02  0.13319966394E+03 -0.14922337774E+03  0.23725612018E+03  0.12508908521E+03 0.  0.
        -24    2    1    2    0    0  0.31336088813E+02 -0.11874319652E+03  0.28903761798E+03  0.32430685328E+03  0.80933882272E+02 0.  0.
        -13    1    3    3    0    0 -0.42214773236E+02  0.59790881692E+01 -0.83034667999E+03  0.83144058450E+03  0.00000000000E+00 0.  1.
         14    1    3    3    0    0  0.36046528697E+02 -0.20435555585E+02 -0.98413126164E+03  0.98500320015E+03  0.00000000000E+00 0. -1.
         11    1    5    5    0    0  0.26191820995E+02 -0.12806717927E+03  0.28376158018E+03  0.31242254765E+03  0.00000000000E+00 0. -1.
        -12    1    5    5    0    0  0.51442678174E+01  0.93239827475E+01  0.52760377995E+01  0.11884305639E+02  0.00000000000E+00 0.  1.
          5    1    4    4  501    0 -0.37089414376E+02 -0.15418768676E+01 -0.72827897012E+02  0.81849722212E+02  0.41800000000E+01 0. -1.
         -5    1    4    4    0  501  0.11921570103E+02  0.13474154081E+03 -0.76395480732E+02  0.15540639797E+03  0.41800000000E+01 0. -1.
</event>
<event>
11    1  0.8864208E-009  0.1864698E+03  0.7561462E-02  0.1064526E+00
         22   -1    0    0    0    0  0.00000000000E+00  0.00000000000E+00  0.24959836435E+03  0.24959836435E+03  0.00000000000E+00 0.  1.
         22   -1    0    0    0    0 -0.00000000000E+00 -0.00000000000E+00 -0.63772631555E+03  0.63772631555E+03  0.00000000000E+00 0.  1.
         24    2    1    2    0    0  0.28224553617E+02  0.20606556473E+02 -0.24449927216E+03  0.25942835447E+03  0.79384642188E+02 0.  0.
         25    2    1    2    0    0  0.95930567330E+02 -0.84153516451E+02 -0.33373597329E+03  0.37856596970E+03  0.12509198801E+03 0.  0.
        -24    2    1    2    0    0 -0.12415512095E+03  0.63546959978E+02  0.19010729425E+03  0.24933035574E+03  0.81068691785E+02 0.  0.
        -11    1    3    3    0    0 -0.21211032605E+02  0.29261761607E+02 -0.11494379741E+03  0.12049163938E+03  0.00000000000E+00 0.  1.
         12    1    3    3    0    0  0.49435586222E+02 -0.86552051339E+01 -0.12955547475E+03  0.13893671509E+03  0.00000000000E+00 0. -1.
         11    1    5    5    0    0 -0.97986679004E+02  0.72390935826E+01  0.12958191522E+03  0.16262000643E+03  0.00000000000E+00 0. -1.
        -12    1    5    5    0    0 -0.26168441942E+02  0.56307866395E+02  0.60525379030E+02  0.86710349316E+02  0.00000000000E+00 0.  1.
          5    1    4    4  501    0  0.45082140250E+02 -0.33099929716E+02 -0.28734242124E+03  0.29276465661E+03  0.41800000000E+01 0.  1.
         -5    1    4    4    0  501  0.50848427080E+02 -0.51053586735E+02 -0.46393552048E+02  0.85801313082E+02  0.41800000000E+01 0.  1.
</event>
<event>
11    1  0.8864208E-009  0.1662130E+03  0.7561462E-02  0.1081375E+00
         22   -1    0    0    0    0  0.00000000000E+00  0.00000000000E+00  0.47574239844E+02  0.47574239844E+02  0.00000000000E+00 0. -1.
         22   -1    0    0    0    0 -0.00000000000E+00 -0.00000000000E+00 -0.32258953903E+04  0.32258953903E+04  0.00000000000E+00 0. -1.
        -24    2    1    2    0    0  0.54909333415E+02  0.98995115835E+02 -0.25076597794E+04  0.25115194349E+04  0.80976754918E+02 0.  0.
         25    2    1    2    0    0  0.25758611003E+02 -0.10918796552E+03 -0.59064145224E+03  0.61407627924E+03  0.12508730459E+03 0.  0.
         24    2    1    2    0    0 -0.80667944418E+02  0.10192849683E+02 -0.80019918783E+02  0.14787391596E+03  0.94086641869E+02 0.  0.
        -13    1    5    5    0    0 -0.56168933277E+01 -0.34069909349E+02 -0.37314930843E+02  0.50840065672E+02  0.00000000000E+00 0.  1.
         14    1    5    5    0    0 -0.75051051090E+02  0.44262759032E+02 -0.42704987940E+02  0.97033850289E+02  0.00000000000E+00 0. -1.
         11    1    3    3    0    0  0.52599894621E+02  0.10518219853E+03 -0.18042079507E+04  0.18080366072E+04  0.00000000000E+00 0. -1.
        -12    1    3    3    0    0  0.23094387941E+01 -0.61870827003E+01 -0.70345182875E+03  0.70348282770E+03  0.00000000000E+00 0.  1.
          5    1    4    4  501    0  0.16352698891E+02 -0.13114980755E+03 -0.55774290202E+03  0.57320354145E+03  0.41800000000E+01 0. -1.
         -5    1    4    4    0  501  0.94059121117E+01  0.21961842028E+02 -0.32898550220E+02  0.40872737790E+02  0.41800000000E+01 0. -1.
</event>
<event>
11    1  0.8864208E-009  0.1470197E+03  0.7561462E-02  0.1099964E+00
         22   -1    0    0    0    0  0.00000000000E+00  0.00000000000E+00  0.24254180709E+04  0.24254180709E+04  0.00000000000E+00 0. -1.
         22   -1    0    0    0    0 -0.00000000000E+00 -0.00000000000E+00 -0.24938743490E+03  0.24938743490E+03  0.00000000000E+00 0.  1.
         24    2    1    2    0    0  0.30259337710E+02 -0.72292979005E+02 -0.22254092608E+03  0.24938154247E+03  0.80776157456E+02 0.  0.
         25    2    1    2    0    0  0.90200435070E+01  0.53323040802E+02  0.36243452550E+03  0.38720936297E+03  0.12509035789E+03 0.  0.
        -24    2    1    2    0    0 -0.39279381217E+02  0.18969938203E+02  0.20361370366E+04  0.20382146003E+04  0.81006154000E+02 0.  0.
        -13    1    3    3    0    0  0.24938214505E+02 -0.50802549996E+02 -0.21992293648E+03  0.22708789403E+03  0.00000000000E+00 0.  1.
         14    1    3    3    0    0  0.53211232054E+01 -0.21490429010E+02 -0.26179896060E+01  0.22293648440E+02  0.00000000000E+00 0. -1.
         13    1    5    5    0    0 -0.62544345948E+02  0.14081928884E+01  0.13106699238E+04  0.13121621193E+04  0.00000000000E+00 0. -1.
        -14    1    5    5    0    0  0.23264964731E+02  0.17561745315E+02  0.72546711276E+03  0.72605248101E+03  0.00000000000E+00 0.  1.
          5    1    4    4  501    0 -0.42201201148E+02  0.31333778317E+02  0.60975323991E+02  0.80611472991E+02  0.41800000000E+01 0. -1.
         -5    1    4    4    0  501  0.51221244655E+02  0.21989262485E+02  0.30145920151E+03  0.30659788998E+03  0.41800000000E+01 0. -1.
</event>
<event>
11    1  0.8864208E-009  0.1294674E+03  0.7561462E-02  0.1119925E+00
         22   -1    0    0    0    0  0.00000000000E+00  0.00000000000E+00  0.93501470164E+03  0.93501470164E+03  0.00000000000E+00 0. -1.
         22   -1    0    0    0    0 -0.00000000000E+00 -0.00000000000E+00 -0.12559823463E+04  0.12559823463E+04  0.00000000000E+00 0.  1.
        -24    2    1    2    0    0 -0.11286313938E+02 -0.26747249362E+02 -0.12389726227E+04  0.12417192102E+04  0.77269922384E+02 0.  0.
         25    2    1    2    0    0 -0.81183717138E+01 -0.11516143559E+02  0.36680675798E+03  0.38780453442E+03  0.12508648884E+03 0.  0.
         24    2    1    2    0    0  0.19404685652E+02  0.38263392922E+02  0.55119822010E+03  0.56147330329E+03  0.97939590597E+02 0.  0.
        -11    1    5    5    0    0  0.32800616709E+02  0.65855041650E+02  0.44062567712E+03  0.44672559172E+03  0.00000000000E+00 0.  1.
         12    1    5    5    0    0 -0.13395931057E+02 -0.27591648728E+02  0.11057254298E+03  0.11474771157E+03  0.00000000000E+00 0. -1.
         13    1    3    3    0    0 -0.87288359395E+01  0.10040256532E+02 -0.39508869018E+02  0.41688728203E+02  0.00000000000E+00 0. -1.
        -14    1    3    3    0    0 -0.25574779985E+01 -0.36787505894E+02 -0.11994637537E+04  0.12000304820E+04  0.00000000000E+00 0.  1.
          5    1    4    4  501    0  0.14490107299E+02  0.52005460430E+02  0.21376134540E+03  0.22051284841E+03  0.41800000000E+01 0.  1.
         -5    1    4    4    0  501 -0.22608479013E+02 -0.63521603989E+02  0.15304541258E+03  0.16729168601E+03  0.41800000000E+01 0.  1.
</event>
<event>
11    1  0.8864208E-009  0.1546381E+03  0.7561462E-02  0.1092232E+00
         22   -1    0    0    0    0  0.00000000000E+00  0.00000000000E+00  0.62452473399E+03  0.62452473399E+03  0.00000000000E+00 0. -1.
         22   -1    0    0    0    0 -0.00000000000E+00 -0.00000000000E+00 -0.22401121564E+03  0.22401121564E+03  0.00000000000E+00 0.  1.
        -24    2    1    2    0    0 -0.10973682475E+02  0.82847520091E+02 -0.12113610051E+03  0.16996956231E+03  0.85038602839E+02 0.  0.
         25    2    1    2    0    0 -0.14050943887E+02 -0.12481497640E+03  0.32155862642E+02  0.18016084692E+03  0.12509086259E+03 0.  0.
         24    2    1    2    0    0  0.25024626362E+02  0.41967456305E+02  0.48949375622E+03  0.49840554040E+03  0.80102721637E+02 0.  0.
        -11    1    5    5    0    0  0.11151602316E+02  0.21524073674E+02  0.31509653032E+02  0.39755530633E+02  0.00000000000E+00 0.  1.
         12    1    5    5    0    0  0.13873024046E+02  0.20443382631E+02  0.45798410319E+03  0.45865000977E+03  0.00000000000E+00 0. -1.
         11    1    3    3    0    0 -0.11677983862E+02  0.22508327086E+02  0.86897663317E+01  0.26805076650E+02  0.00000000000E+00 0. -1.
        -12    1    3    3    0    0  0.70430138764E+00  0.60339193004E+02 -0.12982586684E+03  0.14316448566E+03  0.00000000000E+00 0.  1.
          5    1    4    4  501    0  0.41411468686E+02 -0.17576979837E+02  0.38258007147E+02  0.59203103549E+02  0.41800000000E+01 0. -1.
         -5    1    4    4    0  501 -0.55462412573E+02 -0.10723799656E+03 -0.61021445054E+01  0.12095774337E+03  0.41800000000E+01 0. -1.
</event>
<event>
11    1  0.8864208E-009  0.2768523E+03  0.7561462E-02  0.1010493E+00
         22   -1    0    0    0    0  0.00000000000E+00  0.00000000000E+00  0.25777522261E+04  0.25777522261E+04  0.00000000000E+00 0. -1.
         22   -1    0    0    0    0 -0.00000000000E+00 -0.00000000000E+00 -0.16397373463E+03  0.16397373463E+03  0.00000000000E+00 0. -1.
        -24    2    1    2    0    0  0.13281608934E+03 -0.37752359171E+02 -0.84003818539E+02  0.18002133778E+03  0.79282320336E+02 0.  0.
         25    2    1    2    0    0 -0.25330306854E+03  0.20359091291E+03  0.14810391133E+04  0.15214261774E+04  0.12509617859E+03 0.  0.
         24    2    1    2    0    0  0.12048697920E+03 -0.16583855374E+03  0.10167431967E+04  0.10402784455E+04  0.79956101040E+02 0.  0.
        -11    1    5    5    0    0 -0.81587669148E+01 -0.35650466048E+01  0.10203074016E+03  0.10241848941E+03  0.00000000000E+00 0.  1.
         12    1    5    5    0    0  0.12864574611E+03 -0.16227350714E+03  0.91471245655E+03  0.93785995611E+03  0.00000000000E+00 0. -1.
         11    1    3    3    0    0  0.11420050646E+03 -0.53828542280E+02 -0.89577706778E+02  0.15480126999E+03  0.00000000000E+00 0. -1.
        -12    1    3    3    0    0  0.18615582879E+02  0.16076183109E+02  0.55738882391E+01  0.25220067791E+02  0.00000000000E+00 0.  1.
          5    1    4    4  501    0 -0.76497199535E+02  0.14056633409E+03  0.64599452728E+03  0.66553521131E+03  0.41800000000E+01 0.  1.
         -5    1    4    4    0  501 -0.17680586900E+03  0.63024578829E+02  0.83504458600E+03  0.85589096610E+03  0.41800000000E+01 0.  1.
</event>
<event>
11    1  0.8864208E-009  0.1332831E+03  0.7561462E-02  0.1115300E+00
         22   -1    0    0    0    0  0.00000000000E+00  0.00000000000E+00  0.48589335817E+03  0.48589335817E+03  0.00000000000E+00 0.  1.
         22   -1    0    0    0    0 -0.00000000000E+00 -0.00000000000E+00 -0.46809485714E+03  0.46809485714E+03  0.00000000000E+00 0.  1.
        -24    2    1    2    0    0 -0.46706966801E+02 -0.79748284897E+01 -0.40817662978E+03  0.41894159385E+03  0.81601221333E+02 0.  0.
         25    2    1    2    0    0  0.86712412841E+02  0.16548728408E+01  0.73063994517E+02  0.16884193432E+03  0.12508984909E+03 0.  0.
         24    2    1    2    0    0 -0.40005446040E+02  0.63199556489E+01  0.35291113630E+03  0.36620468714E+03  0.88990028710E+02 0.  0.
        -11    1    5    5    0    0 -0.45089709460E+02 -0.92874323546E+01  0.34486489254E+03  0.34792403252E+03  0.00000000000E+00 0.  1.
         12    1    5    5    0    0  0.50842634202E+01  0.15607388004E+02  0.80462437597E+01  0.18280654623E+02  0.00000000000E+00 0. -1.
         11    1    3    3    0    0 -0.35655040549E+02 -0.34101539450E+02 -0.12557210169E+03  0.13491682486E+03  0.00000000000E+00 0. -1.
        -12    1    3    3    0    0 -0.11051926252E+02  0.26126710961E+02 -0.28260452809E+03  0.28402476898E+03  0.00000000000E+00 0.  1.
          5    1    4    4  501    0  0.10032787519E+03  0.36951602480E+02  0.29494883283E+02  0.11098884631E+03  0.41800000000E+01 0. -1.
         -5    1    4    4    0  501 -0.13615462350E+02 -0.35296729639E+02  0.43569111234E+02  0.57853088007E+02  0.41800000000E+01 0. -1.
</event>
<event>
11    1  0.8864208E-009  0.2651350E+03  0.7561462E-02  0.1016132E+00
         22   -1    0    0    0    0  0.00000000000E+00  0.00000000000E+00  0.16890920021E+03  0.16890920021E+03  0.00000000000E+00 0. -1.
         22   -1    0    0    0    0 -0.00000000000E+00 -0.00000000000E+00 -0.68847257525E+03  0.68847257525E+03  0.00000000000E+00 0.  1.
         24    2    1    2    0    0  0.17915648456E+03  0.13867960303E+03 -0.38619614884E+03  0.45600866685E+03  0.86413891272E+02 0.  0.
         25    2    1    2    0    0 -0.21089401070E+03 -0.13938232095E+03 -0.13206573179E+03  0.31143673737E+03  0.12509104174E+03 0.  0.
        -24    2    1    2    0    0  0.31737526138E+02  0.70271792045E+00 -0.13014944020E+01  0.89936371243E+02  0.84137343711E+02 0.  0.
        -11    1    3    3    0    0  0.16846636052E+03  0.14731732224E+03 -0.33407701209E+03  0.40210789357E+03  0.00000000000E+00 0.  1.
         12    1    3    3    0    0  0.10690124040E+02 -0.86377192083E+01 -0.52119136752E+02  0.53900773286E+02  0.00000000000E+00 0. -1.
         11    1    5    5    0    0  0.40978965151E+02  0.34841756801E+02 -0.65323007792E+01  0.54183895719E+02  0.00000000000E+00 0. -1.
        -12    1    5    5    0    0 -0.92414390128E+01 -0.34139038880E+02  0.52308063772E+01  0.35752475524E+02  0.00000000000E+00 0.  1.
          5    1    4    4  501    0 -0.67310498186E+02  0.16902911892E+02 -0.38320433812E+02  0.79387276336E+02  0.41800000000E+01 0.  1.
         -5    1    4    4    0  501 -0.14358351251E+03 -0.15628523284E+03 -0.93745297981E+02  0.23204946103E+03  0.41800000000E+01 0.  1.
</event>
<event>
11    1  0.8864208E-009  0.1639145E+03  0.7561462E-02  0.1083452E+00
         22   -1    0    0    0    0  0.00000000000E+00  0.00000000000E+00  0.60624994928E+03  0.60624994928E+03  0.00000000000E+00 0. -1.
         22   -1    0    0    0    0 -0.00000000000E+00 -0.00000000000E+00 -0.53000489121E+03  0.53000489121E+03  0.00000000000E+00 0. -1.
        -24    2    1    2    0    0 -0.10965054687E+03 -0.47895529957E+02 -0.42377448834E+03  0.44763773359E+03  0.80482913385E+02 0.  0.
         25    2    1    2    0    0  0.11952478589E+03 -0.61321000868E+02  0.19294117145E+02  0.18457469189E+03  0.12509642018E+03 0.  0.
         24    2    1    2    0    0 -0.98742390280E+01  0.10921653082E+03  0.48072542926E+03  0.50404241501E+03  0.10457565006E+03 0.  0.
        -13    1    5    5    0    0  0.28138114645E+02 -0.12386017229E+00  0.43938915721E+02  0.52176595824E+02  0.00000000000E+00 0.  1.
         14    1    5    5    0    0 -0.38012353673E+02  0.10934039100E+03  0.43678651354E+03  0.45186581918E+03  0.00000000000E+00 0. -1.
         13    1    3    3    0    0 -0.11903601168E+03 -0.35500286601E+02 -0.33042119031E+03  0.35299859126E+03  0.00000000000E+00 0. -1.
        -14    1    3    3    0    0  0.93854648155E+01 -0.12395243355E+02 -0.93353298030E+02  0.94639142329E+02  0.00000000000E+00 0.  1.
          5    1    4    4  501    0  0.31553464781E+01 -0.51138624876E+02 -0.27933726924E+02  0.58505390055E+02  0.41800000000E+01 0. -1.
         -5    1    4    4    0  501  0.11636943942E+03 -0.10182375992E+02  0.47227844069E+02  0.12606930184E+03  0.41800000000E+01 0. -1.
</event>
<event>
11    1  0.8864208E-009  0.1800157E+03  0.7561462E-02  0.1069630E+00
         22   -1    0    0    0    0  0.00000000000E+00  0.00000000000E+00  0.72892831884E+03  0.72892831884E+03  0.00000000000E+00 0.  1.
         22   -1    0    0    0    0 -0.00000000000E+00 -0.00000000000E+00 -0.11347279767E+04  0.11347279767E+04  0.00000000000E+00 0.  1.
        -24    2    1    2    0    0 -0.87493453884E+01  0.12798109121E+03 -0.10796303814E+04  0.10902140198E+04  0.80679227231E+02 0.  0.
         25    2    1    2    0    0  0.13975900863E+02 -0.21383775850E+03  0.34263088269E+03  0.42304318262E+03  0.12509076634E+03 0.  0.
         24    2    1    2    0    0 -0.52265554750E+01  0.85856667285E+02  0.33119984083E+03  0.35039909317E+03  0.75415553647E+02 0.  0.
        -13    1    5    5    0    0  0.85996626198E+00  0.33881166595E+02  0.25911446031E+03  0.26132159600E+03  0.00000000000E+00 0.  1.
         14    1    5    5    0    0 -0.60865217369E+01  0.51975500690E+02  0.72085380519E+02  0.89077497178E+02  0.00000000000E+00 0. -1.
         13    1    3    3    0    0 -0.31708389657E+02  0.12965774362E+02 -0.24321798206E+03  0.24561864766E+03  0.00000000000E+00 0. -1.
        -14    1    3    3    0    0  0.22959044268E+02  0.11501531685E+03 -0.83641239933E+03  0.84459537210E+03  0.00000000000E+00 0.  1.
          5    1    4    4  501    0 -0.54553629937E+02 -0.73894683288E+02  0.11703360649E+03  0.14883165055E+03  0.41800000000E+01 0.  1.
         -5    1    4    4    0  501  0.68529530800E+02 -0.13994307521E+03  0.22559727620E+03  0.27421153207E+03  0.41800000000E+01 0.  1.
</event>
<event>
11    1  0.8864208E-009  0.1964556E+03  0.7561462E-02  0.1057059E+00
         22   -1    0    0    0    0  0.00000000000E+00  0.00000000000E+00  0.10535385911E+04  0.10535385911E+04  0.00000000000E+00 0.  1.
         22   -1    0    0    0    0 -0.00000000000E+00 -0.00000000000E+00 -0.13421021009E+03  0.13421021009E+03  0.00000000000E+00 0.  1.
         24    2    1    2    0    0  0.69017193661E+02 -0.13513363945E+03 -0.28413335241E+02  0.17473121561E+03  0.81848680858E+02 0.  0.
         25    2    1    2    0    0 -0.10211630370E+03  0.11566080601E+03  0.30342320022E+03  0.36265450891E+03  0.12508993914E+03 0.  0.
        -24    2    1    2    0    0  0.33099110036E+02  0.19472833441E+02  0.64431851604E+03  0.65036307668E+03  0.79693406647E+02 0.  0.
        -11    1    3    3    0    0  0.42278250059E+02 -0.13810351965E+03 -0.30948576824E+02  0.14770865572E+03  0.00000000000E+00 0.  1.
         12    1    3    3    0    0  0.26738943603E+02  0.29698801961E+01  0.25352415834E+01  0.27022559895E+02  0.00000000000E+00 0. -1.
         13    1    5    5    0    0  0.51863162096E+02  0.32784033228E+02  0.36715510311E+03  0.37224649113E+03  0.00000000000E+00 0. -1.
        -14    1    5    5    0    0 -0.18764052060E+02 -0.13311199787E+02  0.27716341293E+03  0.27811658555E+03  0.00000000000E+00 0.  1.
          5    1    4    4  501    0 -0.36722046653E+02  0.10724428679E+03  0.25980374298E+03  0.28348774758E+03  0.41800000000E+01 0.  1.
         -5    1    4    4    0  501 -0.65394257044E+02  0.84165192182E+01  0.43619457238E+02  0.79166761332E+02  0.41800000000E+01 0.  1.
</event>
<event>
11    1  0.8864208E-009  0.2161251E+03  0.7561462E-02  0.1043672E+00
         22   -1    0    0    0    0  0.00000000000E+00  0.00000000000E+00  0.11693558815E+04  0.11693558815E+04  0.00000000000E+00 0.  1.
         22   -1    0    0    0    0 -0.00000000000E+00 -0.00000000000E+00 -0.13669465100E+03  0.13669465100E+03  0.00000000000E+00 0.  1.
        -24    2    1    2    0    0  0.31156789928E+01  0.61188550856E+02 -0.45437878192E+02  0.11052293949E+03  0.79981080061E+02 0.  0.
         25    2    1    2    0    0  0.17062427977E+03 -0.82789100108E+02  0.22085317518E+03  0.31684488140E+03  0.12509146229E+03 0.  0.
         24    2    1    2    0    0 -0.17373995876E+03  0.21600549252E+02  0.85724593354E+03  0.87868271163E+03  0.80997284802E+02 0.  0.
        -13    1    5    5    0    0 -0.15494549738E+03  0.50157292447E+01  0.81456293500E+03  0.82918396016E+03  0.00000000000E+00 0.  1.
         14    1    5    5    0    0 -0.18794461384E+02  0.16584820007E+02  0.42682998542E+02  0.49498751478E+02  0.00000000000E+00 0. -1.
         11    1    3    3    0    0 -0.47387214277E+01 -0.75646709034E+01 -0.40139420022E+02  0.41119980136E+02  0.00000000000E+00 0. -1.
        -12    1    3    3    0    0  0.78544004205E+01  0.68753221760E+02 -0.52984581694E+01  0.69402959355E+02  0.00000000000E+00 0.  1.
          5    1    4    4  501    0  0.14573592035E+03 -0.23470894600E+02  0.20095591992E+03  0.24938042330E+03  0.41800000000E+01 0.  1.
         -5    1    4    4    0  501  0.24888359417E+02 -0.59318205508E+02  0.19897255253E+02  0.67464458093E+02  0.41800000000E+01 0.  1.
</event>
<event>
11    1  0.1750481E-008  0.1640158E+03  0.7561462E-02  0.1083360E+00
         22   -1    0    0    0    0  0.00000000000E+00  0.00000000000E+00  0.13084265354E+04  0.13084265354E+04  0.00000000000E+00 0.  1.
         22   -1    0    0    0    0 -0.00000000000E+00 -0.00000000000E+00 -0.13910289533E+04  0.13910289533E+04  0.00000000000E+00 0.  1.
         24    2    1    2    0    0 -0.37454744426E+02 -0.13769777483E+02 -0.11076715073E+04  0.11112810962E+04  0.80106442422E+02 0.  0.
         25    2    1    2    0    0 -0.53287551164E+02 -0.41908346954E+02 -0.26065942196E+03  0.29696320918E+03  0.12509172913E+03 0.  0.
        -24    2    1    2    0    0  0.90742295590E+02  0.55678124437E+02  0.12857285112E+04  0.12912111833E+04  0.52861116713E+02 0.  0.
        -11    1    3    3    0    0 -0.24157472517E+02 -0.97063844072E+01 -0.10799902100E+04  0.10803039623E+04  0.00000000000E+00 0.  1.
         12    1    3    3    0    0 -0.13297271909E+02 -0.40633930763E+01 -0.27681297294E+02  0.30977133880E+02  0.00000000000E+00 0. -1.
         13    1    5    5    0    0  0.17759886026E+02  0.15904100330E+02  0.11026675752E+03  0.11281450161E+03  0.00000000000E+00 0. -1.
        -14    1    5    5    0    0  0.72982409564E+02  0.39774024107E+02  0.11754617537E+04  0.11783966817E+04  0.00000000000E+00 0.  1.
          5    1    4    4  501    0  0.33108418338E+02  0.16518903098E+02 -0.56484177828E+02  0.67653353718E+02  0.41800000000E+01 0.  1.
         -5    1    4    4    0  501 -0.86395969502E+02 -0.58427250052E+02 -0.20417524413E+03  0.22930985546E+03  0.41800000000E+01 0.  1.
</event>
<event>
11    1  0.8864208E-009  0.1907294E+03  0.7561462E-02  0.1061280E+00
         22   -1    0    0    0    0  0.00000000000E+00  0.00000000000E+00  0.11134793615E+04  0.11134793615E+04  0.00000000000E+00 0. -1.
         22   -1    0    0    0    0 -0.00000000000E+00 -0.00000000000E+00 -0.30606051021E+04  0.30606051021E+04  0.00000000000E+00 0.  1.
         24    2    1    2    0    0 -0.66711260359E+02  0.12924214230E+03 -0.30060387792E+04  0.30106366267E+04  0.80683531393E+02 0.  0.
         25    2    1    2    0    0  0.90021417292E+02 -0.23938396575E+02  0.79976817546E+02  0.17527100662E+03  0.12508689785E+03 0.  0.
        -24    2    1    2    0    0 -0.23310156933E+02 -0.10530374573E+03  0.97893622107E+03  0.98817683022E+03  0.80901672231E+02 0.  0.
        -11    1    3    3    0    0  0.33000756139E+01  0.74294514721E+02 -0.10916399972E+04  0.10941702102E+04  0.00000000000E+00 0.  1.
         12    1    3    3    0    0 -0.70011335973E+02  0.54947627580E+02 -0.19143987820E+04  0.19164664165E+04  0.00000000000E+00 0. -1.
         11    1    5    5    0    0 -0.41234717350E+02 -0.99968331697E+02  0.92027118657E+03  0.92660294953E+03  0.00000000000E+00 0. -1.
        -12    1    5    5    0    0  0.17924560417E+02 -0.53354140288E+01  0.58665034509E+02  0.61573880687E+02  0.00000000000E+00 0.  1.
          5    1    4    4  501    0 -0.24144897046E+02 -0.10945044252E+02  0.49522408532E+02  0.56326826592E+02  0.41800000000E+01 0.  1.
         -5    1    4    4    0  501  0.11416631434E+03 -0.12993352323E+02  0.30454409014E+02  0.11894418003E+03  0.41800000000E+01 0.  1.
</event>
<event>
11    1  0.8864208E-009  0.1383569E+03  0.7561462E-02  0.1109407E+00
         22   -1    0    0    0    0  0.00000000000E+00  0.00000000000E+00  0.51606456428E+03  0.51606456428E+03  0.00000000000E+00 0. -1.
         22   -1    0    0    0    0 -0.00000000000E+00 -0.00000000000E+00 -0.14944871979E+04  0.14944871979E+04  0.00000000000E+00 0.  1.
        -24    2    1    2    0    0 -0.19295949792E+02  0.55741483203E+02 -0.14647185954E+04  0.14677206251E+04  0.72964531969E+02 0.  0.
         25    2    1    2    0    0  0.18945477870E+02 -0.87229977023E+02  0.26905252671E+03  0.30984252811E+03  0.12508049438E+03 0.  0.
         24    2    1    2    0    0  0.35047192124E+00  0.31488493820E+02  0.21724343507E+03  0.23298860900E+03  0.78085426102E+02 0.  0.
        -13    1    5    5    0    0  0.12350114186E+02 -0.21092085292E+02  0.33336826916E+02  0.41336973900E+02  0.00000000000E+00 0.  1.
         14    1    5    5    0    0 -0.11999642265E+02  0.52580579112E+02  0.18390660815E+03  0.19165163510E+03  0.00000000000E+00 0. -1.
         13    1    3    3    0    0  0.13221868114E+02 -0.57227245338E+01 -0.82098624997E+02  0.83353173898E+02  0.00000000000E+00 0. -1.
        -14    1    3    3    0    0 -0.32517817906E+02  0.61464207737E+02 -0.13826199704E+04  0.13843674512E+04  0.00000000000E+00 0.  1.
          5    1    4    4  501    0 -0.11838336904E+02 -0.14758320241E+02 -0.86089326656E+01  0.21202366816E+02  0.41800000000E+01 0. -1.
         -5    1    4    4    0  501  0.30783814774E+02 -0.72471656783E+02  0.27766145938E+03  0.28864016130E+03  0.41800000000E+01 0. -1.
</event>
<event>
11    1  0.8864208E-009  0.1262214E+03  0.7561462E-02  0.1124001E+00
         22   -1    0    0    0    0  0.00000000000E+00  0.00000000000E+00  0.37828881196E+02  0.37828881196E+02  0.00000000000E+00 0.  1.
         22   -1    0    0    0    0 -0.00000000000E+00 -0.00000000000E+00 -0.18715479251E+04  0.18715479251E+04  0.00000000000E+00 0. -1.
         24    2    1    2    0    0 -0.18449459466E+02 -0.56128613754E+01 -0.12229743220E+04  0.12257052503E+04  0.79468745234E+02 0.  0.
         25    2    1    2    0    0  0.12733228490E+01  0.10979677388E+02 -0.58444145389E+03  0.59778093729E+03  0.12509221118E+03 0.  0.
        -24    2    1    2    0    0  0.17176136617E+02 -0.53668160130E+01 -0.26303267990E+02  0.85890618725E+02  0.79759100388E+02 0.  0.
        -13    1    3    3    0    0 -0.41703172535E+02 -0.10645480910E+02 -0.38588492492E+03  0.38827780795E+03  0.00000000000E+00 0.  1.
         14    1    3    3    0    0  0.23253713069E+02  0.50326195345E+01 -0.83708939712E+03  0.83742744235E+03  0.00000000000E+00 0. -1.
         11    1    5    5    0    0  0.75376244068E+01 -0.24344341995E+02 -0.48717389555E+02  0.54980422097E+02  0.00000000000E+00 0. -1.
        -12    1    5    5    0    0  0.96385122098E+01  0.18977525982E+02  0.22414121566E+02  0.30910196628E+02  0.00000000000E+00 0.  1.
          5    1    4    4  501    0  0.52038879105E+02 -0.10247854286E+02 -0.43917925989E+03  0.44239005208E+03  0.41800000000E+01 0.  1.
         -5    1    4    4    0  501 -0.50765556256E+02  0.21227531674E+02 -0.14526219400E+03  0.15539088522E+03  0.41800000000E+01 0.  1.
</event>
<event>
11    1  0.8864208E-009  0.2763804E+03  0.7561462E-02  0.1010715E+00
         22   -1    0    0    0    0  0.00000000000E+00  0.00000000000E+00  0.34977845266E+03  0.34977845266E+03  0.00000000000E+00 0. -1.
         22   -1    0    0    0    0 -0.00000000000E+00 -0.00000000000E+00 -0.16281715597E+04  0.16281715597E+04  0.00000000000E+00 0.  1.
        -24    2    1    2    0    0 -0.67071605031E+02  0.14186035220E+03 -0.11603093580E+04  0.11736763788E+04  0.81089309363E+02 0.  0.
         25    2    1    2    0    0 -0.33701546889E+02 -0.35209158839E+03 -0.31380488690E+03  0.48910616091E+03  0.12508816380E+03 0.  0.
         24    2    1    2    0    0  0.10077315192E+03  0.21023123619E+03  0.19572113790E+03  0.31516747264E+03  0.81678462075E+02 0.  0.
        -13    1    5    5    0    0  0.32616051670E+02  0.10161410505E+02  0.40201135836E+02  0.52755970396E+02  0.00000000000E+00 0.  1.
         14    1    5    5    0    0  0.68157100251E+02  0.20006982568E+03  0.15552000207E+03  0.26241150224E+03  0.00000000000E+00 0. -1.
         13    1    3    3    0    0 -0.57105248405E+02  0.30972171494E+02 -0.39343325572E+03  0.39876059423E+03  0.00000000000E+00 0. -1.
        -14    1    3    3    0    0 -0.99663566256E+01  0.11088818071E+03 -0.76687610231E+03  0.77491578457E+03  0.00000000000E+00 0.  1.
          5    1    4    4  501    0  0.47475172831E+02 -0.13719884838E+03 -0.12886226859E+03  0.19416583814E+03  0.41800000000E+01 0. -1.
         -5    1    4    4    0  501 -0.81176719720E+02 -0.21489274001E+03 -0.18494261831E+03  0.29494032278E+03  0.41800000000E+01 0. -1.
</event>
<event>
11    1  0.8864208E-009  0.1488494E+03  0.7561462E-02  0.1098060E+00
         22   -1    0    0    0    0  0.00000000000E+00  0.00000000000E+00  0.67011578570E+03  0.67011578570E+03  0.00000000000E+00 0. -1.
         22   -1    0    0    0    0 -0.00000000000E+00 -0.00000000000E+00 -0.31526286398E+03  0.31526286398E+03  0.00000000000E+00 0.  1.
         24    2    1    2    0    0 -0.16765490914E+02 -0.68956788071E+01 -0.26455448716E+03  0.27675680056E+03  0.79225109054E+02 0.  0.
         25    2    1    2    0    0  0.91956115526E+02  0.28145579862E+02  0.12411567148E+03  0.20074951799E+03  0.12509024030E+03 0.  0.
        -24    2    1    2    0    0 -0.75190624612E+02 -0.21249901055E+02  0.49529173740E+03  0.50787233113E+03  0.80716858618E+02 0.  0.
        -11    1    3    3    0    0  0.80661822223E+01  0.23646036910E+02 -0.19694586741E+03  0.19852423794E+03  0.00000000000E+00 0.  1.
         12    1    3    3    0    0 -0.24831673136E+02 -0.30541715717E+02 -0.67608619750E+02  0.78232562620E+02  0.00000000000E+00 0. -1.
         13    1    5    5    0    0 -0.30148140197E+02 -0.10869247494E+02  0.40657524496E+03  0.40783634060E+03  0.00000000000E+00 0. -1.
        -14    1    5    5    0    0 -0.45042484415E+02 -0.10380653562E+02  0.88716492444E+02  0.10003599053E+03  0.00000000000E+00 0.  1.
          5    1    4    4  501    0  0.10214269884E+03  0.53686124661E+02  0.58412005576E+02  0.12940156762E+03  0.41800000000E+01 0.  1.
         -5    1    4    4    0  501 -0.10186583317E+02 -0.25540544798E+02  0.65703665900E+02  0.71347950363E+02  0.41800000000E+01 0.  1.
</event>
<event>
11    1  0.8864208E-009  0.1431706E+03  0.7561462E-02  0.1104069E+00
         22   -1    0    0    0    0  0.00000000000E+00  0.00000000000E+00  0.21175349016E+04  0.21175349016E+04  0.00000000000E+00 0. -1.
         22   -1    0    0    0    0 -0.00000000000E+00 -0.00000000000E+00 -0.44070321819E+03  0.44070321819E+03  0.00000000000E+00 0.  1.
         24    2    1    2    0    0 -0.71617465840E+01  0.68807555476E+02 -0.41872798419E+03  0.43168071511E+03  0.78926198085E+02 0.  0.
         25    2    1    2    0    0  0.78735060809E+01 -0.10109963815E+03  0.43614151110E+03  0.46492071401E+03  0.12509485874E+03 0.  0.
        -24    2    1    2    0    0 -0.71175949689E+00  0.32292082676E+02  0.16594181566E+04  0.16616366907E+04  0.79527280840E+02 0.  0.
        -13    1    3    3    0    0 -0.31503761771E+02  0.56860375758E+02 -0.37215097379E+03  0.37778556964E+03  0.00000000000E+00 0.  1.
         14    1    3    3    0    0  0.24342015187E+02  0.11947179718E+02 -0.46577010404E+02  0.53895145465E+02  0.00000000000E+00 0. -1.
         13    1    5    5    0    0  0.32998552095E+02  0.17793847051E+02  0.12542468687E+04  0.12548070502E+04  0.00000000000E+00 0. -1.
        -14    1    5    5    0    0 -0.33710311592E+02  0.14498235625E+02  0.40517128782E+03  0.40682964053E+03  0.00000000000E+00 0.  1.
          5    1    4    4  501    0 -0.48296003769E+02 -0.97499850927E+01  0.92166784960E+02  0.10459328295E+03  0.41800000000E+01 0.  1.
         -5    1    4    4    0  501  0.56169509850E+02 -0.91349653059E+02  0.34397472614E+03  0.36032743106E+03  0.41800000000E+01 0.  1.
</event>
<event>
11    1  0.8864208E-009  0.1357555E+03  0.7561462E-02  0.1112393E+00
         22   -1    0    0    0    0  0.00000000000E+00  0.00000000000E+00  0.17117469099E+04  0.17117469099E+04  0.00000000000E+00 0.  1.
         22   -1    0    0    0    0 -0.00000000000E+00 -0.00000000000E+00 -0.71291933380E+03  0.71291933380E+03  0.00000000000E+00 0. -1.
        -24    2    1    2    0    0 -0.53424366470E+01  0.37627596670E+02 -0.68597832115E+03  0.69099095931E+03  0.73877405934E+02 0.  0.
         25    2    1    2    0    0 -0.25559387567E+02 -0.78413770331E+02  0.22079879131E+03  0.26683635353E+03  0.12509009413E+03 0.  0.
         24    2    1    2    0    0  0.30901824214E+02  0.40786173661E+02  0.14640071059E+04  0.14668389308E+04  0.75373789615E+02 0.  0.
        -11    1    5    5    0    0  0.44534280967E+02  0.12639251851E+02  0.12141379341E+04  0.12150201546E+04  0.00000000000E+00 0.  1.
         12    1    5    5    0    0 -0.13632456753E+02  0.28146921810E+02  0.24986917177E+03  0.25181877628E+03  0.00000000000E+00 0. -1.
         11    1    3    3    0    0  0.30346653612E+02  0.20750445734E+02 -0.46989385389E+03  0.47132975114E+03  0.00000000000E+00 0. -1.
        -12    1    3    3    0    0 -0.35689090259E+02  0.16877150936E+02 -0.21608446726E+03  0.21966120818E+03  0.00000000000E+00 0.  1.
          5    1    4    4  501    0 -0.56105420601E+02  0.28972154795E+01  0.50664868046E+02  0.75766835307E+02  0.41800000000E+01 0. -1.
         -5    1    4    4    0  501  0.30546033034E+02 -0.81310985810E+02  0.17013392326E+03  0.19106951822E+03  0.41800000000E+01 0. -1.
</event>
<event>
11    1  0.8864208E-009  0.1587333E+03  0.7561462E-02  0.1088275E+00
         22   -1    0    0    0    0  0.00000000000E+00  0.00000000000E+00  0.27530461739E+04  0.27530461739E+04  0.00000000000E+00 0.  1.
         22   -1    0    0    0    0 -0.00000000000E+00 -0.00000000000E+00 -0.37277695040E+03  0.37277695040E+03  0.00000000000E+00 0. -1.
         24    2    1    2    0    0 -0.55479720635E+02 -0.80686427433E+02 -0.35755614315E+03  0.37835260199E+03  0.75604212577E+02 0.  0.
         25    2    1    2    0    0  0.51244344740E+02  0.43825038386E+02  0.16635142312E+04  0.16695729712E+04  0.12509073460E+03 0.  0.
        -24    2    1    2    0    0  0.42353758949E+01  0.36861389047E+02  0.10743111354E+04  0.10778975511E+04  0.79636766096E+02 0.  0.
        -13    1    3    3    0    0 -0.38430875388E+02 -0.38110326096E+00 -0.77412657972E+02  0.86427987579E+02  0.00000000000E+00 0.  1.
         14    1    3    3    0    0 -0.17048845247E+02 -0.80305324172E+02 -0.28014348518E+03  0.29192461442E+03  0.00000000000E+00 0. -1.
         13    1    5    5    0    0  0.14750777622E+02  0.49396026794E+02  0.39018154558E+03  0.39357234584E+03  0.00000000000E+00 0. -1.
        -14    1    5    5    0    0 -0.10515401727E+02 -0.12534637747E+02  0.68412958982E+03  0.68432520521E+03  0.00000000000E+00 0.  1.
          5    1    4    4  501    0  0.43720749943E+02 -0.55913226088E+01  0.18559953126E+03  0.19080729878E+03  0.41800000000E+01 0.  1.
         -5    1    4    4    0  501  0.75235947975E+01  0.49416360995E+02  0.14779147000E+04  0.14787656725E+04  0.41800000000E+01 0.  1.
</event>
<event>
11    1  0.8864208E-009  0.1314095E+03  0.7561462E-02  0.1117549E+00
         22   -1    0    0    0    0  0.00000000000E+00  0.00000000000E+00  0.78151976299E+03  0.78151976299E+03  0.00000000000E+00 0.  1.
         22   -1    0    0    0    0 -0.00000000000E+00 -0.00000000000E+00 -0.19046354477E+03  0.19046354477E+03  0.00000000000E+00 0.  1.
        -24    2    1    2    0    0  0.11468520497E+02 -0.37344730865E+02 -0.14773872842E+03  0.17200670558E+03  0.78952004431E+02 0.  0.
         25    2    1    2    0    0 -0.18978483668E+02  0.53896997658E+02  0.14267497317E+03  0.19816264483E+03  0.12508883499E+03 0.  0.
         24    2    1    2    0    0  0.75099631716E+01 -0.16552266794E+02  0.59611997348E+03  0.60181395734E+03  0.80564504507E+02 0.  0.
        -11    1    5    5    0    0  0.24575152062E+02  0.11235493548E+02  0.49121184054E+03  0.49195451690E+03  0.00000000000E+00 0.  1.
         12    1    5    5    0    0 -0.17065188890E+02 -0.27787760342E+02  0.10490813294E+03  0.10985944044E+03  0.00000000000E+00 0. -1.
         11    1    3    3    0    0 -0.23476305699E+01 -0.42371424063E+02 -0.26828180184E+02  0.50205579356E+02  0.00000000000E+00 0. -1.
        -12    1    3    3    0    0  0.13816151067E+02  0.50266931985E+01 -0.12091054824E+03  0.12180112623E+03  0.00000000000E+00 0.  1.
          5    1    4    4  501    0 -0.29060810523E+02 -0.26333656259E+02  0.98106929385E+02  0.10573757210E+03  0.41800000000E+01 0. -1.
         -5    1    4    4    0  501  0.10082326855E+02  0.80230653918E+02  0.44568043783E+02  0.92425072732E+02  0.41800000000E+01 0. -1.
</event>
<event>
11    1  0.8864208E-009  0.1529523E+03  0.7561462E-02  0.1093900E+00
         22   -1    0    0    0    0  0.00000000000E+00  0.00000000000E+00  0.57082241071E+03  0.57082241071E+03  0.00000000000E+00 0. -1.
         22   -1    0    0    0    0 -0.00000000000E+00 -0.00000000000E+00 -0.20832104217E+04  0.20832104217E+04  0.00000000000E+00 0.  1.
         24    2    1    2    0    0 -0.30861867098E+02 -0.68983871179E+01 -0.18019217379E+04  0.18040440639E+04  0.81565878710E+02 0.  0.
         25    2    1    2    0    0  0.83454741215E+02  0.76770253689E+02 -0.24770151167E+03  0.29977101853E+03  0.12509300134E+03 0.  0.
        -24    2    1    2    0    0 -0.52592874117E+02 -0.69871866571E+02  0.53723523858E+03  0.55021774994E+03  0.80434959060E+02 0.  0.
        -13    1    3    3    0    0 -0.17821969647E+02 -0.89634616929E+01 -0.17595509373E+04  0.17596640211E+04  0.00000000000E+00 0.  1.
         14    1    3    3    0    0 -0.13039897451E+02  0.20650745750E+01 -0.42370800566E+02  0.44380042803E+02  0.00000000000E+00 0. -1.
         11    1    5    5    0    0 -0.95169286681E+01 -0.73951534096E+02  0.30461009131E+03  0.31360278866E+03  0.00000000000E+00 0. -1.
        -12    1    5    5    0    0 -0.43075945449E+02  0.40796675250E+01  0.23262514726E+03  0.23661496128E+03  0.00000000000E+00 0.  1.
          5    1    4    4  501    0  0.10488690013E+03  0.43580762259E+02 -0.11679861572E+03  0.16297218686E+03  0.41800000000E+01 0. -1.
         -5    1    4    4    0  501 -0.21432158911E+02  0.33189491430E+02 -0.13090289595E+03  0.13679883166E+03  0.41800000000E+01 0. -1.
</event>
<event>
11    1  0.8864208E-009  0.1528351E+03  0.7561462E-02  0.1094017E+00
         22   -1    0    0    0    0  0.00000000000E+00  0.00000000000E+00  0.14751456488E+03  0.14751456488E+03  0.00000000000E+00 0. -1.
         22   -1    0    0    0    0 -0.00000000000E+00 -0.00000000000E+00 -0.98524556890E+03  0.98524556890E+03  0.00000000000E+00 0.  1.
         24    2    1    2    0    0  0.16707345395E+02  0.80473072173E+02 -0.68381481944E+03  0.69356059073E+03  0.81661098475E+02 0.  0.
         25    2    1    2    0    0  0.15801121495E+02 -0.12513455238E+03 -0.24828286023E+03  0.30528724817E+03  0.12509034164E+03 0.  0.
        -24    2    1    2    0    0 -0.32508466890E+02  0.44661480209E+02  0.94366675645E+02  0.13391229488E+03  0.77304495431E+02 0.  0.
        -13    1    3    3    0    0  0.48011712550E+02  0.39383089609E+02 -0.43771536089E+03  0.44209828030E+03  0.00000000000E+00 0.  1.
         14    1    3    3    0    0 -0.31304367155E+02  0.41089982563E+02 -0.24609945854E+03  0.25146231043E+03  0.00000000000E+00 0. -1.
         11    1    5    5    0    0 -0.32261061041E+02  0.61185074018E+02  0.94835245168E+02  0.11738020731E+03  0.00000000000E+00 0. -1.
        -12    1    5    5    0    0 -0.24740584855E+00 -0.16523593809E+02 -0.46856952375E+00  0.16532087570E+02  0.00000000000E+00 0.  1.
          5    1    4    4  501    0  0.64059584690E+02 -0.30901334568E+02 -0.11047447632E+03  0.13145571569E+03  0.41800000000E+01 0. -1.
         -5    1    4    4    0  501 -0.48258463195E+02 -0.94233217813E+02 -0.13780838391E+03  0.17383153249E+03  0.41800000000E+01 0. -1.
</event>
<event>
11    1  0.8864208E-009  0.1405798E+03  0.7561462E-02  0.1106913E+00
         22   -1    0    0    0    0  0.00000000000E+00  0.00000000000E+00  0.18095572772E+03  0.18095572772E+03  0.00000000000E+00 0. -1.
         22   -1    0    0    0    0 -0.00000000000E+00 -0.00000000000E+00 -0.13591203983E+04  0.13591203983E+04  0.00000000000E+00 0.  1.
        -24    2    1    2    0    0  0.40048133811E+01  0.63338859551E+02 -0.10629375346E+04  0.10675623660E+04  0.76324000581E+02 0.  0.
         25    2    1    2    0    0  0.31969912447E+02 -0.70925279630E+02 -0.26223935266E+03  0.30078092211E+03  0.12508882615E+03 0.  0.
         24    2    1    2    0    0 -0.35974725828E+02  0.75864200782E+01  0.14701221674E+03  0.17173283791E+03  0.80795056021E+02 0.  0.
        -11    1    5    5    0    0 -0.17823751804E+02 -0.21744344632E+02  0.90686969509E+01  0.29542239527E+02  0.00000000000E+00 0.  1.
         12    1    5    5    0    0 -0.18150974024E+02  0.29330764710E+02  0.13794351979E+03  0.14219059838E+03  0.00000000000E+00 0. -1.
         11    1    3    3    0    0  0.29983271938E+02 -0.16205776492E+00 -0.26901513609E+03  0.27068093082E+03  0.00000000000E+00 0. -1.
        -12    1    3    3    0    0 -0.25978458557E+02  0.63500917316E+02 -0.79392239853E+03  0.79688143516E+03  0.00000000000E+00 0.  1.
          5    1    4    4  501    0  0.27520964519E+02  0.17389773355E+02 -0.16920491951E+03  0.17235888400E+03  0.41800000000E+01 0. -1.
         -5    1    4    4    0  501  0.44489479280E+01 -0.88315052985E+02 -0.93034433143E+02  0.12842203811E+03  0.41800000000E+01 0. -1.
</event>
<event>
11    1  0.8864208E-009  0.1380862E+03  0.7561462E-02  0.1109714E+00
         22   -1    0    0    0    0  0.00000000000E+00  0.00000000000E+00  0.85906782730E+03  0.85906782730E+03  0.00000000000E+00 0.  1.
         22   -1    0    0    0    0 -0.00000000000E+00 -0.00000000000E+00 -0.14343772916E+03  0.14343772916E+03  0.00000000000E+00 0.  1.
        -24    2    1    2    0    0 -0.67115984776E+01 -0.46503476058E+02 -0.16487610849E+02  0.95168787342E+02  0.81102638262E+02 0.  0.
         25    2    1    2    0    0 -0.15345690277E+02  0.99053679456E+02 -0.81537227942E+01  0.16049306797E+03  0.12507765607E+03 0.  0.
         24    2    1    2    0    0  0.22057288755E+02 -0.52550203398E+02  0.74027143178E+03  0.74684370114E+03  0.80781639953E+02 0.  0.
        -13    1    5    5    0    0  0.49917668449E+02 -0.27843994894E+02  0.33264760060E+03  0.33752257385E+03  0.00000000000E+00 0.  1.
         14    1    5    5    0    0 -0.27860379694E+02 -0.24706208503E+02  0.40762383118E+03  0.40932112729E+03  0.00000000000E+00 0. -1.
         11    1    3    3    0    0 -0.34916586312E+02 -0.51926487827E+02 -0.10976629993E+01  0.62583807824E+02  0.00000000000E+00 0. -1.
        -12    1    3    3    0    0  0.28204987834E+02  0.54230117686E+01 -0.15389947849E+02  0.32584979518E+02  0.00000000000E+00 0.  1.
          5    1    4    4  501    0 -0.44349469637E+02  0.10239039536E+03  0.26727000750E+02  0.11481495324E+03  0.41800000000E+01 0.  1.
         -5    1    4    4    0  501  0.29003779360E+02 -0.33367159031E+01 -0.34880723544E+02  0.45678114728E+02  0.41800000000E+01 0.  1.
</event>
<event>
11    1  0.8864208E-009  0.5023204E+03  0.7561462E-02  0.9388351E-01
         22   -1    0    0    0    0  0.00000000000E+00  0.00000000000E+00  0.65926192524E+03  0.65926192524E+03  0.00000000000E+00 0. -1.
         22   -1    0    0    0    0 -0.00000000000E+00 -0.00000000000E+00 -0.57934554363E+03  0.57934554363E+03  0.00000000000E+00 0. -1.
         24    2    1    2    0    0  0.75279960717E+02 -0.46917646581E+03 -0.19052706194E+03  0.51813215430E+03  0.79791850639E+02 0.  0.
         25    2    1    2    0    0  0.13999766294E+02  0.51851521056E+03  0.18962213781E+03  0.56626614866E+03  0.12508708541E+03 0.  0.
        -24    2    1    2    0    0 -0.89279727012E+02 -0.49338744748E+02  0.80821305733E+02  0.15420916591E+03  0.82723648382E+02 0.  0.
        -13    1    3    3    0    0  0.94572048969E+01 -0.18708267232E+03 -0.11101237386E+03  0.21774552155E+03  0.00000000000E+00 0.  1.
         14    1    3    3    0    0  0.65822755820E+02 -0.28209379349E+03 -0.79514688079E+02  0.30038663274E+03  0.00000000000E+00 0. -1.
         13    1    5    5    0    0 -0.63241307722E+02  0.79210833770E+01  0.20225378169E+02  0.66867574252E+02  0.00000000000E+00 0. -1.
        -14    1    5    5    0    0 -0.26038419290E+02 -0.57259828125E+02  0.60595927563E+02  0.87341591658E+02  0.00000000000E+00 0.  1.
          5    1    4    4  501    0 -0.55572302018E+02  0.23222358238E+03  0.90429486766E+02  0.25536451876E+03  0.41800000000E+01 0. -1.
         -5    1    4    4    0  501  0.69572068312E+02  0.28629162818E+03  0.99192651042E+02  0.31090162991E+03  0.41800000000E+01 0. -1.
</event>
<event>
11    1  0.8864208E-009  0.1584495E+03  0.7561462E-02  0.1088545E+00
         22   -1    0    0    0    0  0.00000000000E+00  0.00000000000E+00  0.28524570210E+04  0.28524570210E+04  0.00000000000E+00 0.  1.
         22   -1    0    0    0    0 -0.00000000000E+00 -0.00000000000E+00 -0.12828283467E+03  0.12828283467E+03  0.00000000000E+00 0.  1.
        -24    2    1    2    0    0 -0.85687250329E+02  0.49228404792E+02 -0.65044047509E+02  0.14281998752E+03  0.80006749785E+02 0.  0.
         25    2    1    2    0    0  0.49911730667E+02 -0.83704912520E+02  0.24459608080E+03  0.29150048934E+03  0.12509036457E+03 0.  0.
         24    2    1    2    0    0  0.35775519662E+02  0.34476507728E+02  0.25446221530E+04  0.25464193788E+04  0.81738813298E+02 0.  0.
        -11    1    5    5    0    0  0.22883338193E+02  0.94495144572E+00  0.21604051614E+04  0.21605265565E+04  0.00000000000E+00 0.  1.
         12    1    5    5    0    0  0.12892181469E+02  0.33531556282E+02  0.38421699167E+03  0.38589282229E+03  0.00000000000E+00 0. -1.
         13    1    3    3    0    0  0.50153204428E+01 -0.79061490519E+01  0.86403824371E+01  0.12740362657E+02  0.00000000000E+00 0. -1.
        -14    1    3    3    0    0 -0.90702570772E+02  0.57134553844E+02 -0.73684429946E+02  0.13007962486E+03  0.00000000000E+00 0.  1.
          5    1    4    4  501    0 -0.36712225631E+02 -0.20602919071E+02  0.11924961051E+03  0.12653145772E+03  0.41800000000E+01 0. -1.
         -5    1    4    4    0  501  0.86623956298E+02 -0.63101993449E+02  0.12534647029E+03  0.16496903162E+03  0.41800000000E+01 0. -1.
</event>
<event>
11    1  0.8864208E-009  0.1483033E+03  0.7561462E-02  0.1098625E+00
         22   -1    0    0    0    0  0.00000000000E+00  0.00000000000E+00  0.92674830243E+03  0.92674830243E+03  0.00000000000E+00 0.  1.
         22   -1    0    0    0    0 -0.00000000000E+00 -0.00000000000E+00 -0.26488779843E+03  0.26488779843E+03  0.00000000000E+00 0. -1.
        -24    2    1    2    0    0  0.30218618045E+02 -0.68946334606E+02 -0.20110231131E+03  0.22956800012E+03  0.81194612711E+02 0.  0.
         25    2    1    2    0    0 -0.57590811629E+02  0.12535321116E+03  0.14283763249E+03  0.23468947212E+03  0.12508569038E+03 0.  0.
         24    2    1    2    0    0  0.27372193585E+02 -0.56406876557E+02  0.72012518283E+03  0.72737862862E+03  0.81045775496E+02 0.  0.
        -13    1    5    5    0    0 -0.14582512568E+02 -0.57940950893E+02  0.46489203714E+03  0.46871570238E+03  0.00000000000E+00 0.  1.
         14    1    5    5    0    0  0.41954706152E+02  0.15340743359E+01  0.25523314569E+03  0.25866292624E+03  0.00000000000E+00 0. -1.
         13    1    3    3    0    0 -0.17748920732E+02 -0.40424966384E+02 -0.14009194882E+03  0.14688415918E+03  0.00000000000E+00 0. -1.
        -14    1    3    3    0    0  0.47967538777E+02 -0.28521368222E+02 -0.61010362494E+02  0.82683840944E+02  0.00000000000E+00 0.  1.
          5    1    4    4  501    0  0.19258903176E+02  0.76287788255E+02  0.19352830096E+02  0.81134064492E+02  0.41800000000E+01 0. -1.
         -5    1    4    4    0  501 -0.76849714805E+02  0.49065422909E+02  0.12348480239E+03  0.15355540763E+03  0.41800000000E+01 0. -1.
</event>
<event>
11    1  0.8864208E-009  0.2616679E+03  0.7561462E-02  0.1017861E+00
         22   -1    0    0    0    0  0.00000000000E+00  0.00000000000E+00  0.26485954164E+03  0.26485954164E+03  0.00000000000E+00 0.  1.
         22   -1    0    0    0    0 -0.00000000000E+00 -0.00000000000E+00 -0.86511539372E+03  0.86511539372E+03  0.00000000000E+00 0. -1.
        -24    2    1    2    0    0 -0.18159015945E+03 -0.18429763852E+03 -0.56808791066E+03  0.62951038869E+03  0.81356312983E+02 0.  0.
         25    2    1    2    0    0  0.21158085023E+03 -0.10707298571E+02 -0.11587054316E+03  0.27194631545E+03  0.12509082015E+03 0.  0.
         24    2    1    2    0    0 -0.29990690782E+02  0.19500493710E+03  0.83702601738E+02  0.22851823123E+03  0.79297474368E+02 0.  0.
        -11    1    5    5    0    0  0.25053830531E+01  0.16000801490E+03  0.42834009946E+02  0.16566108229E+03  0.00000000000E+00 0.  1.
         12    1    5    5    0    0 -0.32496073835E+02  0.34996922192E+02  0.40868591792E+02  0.62857148938E+02  0.00000000000E+00 0. -1.
         11    1    3    3    0    0 -0.18711422329E+03 -0.16723305479E+03 -0.54704014490E+03  0.60185674982E+03  0.00000000000E+00 0. -1.
        -12    1    3    3    0    0  0.55240638446E+01 -0.17064583735E+02 -0.21047765752E+02  0.27653638867E+02  0.00000000000E+00 0.  1.
          5    1    4    4  501    0  0.82011211943E+02  0.41111586282E+02 -0.92590023631E+02  0.13040853610E+03  0.41800000000E+01 0. -1.
         -5    1    4    4    0  501  0.12956963829E+03 -0.51818884853E+02 -0.23280519533E+02  0.14153777935E+03  0.41800000000E+01 0. -1.
</event>
<event>
11    1  0.8864208E-009  0.1730960E+03  0.7561462E-02  0.1075368E+00
         22   -1    0    0    0    0  0.00000000000E+00  0.00000000000E+00  0.91150606671E+03  0.91150606671E+03  0.00000000000E+00 0. -1.
         22   -1    0    0    0    0 -0.00000000000E+00 -0.00000000000E+00 -0.39158801734E+03  0.39158801734E+03  0.00000000000E+00 0. -1.
         24    2    1    2    0    0  0.10263371416E+03  0.57563621537E+02 -0.34333100239E+03  0.37281765295E+03  0.85261804706E+02 0.  0.
         25    2    1    2    0    0 -0.15464386738E+03 -0.79217860437E+02  0.37134314262E+03  0.42863591168E+03  0.12507126002E+03 0.  0.
        -24    2    1    2    0    0  0.52010153212E+02  0.21654238900E+02  0.49190590914E+03  0.50164051942E+03  0.80609088665E+02 0.  0.
        -13    1    3    3    0    0 -0.72225642186E+01  0.20834225522E+02 -0.21589369298E+02  0.30859864771E+02  0.00000000000E+00 0.  1.
         14    1    3    3    0    0  0.10985627838E+03  0.36729396014E+02 -0.32174163310E+03  0.34195778818E+03  0.00000000000E+00 0. -1.
         13    1    5    5    0    0  0.49235615627E+02  0.49819334071E+02  0.35077823162E+03  0.35770306075E+03  0.00000000000E+00 0. -1.
        -14    1    5    5    0    0  0.27745375851E+01 -0.28165095170E+02  0.14112767753E+03  0.14393745867E+03  0.00000000000E+00 0.  1.
          5    1    4    4  501    0 -0.11599027831E+03 -0.49970218144E+02  0.12576055925E+03  0.17828055986E+03  0.41800000000E+01 0.  1.
         -5    1    4    4    0  501 -0.38653589069E+02 -0.29247642293E+02  0.24558258338E+03  0.25035535182E+03  0.41800000000E+01 0.  1.
</event>
<event>
11    1  0.8864208E-009  0.1350987E+03  0.7561462E-02  0.1113158E+00
         22   -1    0    0    0    0  0.00000000000E+00  0.00000000000E+00  0.27270959643E+03  0.27270959643E+03  0.00000000000E+00 0. -1.
         22   -1    0    0    0    0 -0.00000000000E+00 -0.00000000000E+00 -0.96317159473E+03  0.96317159473E+03  0.00000000000E+00 0. -1.
        -24    2    1    2    0    0 -0.55568457426E+02 -0.51066784340E+01 -0.70021455602E+03  0.70703721796E+03  0.80543599971E+02 0.  0.
         25    2    1    2    0    0  0.28369242226E+02 -0.27672246423E+02 -0.23546465408E+03  0.26955766369E+03  0.12508862302E+03 0.  0.
         24    2    1    2    0    0  0.27199215200E+02  0.32778924857E+02  0.24521721180E+03  0.25928630950E+03  0.72688748154E+02 0.  0.
        -11    1    5    5    0    0  0.21419954913E+02 -0.78945906513E+01  0.19992054235E+02  0.30345036868E+02  0.00000000000E+00 0.  1.
         12    1    5    5    0    0  0.57792602875E+01  0.40673515508E+02  0.22522515757E+03  0.22894127263E+03  0.00000000000E+00 0. -1.
         13    1    3    3    0    0  0.19332505218E+02 -0.14230494193E+01 -0.23701657520E+03  0.23780796402E+03  0.00000000000E+00 0. -1.
        -14    1    3    3    0    0 -0.74900962644E+02 -0.36836290147E+01 -0.46319798082E+03  0.46922925395E+03  0.00000000000E+00 0.  1.
          5    1    4    4  501    0  0.66563647090E+02 -0.48394568290E+02 -0.18688476943E+03  0.20424530055E+03  0.41800000000E+01 0.  1.
         -5    1    4    4    0  501 -0.38194404864E+02  0.20722321867E+02 -0.48579884652E+02  0.65312363143E+02  0.41800000000E+01 0.  1.
</event>
<event>
11    1  0.8864208E-009  0.1331044E+03  0.7561462E-02  0.1115512E+00
         22   -1    0    0    0    0  0.00000000000E+00  0.00000000000E+00  0.11942229127E+04  0.11942229127E+04  0.00000000000E+00 0. -1.
         22   -1    0    0    0    0 -0.00000000000E+00 -0.00000000000E+00 -0.22158911880E+03  0.22158911880E+03  0.00000000000E+00 0. -1.
        -24    2    1    2    0    0 -0.32496581385E+02 -0.27245327718E+02 -0.14283615128E+03  0.16538118651E+03  0.71766531576E+02 0.  0.
         25    2    1    2    0    0 -0.13259420874E+02  0.34326422740E+02 -0.62285849391E+00  0.13039054801E+03  0.12508873458E+03 0.  0.
         24    2    1    2    0    0  0.45756002259E+02 -0.70810950229E+01  0.11160928036E+04  0.11200402969E+04  0.81751861055E+02 0.  0.
        -13    1    5    5    0    0 -0.42651453508E+01 -0.21761295037E+02  0.92503467052E+02  0.95124323089E+02  0.00000000000E+00 0.  1.
         14    1    5    5    0    0  0.50021147610E+02  0.14680200014E+02  0.10235893366E+04  0.10249159738E+04  0.00000000000E+00 0. -1.
         11    1    3    3    0    0 -0.40714494383E+02  0.77811519187E+01 -0.10633945039E+03  0.11413279585E+03  0.00000000000E+00 0. -1.
        -12    1    3    3    0    0  0.82179129986E+01 -0.35026479636E+02 -0.36496700889E+02  0.51248390663E+02  0.00000000000E+00 0.  1.
          5    1    4    4  501    0  0.34099555019E+02  0.35590653057E+02  0.43233182623E+02  0.65696687263E+02  0.41800000000E+01 0.  1.
         -5    1    4    4    0  501 -0.47358975894E+02 -0.12642303170E+01 -0.43856041117E+02  0.64693860748E+02  0.41800000000E+01 0.  1.
</event>
<event>
11    1  0.8864208E-009  0.3007786E+03  0.7561462E-02  0.9998623E-01
         22   -1    0    0    0    0  0.00000000000E+00  0.00000000000E+00  0.53870491594E+03  0.53870491594E+03  0.00000000000E+00 0.  1.
         22   -1    0    0    0    0 -0.00000000000E+00 -0.00000000000E+00 -0.15586504874E+03  0.15586504874E+03  0.00000000000E+00 0. -1.
        -24    2    1    2    0    0  0.17539320452E+02 -0.20510414599E+03  0.17182003245E+02  0.22110041312E+03  0.78834212023E+02 0.  0.
         25    2    1    2    0    0 -0.40112045081E+02  0.90941009769E+02  0.18379440761E+03  0.24353058774E+03  0.12509004547E+03 0.  0.
         24    2    1    2    0    0  0.22572724630E+02  0.11416313622E+03  0.18186345634E+03  0.22993896382E+03  0.79087677684E+02 0.  0.
        -11    1    5    5    0    0  0.36267958911E+02  0.11772938784E+03  0.14392256487E+03  0.18944465757E+03  0.00000000000E+00 0.  1.
         12    1    5    5    0    0 -0.13695234282E+02 -0.35662516213E+01  0.37940891469E+02  0.40494306243E+02  0.00000000000E+00 0. -1.
         11    1    3    3    0    0  0.49339013847E+01 -0.16369693862E+03 -0.18756451071E+02  0.16484185013E+03  0.00000000000E+00 0. -1.
        -12    1    3    3    0    0  0.12605419067E+02 -0.41407207363E+02  0.35938454316E+02  0.56258562994E+02  0.00000000000E+00 0.  1.
          5    1    4    4  501    0  0.31168688532E+02  0.54293620715E+02  0.28903146420E+02  0.69080740211E+02  0.41800000000E+01 0.  1.
         -5    1    4    4    0  501 -0.71280733613E+02  0.36647389055E+02  0.15489126119E+03  0.17444984753E+03  0.41800000000E+01 0.  1.
</event>
<event>
11    1  0.8864208E-009  0.1600433E+03  0.7561462E-02  0.1087037E+00
         22   -1    0    0    0    0  0.00000000000E+00  0.00000000000E+00  0.29155104138E+03  0.29155104138E+03  0.00000000000E+00 0.  1.
         22   -1    0    0    0    0 -0.00000000000E+00 -0.00000000000E+00 -0.41335565863E+03  0.41335565863E+03  0.00000000000E+00 0.  1.
        -24    2    1    2    0    0 -0.35967714173E+02 -0.51352470509E+02 -0.25783760589E+03  0.27671641557E+03  0.78491980119E+02 0.  0.
         25    2    1    2    0    0 -0.66826269272E+02  0.27902323299E+02 -0.87193380812E+02  0.16881115732E+03  0.12510088436E+03 0.  0.
         24    2    1    2    0    0  0.10279398345E+03  0.23450147210E+02  0.22322636946E+03  0.25937912712E+03  0.79567626114E+02 0.  0.
        -11    1    5    5    0    0  0.49912412619E+02 -0.28108549756E+02  0.11311104467E+03  0.12678898978E+03  0.00000000000E+00 0.  1.
         12    1    5    5    0    0  0.52881570826E+02  0.51558696966E+02  0.11011532478E+03  0.13259013733E+03  0.00000000000E+00 0. -1.
         13    1    3    3    0    0 -0.51974413057E+02 -0.37331287821E+02 -0.10924120015E+03  0.12660412503E+03  0.00000000000E+00 0. -1.
        -14    1    3    3    0    0  0.16006698884E+02 -0.14021182688E+02 -0.14859640574E+03  0.15011229054E+03  0.00000000000E+00 0.  1.
          5    1    4    4  501    0  0.14357816866E+02  0.48362464116E+02 -0.64450808348E+02  0.81953974506E+02  0.41800000000E+01 0. -1.
         -5    1    4    4    0  501 -0.81184086138E+02 -0.20460140817E+02 -0.22742572464E+02  0.86857182816E+02  0.41800000000E+01 0. -1.
</event>
<event>
11    1  0.8864208E-009  0.1299451E+03  0.7561462E-02  0.1119336E+00
         22   -1    0    0    0    0  0.00000000000E+00  0.00000000000E+00  0.16627205033E+04  0.16627205033E+04  0.00000000000E+00 0. -1.
         22   -1    0    0    0    0 -0.00000000000E+00 -0.00000000000E+00 -0.25903917196E+02  0.25903917196E+02  0.00000000000E+00 0.  1.
         24    2    1    2    0    0  0.33203905929E+02 -0.88354245727E+01  0.85340341765E+02  0.12231953480E+03  0.80613463910E+02 0.  0.
         25    2    1    2    0    0 -0.36282588426E+02  0.26895540081E+02  0.89203871064E+03  0.90189805235E+03  0.12508892538E+03 0.  0.
        -24    2    1    2    0    0  0.30786824975E+01 -0.18060115508E+02  0.65943753372E+03  0.66440683337E+03  0.79012235088E+02 0.  0.
        -11    1    3    3    0    0  0.42685897212E+02 -0.37863792989E+02  0.57190785221E+02  0.80786994959E+02  0.00000000000E+00 0.  1.
         12    1    3    3    0    0 -0.94819912829E+01  0.29028368417E+02  0.28149556544E+02  0.41532539836E+02  0.00000000000E+00 0. -1.
         11    1    5    5    0    0  0.31304354530E+02 -0.35536012416E+02  0.42501140026E+03  0.42764174392E+03  0.00000000000E+00 0. -1.
        -12    1    5    5    0    0 -0.28225672033E+02  0.17475896907E+02  0.23442613346E+03  0.23676508945E+03  0.00000000000E+00 0.  1.
          5    1    4    4  501    0 -0.27225862352E+02 -0.36452948069E+02  0.14305920360E+03  0.15017813802E+03  0.41800000000E+01 0.  1.
         -5    1    4    4    0  501 -0.90567260738E+01  0.63348488150E+02  0.74897950704E+03  0.75171991433E+03  0.41800000000E+01 0.  1.
</event>
<event>
11    1  0.8864208E-009  0.1360723E+03  0.7561462E-02  0.1112025E+00
         22   -1    0    0    0    0  0.00000000000E+00  0.00000000000E+00  0.27685643948E+04  0.27685643948E+04  0.00000000000E+00 0.  1.
         22   -1    0    0    0    0 -0.00000000000E+00 -0.00000000000E+00 -0.70359423416E+03  0.70359423416E+03  0.00000000000E+00 0.  1.
        -24    2    1    2    0    0 -0.28656613829E+02  0.41412469020E+02 -0.67623594039E+03  0.68253334177E+03  0.77592019226E+02 0.  0.
         25    2    1    2    0    0 -0.76246644888E+01  0.38454365602E+00  0.14483586737E+03  0.19152698703E+03  0.12508746901E+03 0.  0.
         24    2    1    2    0    0  0.36281278318E+02 -0.41797012676E+02  0.25963702337E+04  0.25980983002E+04  0.76896460840E+02 0.  0.
        -13    1    5    5    0    0 -0.16809627347E+01 -0.51624354291E+02  0.18263301249E+04  0.18270603780E+04  0.00000000000E+00 0.  1.
         14    1    5    5    0    0  0.37962241053E+02  0.98273416154E+01  0.77004010873E+03  0.77103792219E+03  0.00000000000E+00 0. -1.
         11    1    3    3    0    0 -0.32513558475E+02  0.40157814360E+01 -0.10341560086E+03  0.10848061802E+03  0.00000000000E+00 0. -1.
        -12    1    3    3    0    0  0.38569446456E+01  0.37396687584E+02 -0.57282033953E+03  0.57405272375E+03  0.00000000000E+00 0.  1.
          5    1    4    4  501    0 -0.17597000420E+00 -0.54045248971E+02  0.11881336689E+03  0.13059482552E+03  0.41800000000E+01 0. -1.
         -5    1    4    4    0  501 -0.74486944846E+01  0.54429792627E+02  0.26022500478E+02  0.60932161508E+02  0.41800000000E+01 0. -1.
</event>
<event>
11    1  0.8864208E-009  0.1353131E+03  0.7561462E-02  0.1112908E+00
         22   -1    0    0    0    0  0.00000000000E+00  0.00000000000E+00  0.51956183313E+03  0.51956183313E+03  0.00000000000E+00 0. -1.
         22   -1    0    0    0    0 -0.00000000000E+00 -0.00000000000E+00 -0.52961071671E+03  0.52961071671E+03  0.00000000000E+00 0.  1.
         24    2    1    2    0    0 -0.44297673213E+02 -0.87576040686E+01 -0.30602175459E+03  0.31951714378E+03  0.80018194220E+02 0.  0.
         25    2    1    2    0    0  0.72776998825E+02  0.21606238069E+02 -0.18789099079E+03  0.23814164401E+03  0.12508036261E+03 0.  0.
        -24    2    1    2    0    0 -0.28479325612E+02 -0.12848634000E+02  0.48386386180E+03  0.49151376205E+03  0.80531870374E+02 0.  0.
        -11    1    3    3    0    0 -0.58522505524E+02  0.18163299908E+02 -0.21301369156E+03  0.22165202889E+03  0.00000000000E+00 0.  1.
         12    1    3    3    0    0  0.14224832310E+02 -0.26920903977E+02 -0.93008063026E+02  0.97865114893E+02  0.00000000000E+00 0. -1.
         13    1    5    5    0    0 -0.52373329756E+02 -0.82355038310E+01  0.41704580927E+03  0.42040218390E+03  0.00000000000E+00 0. -1.
        -14    1    5    5    0    0  0.23894004144E+02 -0.46131301691E+01  0.66818052527E+02  0.71111578153E+02  0.00000000000E+00 0.  1.
          5    1    4    4  501    0  0.15017241862E+02  0.37115816133E+02 -0.17125742798E+03  0.17592521252E+03  0.41800000000E+01 0.  1.
         -5    1    4    4    0  501  0.57759756964E+02 -0.15509578065E+02 -0.16633562812E+02  0.62216431496E+02  0.41800000000E+01 0.  1.
</event>
<event>
11    1  0.8864208E-009  0.1615258E+03  0.7561462E-02  0.1085651E+00
         22   -1    0    0    0    0  0.00000000000E+00  0.00000000000E+00  0.77949757884E+03  0.77949757884E+03  0.00000000000E+00 0. -1.
         22   -1    0    0    0    0 -0.00000000000E+00 -0.00000000000E+00 -0.98903409165E+03  0.98903409165E+03  0.00000000000E+00 0. -1.
        -24    2    1    2    0    0  0.15665907957E+02 -0.68856883107E+02 -0.92403549553E+03  0.93016766109E+03  0.79897369877E+02 0.  0.
         25    2    1    2    0    0 -0.56189828525E+02  0.15461562460E+03  0.13757744495E+03  0.24826818669E+03  0.12508497498E+03 0.  0.
         24    2    1    2    0    0  0.40523920568E+02 -0.85758741489E+02  0.57692153777E+03  0.59009582271E+03  0.79861563703E+02 0.  0.
        -13    1    5    5    0    0 -0.90448078347E+01  0.11381843353E+02  0.53959607896E+02  0.55883756058E+02  0.00000000000E+00 0.  1.
         14    1    5    5    0    0  0.49568728402E+02 -0.97140584842E+02  0.52296192987E+03  0.53421206665E+03  0.00000000000E+00 0. -1.
         11    1    3    3    0    0  0.38879421849E+02 -0.35220248478E+02 -0.72958791692E+03  0.73147153318E+03  0.00000000000E+00 0. -1.
        -12    1    3    3    0    0 -0.23213513892E+02 -0.33636634628E+02 -0.19444757861E+03  0.19869612791E+03  0.00000000000E+00 0.  1.
          5    1    4    4  501    0 -0.28178322484E+02 -0.14354484277E+02  0.39791495984E+02  0.50999064987E+02  0.41800000000E+01 0.  1.
         -5    1    4    4    0  501 -0.28011506041E+02  0.16897010887E+03  0.97785948966E+02  0.19726912171E+03  0.41800000000E+01 0.  1.
</event>
<event>
11    1  0.8864208E-009  0.1266192E+03  0.7561462E-02  0.1123494E+00
         22   -1    0    0    0    0  0.00000000000E+00  0.00000000000E+00  0.23353870641E+03  0.23353870641E+03  0.00000000000E+00 0.  1.
         22   -1    0    0    0    0 -0.00000000000E+00 -0.00000000000E+00 -0.14706034774E+04  0.14706034774E+04  0.00000000000E+00 0.  1.
         24    2    1    2    0    0 -0.38071716445E+00  0.24891306262E+00 -0.12750434321E+04  0.12776299780E+04  0.81255154012E+02 0.  0.
         25    2    1    2    0    0  0.19829946619E+02 -0.27467365171E+01 -0.16478208031E+03  0.20784888976E+03  0.12508899087E+03 0.  0.
        -24    2    1    2    0    0 -0.19449229454E+02  0.24978234545E+01  0.20276074136E+03  0.21866331610E+03  0.79480915442E+02 0.  0.
        -13    1    3    3    0    0 -0.81195192595E+01 -0.21803138729E+02 -0.11601732849E+04  0.11604065470E+04  0.00000000000E+00 0.  1.
         14    1    3    3    0    0  0.77388020950E+01  0.22052051791E+02 -0.11487014718E+03  0.11722343093E+03  0.00000000000E+00 0. -1.
         11    1    5    5    0    0 -0.46918845173E+02  0.82146084597E+01  0.16423643137E+03  0.17100427835E+03  0.00000000000E+00 0. -1.
        -12    1    5    5    0    0  0.27469615719E+02 -0.57167850052E+01  0.38524309997E+02  0.47659037750E+02  0.00000000000E+00 0.  1.
          5    1    4    4  501    0 -0.25589335168E+02 -0.24364339345E+02 -0.73307177263E-01  0.35579669476E+02  0.41800000000E+01 0. -1.
         -5    1    4    4    0  501  0.45419281787E+02  0.21617602828E+02 -0.16470877313E+03  0.17226922028E+03  0.41800000000E+01 0. -1.
</event>
<event>
11    1  0.8864208E-009  0.1402437E+03  0.7561462E-02  0.1107287E+00
         22   -1    0    0    0    0  0.00000000000E+00  0.00000000000E+00  0.21810139130E+03  0.21810139130E+03  0.00000000000E+00 0. -1.
         22   -1    0    0    0    0 -0.00000000000E+00 -0.00000000000E+00 -0.88999748118E+03  0.88999748118E+03  0.00000000000E+00 0. -1.
        -24    2    1    2    0    0 -0.78728207594E+01  0.11975982579E+02 -0.74886946191E+03  0.75339601277E+03  0.81207608090E+02 0.  0.
         25    2    1    2    0    0 -0.23041699219E+02 -0.66423069736E+02 -0.80068134055E+02  0.16431939872E+03  0.12508802743E+03 0.  0.
         24    2    1    2    0    0  0.30914519978E+02  0.54447087158E+02  0.15704150610E+03  0.19038346099E+03  0.87542188322E+02 0.  0.
        -13    1    5    5    0    0  0.99453950092E+01  0.14271241606E+01 -0.98203264204E+01  0.14049426190E+02  0.00000000000E+00 0.  1.
         14    1    5    5    0    0  0.20969124969E+02  0.53019962997E+02  0.16686183252E+03  0.17633403480E+03  0.00000000000E+00 0. -1.
         11    1    3    3    0    0 -0.13738298206E+02  0.11105288162E+01 -0.73373138940E+03  0.73386083551E+03  0.00000000000E+00 0. -1.
        -12    1    3    3    0    0  0.58654774469E+01  0.10865453762E+02 -0.15138072516E+02  0.19535177262E+02  0.00000000000E+00 0.  1.
          5    1    4    4  501    0 -0.29202233062E+02 -0.63942699318E+02 -0.11152602520E+03  0.13189755839E+03  0.41800000000E+01 0.  1.
         -5    1    4    4    0  501  0.61605338428E+01 -0.24803704184E+01  0.31457891148E+02  0.32421840326E+02  0.41800000000E+01 0.  1.
</event>
<event>
11    1  0.8864208E-009  0.1301560E+03  0.7561462E-02  0.1119077E+00
         22   -1    0    0    0    0  0.00000000000E+00  0.00000000000E+00  0.14287156075E+04  0.14287156075E+04  0.00000000000E+00 0. -1.
         22   -1    0    0    0    0 -0.00000000000E+00 -0.00000000000E+00 -0.36389084645E+03  0.36389084645E+03  0.00000000000E+00 0.  1.
         24    2    1    2    0    0  0.32308913261E+02 -0.14933353688E+02 -0.33853185262E+03  0.34762464616E+03  0.70513888399E+02 0.  0.
         25    2    1    2    0    0 -0.56690653553E+02 -0.10064220377E+02  0.22803208005E+03  0.26638701307E+03  0.12509313518E+03 0.  0.
        -24    2    1    2    0    0  0.24381740292E+02  0.24997574065E+02  0.11753245336E+04  0.11785947947E+04  0.80489644466E+02 0.  0.
        -11    1    3    3    0    0 -0.99414406499E+01  0.88935027580E+01 -0.20707685730E+03  0.20750602753E+03  0.00000000000E+00 0.  1.
         12    1    3    3    0    0  0.42250353911E+02 -0.23826856446E+02 -0.13145499532E+03  0.14011861864E+03  0.00000000000E+00 0. -1.
         11    1    5    5    0    0 -0.21472800836E+02  0.28390408515E+02  0.73841500759E+03  0.73927249367E+03  0.00000000000E+00 0. -1.
        -12    1    5    5    0    0  0.45854541128E+02 -0.33928344503E+01  0.43690952603E+03  0.43932230105E+03  0.00000000000E+00 0.  1.
          5    1    4    4  501    0 -0.92806549100E+02  0.27045041792E+01  0.19341993888E+03  0.21459057541E+03  0.41800000000E+01 0. -1.
         -5    1    4    4    0  501  0.36115895547E+02 -0.12768724556E+02  0.34612141176E+02  0.51796437664E+02  0.41800000000E+01 0. -1.
</event>
<event>
11    1  0.8864208E-009  0.2713963E+03  0.7561462E-02  0.1013081E+00
         22   -1    0    0    0    0  0.00000000000E+00  0.00000000000E+00  0.36636945502E+03  0.36636945502E+03  0.00000000000E+00 0. -1.
         22   -1    0    0    0    0 -0.00000000000E+00 -0.00000000000E+00 -0.46283085382E+03  0.46283085382E+03  0.00000000000E+00 0. -1.
         24    2    1    2    0    0 -0.33014329538E+02 -0.24485422453E+03 -0.16553999287E+03  0.30829117993E+03  0.81218379443E+02 0.  0.
         25    2    1    2    0    0  0.15970371440E+03  0.19733124241E+03 -0.90271198924E+02  0.29705321836E+03  0.12508728777E+03 0.  0.
        -24    2    1    2    0    0 -0.12668938486E+03  0.47522982121E+02  0.15934979299E+03  0.22385591054E+03  0.80065461304E+02 0.  0.
        -11    1    3    3    0    0 -0.38736521190E+02 -0.89182681321E+02 -0.99420801119E+02  0.13906316700E+03  0.00000000000E+00 0.  1.
         12    1    3    3    0    0  0.57221916525E+01 -0.15567154321E+03 -0.66119191752E+02  0.16922801293E+03  0.00000000000E+00 0. -1.
         13    1    5    5    0    0 -0.16718513108E+02  0.35112866396E+02  0.14360341788E+02  0.41456501099E+02  0.00000000000E+00 0. -1.
        -14    1    5    5    0    0 -0.10997087175E+03  0.12410115725E+02  0.14498945120E+03  0.18239940945E+03  0.00000000000E+00 0.  1.
          5    1    4    4  501    0  0.16265282177E+03  0.12060158732E+03 -0.86007531768E+02  0.22003511359E+03  0.41800000000E+01 0.  1.
         -5    1    4    4    0  501 -0.29491073737E+01  0.76729655089E+02 -0.42636671563E+01  0.77018104767E+02  0.41800000000E+01 0.  1.
</event>
<event>
11    1  0.8864208E-009  0.1285079E+03  0.7561462E-02  0.1121116E+00
         22   -1    0    0    0    0  0.00000000000E+00  0.00000000000E+00  0.80412060166E+03  0.80412060166E+03  0.00000000000E+00 0. -1.
         22   -1    0    0    0    0 -0.00000000000E+00 -0.00000000000E+00 -0.15237508912E+03  0.15237508912E+03  0.00000000000E+00 0.  1.
         24    2    1    2    0    0 -0.18696229753E+02 -0.21656728039E+02 -0.10700680602E+03  0.13812012905E+03  0.82511518211E+02 0.  0.
         25    2    1    2    0    0  0.18540437098E+02  0.34066095592E+02  0.13080659857E+03  0.18509839432E+03  0.12508718029E+03 0.  0.
        -24    2    1    2    0    0  0.15579265525E+00 -0.12409367553E+02  0.62794571999E+03  0.63327716742E+03  0.81056318987E+02 0.  0.
        -11    1    3    3    0    0 -0.31061304619E+02 -0.13767334577E+02 -0.11602817404E+03  0.12090029494E+03  0.00000000000E+00 0.  1.
         12    1    3    3    0    0  0.12365074866E+02 -0.78893934621E+01  0.90213680217E+01  0.17219834106E+02  0.00000000000E+00 0. -1.
         13    1    5    5    0    0 -0.85742366513E+01 -0.12249485685E+02  0.62312290714E+03  0.62330227405E+03  0.00000000000E+00 0. -1.
        -14    1    5    5    0    0  0.87300293065E+01 -0.15988186830E+00  0.48228128449E+01  0.99748933649E+01  0.00000000000E+00 0.  1.
          5    1    4    4  501    0  0.50673830340E+02  0.24965846810E+02  0.73301430408E+01  0.57116845022E+02  0.41800000000E+01 0.  1.
         -5    1    4    4    0  501 -0.32133393242E+02  0.91002487828E+01  0.12347645553E+03  0.12798154929E+03  0.41800000000E+01 0.  1.
</event>
<event>
11    1  0.8864208E-009  0.1444044E+03  0.7561462E-02  0.1102738E+00
         22   -1    0    0    0    0  0.00000000000E+00  0.00000000000E+00  0.15643642493E+04  0.15643642493E+04  0.00000000000E+00 0. -1.
         22   -1    0    0    0    0 -0.00000000000E+00 -0.00000000000E+00 -0.45681397886E+03  0.45681397886E+03  0.00000000000E+00 0. -1.
         24    2    1    2    0    0 -0.19682215233E+02  0.69973679215E+02 -0.41817151930E+03  0.43199488755E+03  0.80426724052E+02 0.  0.
         25    2    1    2    0    0  0.16765462079E+02 -0.57080737559E+02  0.12586567457E+03  0.18716630784E+03  0.12509903051E+03 0.  0.
        -24    2    1    2    0    0  0.29167531543E+01 -0.12892941656E+02  0.13998561152E+04  0.14020170328E+04  0.76680385947E+02 0.  0.
        -11    1    3    3    0    0 -0.53323833773E+01  0.44305214649E+02 -0.72904530542E+02  0.85477815433E+02  0.00000000000E+00 0.  1.
         12    1    3    3    0    0 -0.14349831856E+02  0.25668464566E+02 -0.34526698875E+03  0.34651707212E+03  0.00000000000E+00 0. -1.
         13    1    5    5    0    0 -0.34891863665E+02 -0.66944415901E+01  0.89706187912E+03  0.89776515452E+03  0.00000000000E+00 0. -1.
        -14    1    5    5    0    0  0.37808616820E+02 -0.61985000662E+01  0.50279423610E+03  0.50425187830E+03  0.00000000000E+00 0.  1.
          5    1    4    4  501    0  0.23301816864E+02 -0.84567877711E+02  0.39672497558E+02  0.96364309120E+02  0.41800000000E+01 0. -1.
         -5    1    4    4    0  501 -0.65363547849E+01  0.27487140152E+02  0.86193177012E+02  0.90801998717E+02  0.41800000000E+01 0. -1.
</event>
<event>
11    1  0.8864208E-009  0.3434958E+03  0.7561462E-02  0.9832970E-01
         22   -1    0    0    0    0  0.00000000000E+00  0.00000000000E+00  0.19205446551E+04  0.19205446551E+04  0.00000000000E+00 0.  1.
         22   -1    0    0    0    0 -0.00000000000E+00 -0.00000000000E+00 -0.13552901552E+03  0.13552901552E+03  0.00000000000E+00 0.  1.
        -24    2    1    2    0    0 -0.85740313304E+02 -0.24318525108E+03  0.39312706877E+03  0.47692493104E+03  0.80112608104E+02 0.  0.
         25    2    1    2    0    0  0.12026498753E+03  0.36792629665E+03  0.38272474268E+03  0.55853276072E+03  0.12508872509E+03 0.  0.
         24    2    1    2    0    0 -0.34524674224E+02 -0.12474104557E+03  0.10091638281E+04  0.10206159788E+04  0.80579542875E+02 0.  0.
        -11    1    5    5    0    0 -0.23696466026E+02 -0.11816621625E+03  0.99194319849E+03  0.99923775259E+03  0.00000000000E+00 0.  1.
         12    1    5    5    0    0 -0.10828208199E+02 -0.65748293172E+01  0.17220629607E+02  0.21378226245E+02  0.00000000000E+00 0. -1.
         11    1    3    3    0    0 -0.79502299269E+02 -0.12848425569E+03  0.26332635335E+03  0.30359444646E+03  0.00000000000E+00 0. -1.
        -12    1    3    3    0    0 -0.62380140354E+01 -0.11470099539E+03  0.12980071542E+03  0.17333048458E+03  0.00000000000E+00 0.  1.
          5    1    4    4  501    0  0.31754859774E+02  0.23092685573E+03  0.16133697352E+03  0.28351838608E+03  0.41800000000E+01 0.  1.
         -5    1    4    4    0  501  0.88510127755E+02  0.13699944091E+03  0.22138776916E+03  0.27501437464E+03  0.41800000000E+01 0.  1.
</event>
<event>
11    1  0.8864208E-009  0.1428342E+03  0.7561462E-02  0.1104434E+00
         22   -1    0    0    0    0  0.00000000000E+00  0.00000000000E+00  0.72472243919E+02  0.72472243919E+02  0.00000000000E+00 0. -1.
         22   -1    0    0    0    0 -0.00000000000E+00 -0.00000000000E+00 -0.19428324702E+04  0.19428324702E+04  0.00000000000E+00 0.  1.
        -24    2    1    2    0    0  0.32124441098E+02 -0.34352899595E+02 -0.16944885798E+04  0.16966674339E+04  0.71949515105E+02 0.  0.
         25    2    1    2    0    0 -0.60414154670E+02  0.81675150606E+02 -0.13585145793E+03  0.21077116964E+03  0.12509263375E+03 0.  0.
         24    2    1    2    0    0  0.28289713572E+02 -0.47322251011E+02 -0.40020188604E+02  0.10786611065E+03  0.83628816774E+02 0.  0.
        -13    1    5    5    0    0 -0.17422625440E+02 -0.50830925009E+02 -0.15766315642E+02  0.55999174310E+02  0.00000000000E+00 0.  1.
         14    1    5    5    0    0  0.45712339012E+02  0.35086739976E+01 -0.24253872963E+02  0.51866936336E+02  0.00000000000E+00 0. -1.
         11    1    3    3    0    0  0.39897645358E+02 -0.17808460822E+02 -0.46621097764E+03  0.46825381905E+03  0.00000000000E+00 0. -1.
        -12    1    3    3    0    0 -0.77732042591E+01 -0.16544438773E+02 -0.12282776022E+04  0.12284136148E+04  0.00000000000E+00 0.  1.
          5    1    4    4  501    0 -0.87534579951E+02  0.20459801380E+02 -0.54031503677E+02  0.10496562270E+03  0.41800000000E+01 0.  1.
         -5    1    4    4    0  501  0.27120425280E+02  0.61215349227E+02 -0.81819954252E+02  0.10580554693E+03  0.41800000000E+01 0.  1.
</event>
<event>
11    1  0.8864208E-009  0.1631786E+03  0.7561462E-02  0.1084125E+00
         22   -1    0    0    0    0  0.00000000000E+00  0.00000000000E+00  0.15146975379E+04  0.15146975379E+04  0.00000000000E+00 0. -1.
         22   -1    0    0    0    0 -0.00000000000E+00 -0.00000000000E+00 -0.65257599762E+02  0.65257599762E+02  0.00000000000E+00 0. -1.
        -24    2    1    2    0    0  0.33617805922E+02 -0.20728621445E+02  0.29837558738E+02  0.93907624376E+02  0.79803066247E+02 0.  0.
         25    2    1    2    0    0 -0.12631826069E+03 -0.22730771013E+02  0.24125310725E+03  0.30054276099E+03  0.12509955433E+03 0.  0.
         24    2    1    2    0    0  0.92700454763E+02  0.43459392458E+02  0.11783492721E+04  0.11855047522E+04  0.80202353060E+02 0.  0.
        -13    1    5    5    0    0  0.97986353364E+02  0.27904232891E+02  0.75576801288E+03  0.76260426235E+03  0.00000000000E+00 0.  1.
         14    1    5    5    0    0 -0.52858986004E+01  0.15555159567E+02  0.42258125922E+03  0.42290048990E+03  0.00000000000E+00 0. -1.
         13    1    3    3    0    0 -0.18712903544E+02 -0.27074153699E+02 -0.82927827802E+00  0.32922184922E+02  0.00000000000E+00 0. -1.
        -14    1    3    3    0    0  0.52330709466E+02  0.63455322540E+01  0.30666837016E+02  0.60985439454E+02  0.00000000000E+00 0.  1.
          5    1    4    4  501    0 -0.35952328114E+02 -0.41914118812E+02  0.16933990564E+02  0.57910238206E+02  0.41800000000E+01 0. -1.
         -5    1    4    4    0  501 -0.90365932571E+02  0.19183347798E+02  0.22431911669E+03  0.24263252278E+03  0.41800000000E+01 0. -1.
</event>
<event>
11    1  0.8864208E-009  0.1755014E+03  0.7561462E-02  0.1073341E+00
         22   -1    0    0    0    0  0.00000000000E+00  0.00000000000E+00  0.27562073663E+04  0.27562073663E+04  0.00000000000E+00 0.  1.
         22   -1    0    0    0    0 -0.00000000000E+00 -0.00000000000E+00 -0.55384901207E+02  0.55384901207E+02  0.00000000000E+00 0. -1.
        -24    2    1    2    0    0  0.96496738649E+02  0.26238111599E+02  0.19189718675E+03  0.23112446167E+03  0.81203001360E+02 0.  0.
         25    2    1    2    0    0 -0.14234499219E+03 -0.61725051540E+02  0.25148842026E+03  0.32087418055E+03  0.12506692380E+03 0.  0.
         24    2    1    2    0    0  0.45848253546E+02  0.35486939941E+02  0.22574368580E+04  0.22595936252E+04  0.79879897014E+02 0.  0.
        -13    1    5    5    0    0  0.56054960573E+02  0.34575190851E+02  0.10247816453E+04  0.10268958190E+04  0.00000000000E+00 0.  1.
         14    1    5    5    0    0 -0.10206707027E+02  0.91174908996E+00  0.12326552127E+04  0.12326978062E+04  0.00000000000E+00 0. -1.
         11    1    3    3    0    0  0.84479191796E+02 -0.97385980859E+01  0.97403362162E+02  0.12930192999E+03  0.00000000000E+00 0. -1.
        -12    1    3    3    0    0  0.12017546852E+02  0.35976709685E+02  0.94493824592E+02  0.10182253168E+03  0.00000000000E+00 0.  1.
          5    1    4    4  501    0 -0.22235251176E+02  0.36396320881E+02  0.40357784941E+02  0.58866983733E+02  0.41800000000E+01 0.  1.
         -5    1    4    4    0  501 -0.12010974102E+03 -0.98121372421E+02  0.21113063532E+03  0.26200719682E+03  0.41800000000E+01 0.  1.
</event>
<event>
11    1  0.8864208E-009  0.1453344E+03  0.7561462E-02  0.1101744E+00
         22   -1    0    0    0    0  0.00000000000E+00  0.00000000000E+00  0.18427170976E+03  0.18427170976E+03  0.00000000000E+00 0.  1.
         22   -1    0    0    0    0 -0.00000000000E+00 -0.00000000000E+00 -0.66719226313E+03  0.66719226313E+03  0.00000000000E+00 0. -1.
         24    2    1    2    0    0 -0.30936261879E+02 -0.79814506599E+02 -0.42542900060E+03  0.44066513574E+03  0.76606263117E+02 0.  0.
         25    2    1    2    0    0  0.77149401585E+01  0.43730762740E+02 -0.20176560127E+03  0.24151353903E+03  0.12509009460E+03 0.  0.
        -24    2    1    2    0    0  0.23221321720E+02  0.36083743858E+02  0.14427404850E+03  0.16928529812E+03  0.77467701255E+02 0.  0.
        -13    1    3    3    0    0  0.18978047416E+02 -0.56072927839E+02 -0.20152485774E+03  0.21003953867E+03  0.00000000000E+00 0.  1.
         14    1    3    3    0    0 -0.49914309295E+02 -0.23741578760E+02 -0.22390414286E+03  0.23062559707E+03  0.00000000000E+00 0. -1.
         11    1    5    5    0    0  0.51370503232E+02  0.28026193722E+02  0.85305450749E+02  0.10344764891E+03  0.00000000000E+00 0. -1.
        -12    1    5    5    0    0 -0.28149181512E+02  0.80575501358E+01  0.58968597746E+02  0.65837649215E+02  0.00000000000E+00 0.  1.
          5    1    4    4  501    0 -0.18015028960E+02  0.60916003826E+02 -0.20039186689E+03  0.21026096524E+03  0.41800000000E+01 0.  1.
         -5    1    4    4    0  501  0.25729969118E+02 -0.17185241086E+02 -0.13737343795E+01  0.31252573784E+02  0.41800000000E+01 0.  1.
</event>
<event>
11    1  0.8864208E-009  0.1753877E+03  0.7561462E-02  0.1073436E+00
         22   -1    0    0    0    0  0.00000000000E+00  0.00000000000E+00  0.15862207334E+04  0.15862207334E+04  0.00000000000E+00 0.  1.
         22   -1    0    0    0    0 -0.00000000000E+00 -0.00000000000E+00 -0.17447699611E+03  0.17447699611E+03  0.00000000000E+00 0.  1.
        -24    2    1    2    0    0  0.55020647341E+02 -0.35282606152E+02 -0.13305641587E+03  0.16883284980E+03  0.80798437091E+02 0.  0.
         25    2    1    2    0    0 -0.32439021288E+02  0.15031781436E+03  0.50980774349E+03  0.54699040612E+03  0.12508730411E+03 0.  0.
         24    2    1    2    0    0 -0.22581626053E+02 -0.11503520821E+03  0.10349924097E+04  0.10448744736E+04  0.82524835793E+02 0.  0.
        -13    1    5    5    0    0 -0.38509959093E+02 -0.76256399420E+02  0.88561453563E+03  0.88972532903E+03  0.00000000000E+00 0.  1.
         14    1    5    5    0    0  0.15928333040E+02 -0.38778808791E+02  0.14937787407E+03  0.15514914459E+03  0.00000000000E+00 0. -1.
         11    1    3    3    0    0  0.53241298051E+02 -0.85572718397E+01 -0.28684944567E+02  0.61079364473E+02  0.00000000000E+00 0. -1.
        -12    1    3    3    0    0  0.17793492897E+01 -0.26725334313E+02 -0.10437147130E+03  0.10775348533E+03  0.00000000000E+00 0.  1.
          5    1    4    4  501    0 -0.44295301609E+02  0.16949785820E+03  0.45484926929E+03  0.48743915298E+03  0.41800000000E+01 0. -1.
         -5    1    4    4    0  501  0.11856280321E+02 -0.19180043840E+02  0.54958474191E+02  0.59551253137E+02  0.41800000000E+01 0. -1.
</event>
<event>
11    1  0.8864208E-009  0.1428848E+03  0.7561462E-02  0.1104379E+00
         22   -1    0    0    0    0  0.00000000000E+00  0.00000000000E+00  0.10752915556E+04  0.10752915556E+04  0.00000000000E+00 0. -1.
         22   -1    0    0    0    0 -0.00000000000E+00 -0.00000000000E+00 -0.58734531942E+03  0.58734531942E+03  0.00000000000E+00 0. -1.
        -24    2    1    2    0    0 -0.70083726494E+02 -0.11012693622E+02 -0.53294646562E+03  0.54362974040E+03  0.80426061047E+02 0.  0.
         25    2    1    2    0    0  0.34655535003E+02  0.17822800508E+02  0.43860392734E+02  0.13816093192E+03  0.12508417459E+03 0.  0.
         24    2    1    2    0    0  0.35428191491E+02 -0.68101068863E+01  0.97703230909E+03  0.98084620273E+03  0.78521373514E+02 0.  0.
        -11    1    5    5    0    0  0.45053745175E+01 -0.39336771697E+02  0.35619407538E+03  0.35838791740E+03  0.00000000000E+00 0.  1.
         12    1    5    5    0    0  0.30922816974E+02  0.32526664811E+02  0.62083823372E+03  0.62245828533E+03  0.00000000000E+00 0. -1.
         13    1    3    3    0    0 -0.58143272060E+02 -0.25744523203E+01 -0.52232584443E+03  0.52555832754E+03  0.00000000000E+00 0. -1.
        -14    1    3    3    0    0 -0.11940454434E+02 -0.84382413018E+01 -0.10620621191E+02  0.18071412862E+02  0.00000000000E+00 0.  1.
          5    1    4    4  501    0  0.68042081018E+02  0.40810901462E+02  0.16214154806E+01  0.79469213256E+02  0.41800000000E+01 0.  1.
         -5    1    4    4    0  501 -0.33386546016E+02 -0.22988100953E+02  0.42238977254E+02  0.58691718664E+02  0.41800000000E+01 0.  1.
</event>
<event>
11    1  0.8864208E-009  0.2293132E+03  0.7561462E-02  0.1035535E+00
         22   -1    0    0    0    0  0.00000000000E+00  0.00000000000E+00  0.11883941462E+04  0.11883941462E+04  0.00000000000E+00 0.  1.
         22   -1    0    0    0    0 -0.00000000000E+00 -0.00000000000E+00 -0.80911781060E+03  0.80911781060E+03  0.00000000000E+00 0.  1.
        -24    2    1    2    0    0 -0.37851917198E+02  0.27448161744E+02 -0.72383485120E+03  0.72977048537E+03  0.80261449567E+02 0.  0.
         25    2    1    2    0    0  0.16165779556E+03  0.11879884306E+03  0.12494412742E+03  0.26740464119E+03  0.12509116348E+03 0.  0.
         24    2    1    2    0    0 -0.12380587836E+03 -0.14624700480E+03  0.97816705938E+03  0.10003368302E+04  0.84539315884E+02 0.  0.
        -13    1    5    5    0    0 -0.10206552431E+03 -0.14336099740E+03  0.93988017391E+03  0.95621362056E+03  0.00000000000E+00 0.  1.
         14    1    5    5    0    0 -0.21740354051E+02 -0.28860074050E+01  0.38286885467E+02  0.44123209672E+02  0.00000000000E+00 0. -1.
         11    1    3    3    0    0 -0.25179443582E+02  0.42580548066E+01 -0.57545769238E+02  0.62957533044E+02  0.00000000000E+00 0. -1.
        -12    1    3    3    0    0 -0.12672473616E+02  0.23190106937E+02 -0.66628908196E+03  0.66681295232E+03  0.00000000000E+00 0.  1.
          5    1    4    4  501    0  0.65140639097E+02  0.24320592919E+02  0.11168719123E+03  0.13162938572E+03  0.41800000000E+01 0.  1.
         -5    1    4    4    0  501  0.96517156460E+02  0.94478250141E+02  0.13256936190E+02  0.13577525547E+03  0.41800000000E+01 0.  1.
</event>
<event>
11    1  0.8864208E-009  0.1448232E+03  0.7561462E-02  0.1102289E+00
         22   -1    0    0    0    0  0.00000000000E+00  0.00000000000E+00  0.32756996337E+03  0.32756996337E+03  0.00000000000E+00 0. -1.
         22   -1    0    0    0    0 -0.00000000000E+00 -0.00000000000E+00 -0.13510523106E+04  0.13510523106E+04  0.00000000000E+00 0.  1.
         24    2    1    2    0    0  0.69336774543E+02 -0.31885004394E+02 -0.67635572426E+03  0.68542041422E+03  0.80745505657E+02 0.  0.
         25    2    1    2    0    0 -0.33908083871E+02  0.71276787704E+02 -0.65449838619E+03  0.67100388145E+03  0.12509169750E+03 0.  0.
        -24    2    1    2    0    0 -0.35428690672E+02 -0.39391783310E+02  0.30737176326E+03  0.32219797826E+03  0.80791284348E+02 0.  0.
        -13    1    3    3    0    0  0.84618972034E+02 -0.39276640940E+02 -0.53817700707E+03  0.54620281571E+03  0.00000000000E+00 0.  1.
         14    1    3    3    0    0 -0.15282197491E+02  0.73916365459E+01 -0.13817871718E+03  0.13921759850E+03  0.00000000000E+00 0. -1.
         11    1    5    5    0    0 -0.15248353405E+02 -0.39504129842E+02  0.29604072752E+03  0.29905384282E+03  0.00000000000E+00 0. -1.
        -12    1    5    5    0    0 -0.20180337267E+02  0.11234653231E+00  0.11331035740E+02  0.23144135432E+02  0.00000000000E+00 0.  1.
          5    1    4    4  501    0  0.20980180425E+02 -0.26956452429E+02 -0.12404270047E+03  0.12872793884E+03  0.41800000000E+01 0. -1.
         -5    1    4    4    0  501 -0.54888264296E+02  0.98233240133E+02 -0.53045568571E+03  0.54227594261E+03  0.41800000000E+01 0. -1.
</event>
<event>
11    1  0.8864208E-009  0.1605932E+03  0.7561462E-02  0.1086521E+00
         22   -1    0    0    0    0  0.00000000000E+00  0.00000000000E+00  0.94421892420E+02  0.94421892420E+02  0.00000000000E+00 0.  1.
         22   -1    0    0    0    0 -0.00000000000E+00 -0.00000000000E+00 -0.24285754100E+04  0.24285754100E+04  0.00000000000E+00 0. -1.
         24    2    1    2    0    0 -0.11123259990E+02 -0.51015141474E+01 -0.15323232081E+04  0.15344578403E+04  0.79979355223E+02 0.  0.
         25    2    1    2    0    0  0.45406472846E+02  0.99291893486E+02 -0.83732815587E+03  0.85363102227E+03  0.12508738416E+03 0.  0.
        -24    2    1    2    0    0 -0.34283212856E+02 -0.94190379338E+02  0.35497846340E+02  0.13490843989E+03  0.83024236310E+02 0.  0.
        -11    1    3    3    0    0 -0.27790078941E+02 -0.38986168730E+01 -0.19290903108E+03  0.19493943155E+03  0.00000000000E+00 0.  1.
         12    1    3    3    0    0  0.16666818950E+02 -0.12028972744E+01 -0.13394141770E+04  0.13395184087E+04  0.00000000000E+00 0. -1.
         13    1    5    5    0    0  0.21585826445E+02 -0.20982566373E+02  0.30237263083E+02  0.42667412316E+02  0.00000000000E+00 0. -1.
        -14    1    5    5    0    0 -0.55869039301E+02 -0.73207812965E+02  0.52605832564E+01  0.92241027573E+02  0.00000000000E+00 0.  1.
          5    1    4    4  501    0  0.65014478616E+01 -0.29805410049E+02 -0.13523975363E+03  0.13870073776E+03  0.41800000000E+01 0.  1.
         -5    1    4    4    0  501  0.38905024985E+02  0.12909730353E+03 -0.70208840224E+03  0.71493028451E+03  0.41800000000E+01 0.  1.
</event>
<event>
11    1  0.8864208E-009  0.1711625E+03  0.7561462E-02  0.1077024E+00
         22   -1    0    0    0    0  0.00000000000E+00  0.00000000000E+00  0.64312206068E+02  0.64312206068E+02  0.00000000000E+00 0.  1.
         22   -1    0    0    0    0 -0.00000000000E+00 -0.00000000000E+00 -0.87024442438E+03  0.87024442438E+03  0.00000000000E+00 0. -1.
         24    2    1    2    0    0 -0.51104644539E+02 -0.36065221024E+02 -0.36726337162E+03  0.38116138173E+03  0.80555756654E+02 0.  0.
         25    2    1    2    0    0  0.15119023465E+03  0.45475775266E+02 -0.32149669156E+03  0.37939277254E+03  0.12510883255E+03 0.  0.
        -24    2    1    2    0    0 -0.10008559011E+03 -0.94105542416E+01 -0.11717215513E+03  0.17400247617E+03  0.80261222869E+02 0.  0.
        -13    1    3    3    0    0 -0.39536530462E+02 -0.20285096848E+02 -0.67831376078E+02  0.81090800809E+02  0.00000000000E+00 0.  1.
         14    1    3    3    0    0 -0.11568114077E+02 -0.15780124176E+02 -0.29943199554E+03  0.30007058092E+03  0.00000000000E+00 0. -1.
         11    1    5    5    0    0 -0.13420217750E+01  0.24245740151E+02 -0.23676351177E+02  0.33914989945E+02  0.00000000000E+00 0. -1.
        -12    1    5    5    0    0 -0.98743568338E+02 -0.33656294392E+02 -0.93495803956E+02  0.14008748623E+03  0.00000000000E+00 0.  1.
          5    1    4    4  501    0  0.92600511828E+02 -0.15677263730E+02 -0.25455393870E+03  0.27135919277E+03  0.41800000000E+01 0.  1.
         -5    1    4    4    0  501  0.58589722825E+02  0.61153038996E+02 -0.66942752854E+02  0.10803357977E+03  0.41800000000E+01 0.  1.
</event>
<event>
11    1  0.8864208E-009  0.2469387E+03  0.7561462E-02  0.1025543E+00
         22   -1    0    0    0    0  0.00000000000E+00  0.00000000000E+00  0.16782982132E+04  0.16782982132E+04  0.00000000000E+00 0. -1.
         22   -1    0    0    0    0 -0.00000000000E+00 -0.00000000000E+00 -0.24948037723E+03  0.24948037723E+03  0.00000000000E+00 0. -1.
         24    2    1    2    0    0  0.22318041099E+01 -0.30794130690E+02 -0.17075276038E+03  0.19060602233E+03  0.78872626019E+02 0.  0.
         25    2    1    2    0    0 -0.21284240531E+03 -0.24413286903E+01  0.19595887250E+03  0.31520741003E+03  0.12509189441E+03 0.  0.
        -24    2    1    2    0    0  0.21061060120E+03  0.33235459380E+02  0.14036117239E+04  0.14219651581E+04  0.79985113139E+02 0.  0.
        -13    1    3    3    0    0 -0.25446264510E+02 -0.84773151610E+01 -0.14763190455E+02  0.30615829929E+02  0.00000000000E+00 0.  1.
         14    1    3    3    0    0  0.27678068619E+02 -0.22316815529E+02 -0.15598956993E+03  0.15999019240E+03  0.00000000000E+00 0. -1.
         11    1    5    5    0    0  0.14906235257E+03  0.14999608878E+02  0.72457962686E+03  0.73990554051E+03  0.00000000000E+00 0. -1.
        -12    1    5    5    0    0  0.61548248625E+02  0.18235850502E+02  0.67903209700E+03  0.68205961756E+03  0.00000000000E+00 0.  1.
          5    1    4    4  501    0 -0.14346261389E+03  0.21357241732E+02  0.19328688200E+03  0.24169183792E+03  0.41800000000E+01 0.  1.
         -5    1    4    4    0  501 -0.69379791412E+02 -0.23798570422E+02  0.26719904908E+01  0.73515572117E+02  0.41800000000E+01 0.  1.
</event>
<event>
11    1  0.8864208E-009  0.1311506E+03  0.7561462E-02  0.1117863E+00
         22   -1    0    0    0    0  0.00000000000E+00  0.00000000000E+00  0.62835362957E+03  0.62835362957E+03  0.00000000000E+00 0.  1.
         22   -1    0    0    0    0 -0.00000000000E+00 -0.00000000000E+00 -0.18968158433E+03  0.18968158433E+03  0.00000000000E+00 0.  1.
         24    2    1    2    0    0 -0.40082769771E+02  0.65864687833E+00 -0.15566628027E+03  0.17936914543E+03  0.79587921657E+02 0.  0.
         25    2    1    2    0    0  0.26705681987E+02  0.53909734495E+01  0.21135699890E+03  0.24710328365E+03  0.12508395486E+03 0.  0.
        -24    2    1    2    0    0  0.13377087784E+02 -0.60496203278E+01  0.38298132661E+03  0.39156278481E+03  0.80194597902E+02 0.  0.
        -13    1    3    3    0    0 -0.51241478382E+02  0.28447362056E+02 -0.11221670342E+03  0.12659988168E+03  0.00000000000E+00 0.  1.
         14    1    3    3    0    0  0.11158708611E+02 -0.27788715178E+02 -0.43449576844E+02  0.52769263753E+02  0.00000000000E+00 0. -1.
         13    1    5    5    0    0  0.82168371275E+01  0.23872263308E+02  0.40409538719E+02  0.47648002973E+02  0.00000000000E+00 0. -1.
        -14    1    5    5    0    0  0.51602506568E+01 -0.29921883636E+02  0.34257178789E+03  0.34391478184E+03  0.00000000000E+00 0.  1.
          5    1    4    4  501    0  0.35858604196E+02  0.60029384408E+02  0.14112631401E+03  0.15755467429E+03  0.41800000000E+01 0. -1.
         -5    1    4    4    0  501 -0.91529222088E+01 -0.54638410958E+02  0.70230684891E+02  0.89548609354E+02  0.41800000000E+01 0. -1.
</event>
<event>
11    1  0.8864208E-009  0.2038862E+03  0.7561462E-02  0.1051809E+00
         22   -1    0    0    0    0  0.00000000000E+00  0.00000000000E+00  0.21643409384E+04  0.21643409384E+04  0.00000000000E+00 0. -1.
         22   -1    0    0    0    0 -0.00000000000E+00 -0.00000000000E+00 -0.23268625501E+03  0.23268625501E+03  0.00000000000E+00 0. -1.
        -24    2    1    2    0    0 -0.61433678442E+02  0.13891291513E+03 -0.12077528270E+03  0.21015042704E+03  0.80657536771E+02 0.  0.
         25    2    1    2    0    0  0.65016067216E+02 -0.19653451860E+03  0.15596530138E+03  0.28779437203E+03  0.12509004493E+03 0.  0.
         24    2    1    2    0    0 -0.35823887740E+01  0.57621603467E+02  0.18964646647E+04  0.18990823943E+04  0.81256589316E+02 0.  0.
        -13    1    5    5    0    0 -0.42500033524E+01  0.76251087635E+02  0.17057762550E+04  0.17074849700E+04  0.00000000000E+00 0.  1.
         14    1    5    5    0    0  0.66761457844E+00 -0.18629484167E+02  0.19068840976E+03  0.19159742432E+03  0.00000000000E+00 0. -1.
         11    1    3    3    0    0 -0.79375400118E+02  0.11204615000E+03 -0.83018306605E+02  0.16045819738E+03  0.00000000000E+00 0. -1.
        -12    1    3    3    0    0  0.17941721676E+02  0.26866765127E+02 -0.37756976097E+02  0.49692229665E+02  0.00000000000E+00 0.  1.
          5    1    4    4  501    0  0.68241323260E+02 -0.20530537519E+03  0.16655426341E+03  0.27306587181E+03  0.41800000000E+01 0.  1.
         -5    1    4    4    0  501 -0.32252560435E+01  0.87708565976E+01 -0.10588962029E+02  0.14728500224E+02  0.41800000000E+01 0.  1.
</event>
<event>
11    1  0.8864208E-009  0.1376569E+03  0.7561462E-02  0.1110203E+00
         22   -1    0    0    0    0  0.00000000000E+00  0.00000000000E+00  0.61092240461E+03  0.61092240461E+03  0.00000000000E+00 0. -1.
         22   -1    0    0    0    0 -0.00000000000E+00 -0.00000000000E+00 -0.43092108354E+03  0.43092108354E+03  0.00000000000E+00 0.  1.
        -24    2    1    2    0    0 -0.34932065957E+02  0.10041316338E+02 -0.38064195659E+03  0.39075837015E+03  0.80515386480E+02 0.  0.
         25    2    1    2    0    0  0.62653596994E+02  0.39026565707E+02  0.91293304341E+02  0.17155908682E+03  0.12509798882E+03 0.  0.
         24    2    1    2    0    0 -0.27721531037E+02 -0.49067882046E+02  0.46934997331E+03  0.47952603118E+03  0.80496439681E+02 0.  0.
        -11    1    5    5    0    0  0.24275580745E+02 -0.12695840991E+02  0.70066021968E+02  0.75231214488E+02  0.00000000000E+00 0.  1.
         12    1    5    5    0    0 -0.51997111782E+02 -0.36372041055E+02  0.39928395134E+03  0.40429481669E+03  0.00000000000E+00 0. -1.
         11    1    3    3    0    0 -0.43666340378E+02  0.15401119328E+02 -0.10301804407E+03  0.11294539018E+03  0.00000000000E+00 0. -1.
        -12    1    3    3    0    0  0.87342744215E+01 -0.53598029897E+01 -0.27762391252E+03  0.27781297997E+03  0.00000000000E+00 0.  1.
          5    1    4    4  501    0 -0.17282883015E+02 -0.11873440075E+02  0.71538712951E+02  0.74665497220E+02  0.41800000000E+01 0.  1.
         -5    1    4    4    0  501  0.79936480009E+02  0.50900005782E+02  0.19754591390E+02  0.96893589602E+02  0.41800000000E+01 0.  1.
</event>
<event>
11    1  0.8864208E-009  0.1357190E+03  0.7561462E-02  0.1112435E+00
         22   -1    0    0    0    0  0.00000000000E+00  0.00000000000E+00  0.45308824690E+03  0.45308824690E+03  0.00000000000E+00 0. -1.
         22   -1    0    0    0    0 -0.00000000000E+00 -0.00000000000E+00 -0.20735680783E+03  0.20735680783E+03  0.00000000000E+00 0. -1.
         24    2    1    2    0    0 -0.43901602748E+02  0.28597635915E+02 -0.14833282815E+03  0.17666597984E+03  0.80393190146E+02 0.  0.
         25    2    1    2    0    0  0.56913181236E+02 -0.12325290842E+02  0.81821718870E+02  0.16041618196E+03  0.12509010657E+03 0.  0.
        -24    2    1    2    0    0 -0.13011578488E+02 -0.16272345073E+02  0.31224254834E+03  0.32336289294E+03  0.81449746142E+02 0.  0.
        -11    1    3    3    0    0  0.39312196073E+01  0.22811208550E+02 -0.27415493036E+01  0.23309264589E+02  0.00000000000E+00 0.  1.
         12    1    3    3    0    0 -0.47832822356E+02  0.57864273650E+01 -0.14559127884E+03  0.15335671525E+03  0.00000000000E+00 0. -1.
         11    1    5    5    0    0 -0.36646339146E+02  0.53085537201E+01  0.25589522276E+03  0.25856043771E+03  0.00000000000E+00 0. -1.
        -12    1    5    5    0    0  0.23634760658E+02 -0.21580898793E+02  0.56347325581E+02  0.64802455233E+02  0.00000000000E+00 0.  1.
          5    1    4    4  501    0  0.10558683073E+02  0.54262825967E+02  0.22540374938E+02  0.59845475790E+02  0.41800000000E+01 0. -1.
         -5    1    4    4    0  501  0.46354498163E+02 -0.66588116810E+02  0.59281343931E+02  0.10057070616E+03  0.41800000000E+01 0. -1.
</event>
<event>
11    1  0.8864208E-009  0.1407648E+03  0.7561462E-02  0.1106707E+00
         22   -1    0    0    0    0  0.00000000000E+00  0.00000000000E+00  0.66854016547E+03  0.66854016547E+03  0.00000000000E+00 0.  1.
         22   -1    0    0    0    0 -0.00000000000E+00 -0.00000000000E+00 -0.35369331209E+03  0.35369331209E+03  0.00000000000E+00 0. -1.
         24    2    1    2    0    0  0.65195457534E+02 -0.63213042764E+00 -0.31925399792E+03  0.33574059631E+03  0.80918388196E+02 0.  0.
         25    2    1    2    0    0 -0.46901760084E+02  0.36315544976E+02  0.19926967716E+03  0.24263752908E+03  0.12508386137E+03 0.  0.
        -24    2    1    2    0    0 -0.18293697450E+02 -0.35683414548E+02  0.43483117414E+03  0.44385535217E+03  0.79507598397E+02 0.  0.
        -13    1    3    3    0    0 -0.64321539017E+01  0.12004562793E+02 -0.73651959789E+01  0.15483159996E+02  0.00000000000E+00 0.  1.
         14    1    3    3    0    0  0.71627611436E+02 -0.12636693220E+02 -0.31188880194E+03  0.32025743631E+03  0.00000000000E+00 0. -1.
         11    1    5    5    0    0 -0.89235211893E+01  0.95988375621E+01  0.99238869325E+01  0.16439295752E+02  0.00000000000E+00 0. -1.
        -12    1    5    5    0    0 -0.93701762608E+01 -0.45282252110E+02  0.42490728721E+03  0.42741605642E+03  0.00000000000E+00 0.  1.
          5    1    4    4  501    0 -0.22593587120E+02  0.63414429832E+02  0.38330086702E+02  0.77579172698E+02  0.41800000000E+01 0. -1.
         -5    1    4    4    0  501 -0.24308172964E+02 -0.27098884856E+02  0.16093959046E+03  0.16505835638E+03  0.41800000000E+01 0. -1.
</event>
<event>
11    1  0.8864208E-009  0.1277090E+03  0.7561462E-02  0.1122116E+00
         22   -1    0    0    0    0  0.00000000000E+00  0.00000000000E+00  0.13146943167E+04  0.13146943167E+04  0.00000000000E+00 0. -1.
         22   -1    0    0    0    0 -0.00000000000E+00 -0.00000000000E+00 -0.17829734959E+04  0.17829734959E+04  0.00000000000E+00 0.  1.
         24    2    1    2    0    0  0.16010122773E+02 -0.20126852242E+02 -0.17612594798E+04  0.17632958258E+04  0.80720504428E+02 0.  0.
         25    2    1    2    0    0 -0.10236431911E+02  0.32638162853E+02  0.19977095309E+03  0.23817045278E+03  0.12508675656E+03 0.  0.
        -24    2    1    2    0    0 -0.57736908622E+01 -0.12511310611E+02  0.10932093475E+04  0.10962015340E+04  0.79757489713E+02 0.  0.
        -13    1    3    3    0    0 -0.63405825384E+00 -0.50228618299E+02 -0.10847433091E+04  0.10859057799E+04  0.00000000000E+00 0.  1.
         14    1    3    3    0    0  0.16644181027E+02  0.30101766057E+02 -0.67651617070E+03  0.67739004591E+03  0.00000000000E+00 0. -1.
         11    1    5    5    0    0 -0.34898848461E+02  0.17530528665E+02  0.54546888614E+03  0.54686520717E+03  0.00000000000E+00 0. -1.
        -12    1    5    5    0    0  0.29125157599E+02 -0.30041839276E+02  0.54774046137E+03  0.54933632679E+03  0.00000000000E+00 0.  1.
          5    1    4    4  501    0 -0.27797080376E+02  0.29023436212E+02  0.21216467056E+03  0.21597767793E+03  0.41800000000E+01 0. -1.
         -5    1    4    4    0  501  0.17560648465E+02  0.36147266404E+01 -0.12393717469E+02  0.22192774859E+02  0.41800000000E+01 0. -1.
</event>
<event>
11    1  0.8864208E-009  0.1583236E+03  0.7561462E-02  0.1088665E+00
         22   -1    0    0    0    0  0.00000000000E+00  0.00000000000E+00  0.14360100396E+04  0.14360100396E+04  0.00000000000E+00 0.  1.
         22   -1    0    0    0    0 -0.00000000000E+00 -0.00000000000E+00 -0.51616167238E+03  0.51616167238E+03  0.00000000000E+00 0.  1.
         24    2    1    2    0    0 -0.54124585398E+02  0.78693703128E+02 -0.45289863815E+03  0.46939841900E+03  0.78073873153E+02 0.  0.
         25    2    1    2    0    0  0.70336949931E+02 -0.10220387802E+03  0.91036856747E+02  0.19831324289E+03  0.12509002283E+03 0.  0.
        -24    2    1    2    0    0 -0.16212364532E+02  0.23510174888E+02  0.12817101486E+04  0.12844600501E+04  0.79000924537E+02 0.  0.
        -13    1    3    3    0    0 -0.17257744743E+02  0.81947595446E+02 -0.35482767153E+03  0.36457634953E+03  0.00000000000E+00 0.  1.
         14    1    3    3    0    0 -0.36866840655E+02 -0.32538923189E+01 -0.98070966617E+02  0.10482206947E+03  0.00000000000E+00 0. -1.
         13    1    5    5    0    0  0.14848540323E+02 -0.16869569266E+02  0.15739742156E+03  0.15899374148E+03  0.00000000000E+00 0. -1.
        -14    1    5    5    0    0 -0.31060904856E+02  0.40379744154E+02  0.11243127271E+04  0.11254663086E+04  0.00000000000E+00 0.  1.
          5    1    4    4  501    0  0.55050742767E+01 -0.88629317846E+02  0.41733491015E+01  0.88996354237E+02  0.41800000000E+01 0.  1.
         -5    1    4    4    0  501  0.64831875654E+02 -0.13574560169E+02  0.86863507646E+02  0.10931688865E+03  0.41800000000E+01 0.  1.
</event>
<event>
11    1  0.8864208E-009  0.1572347E+03  0.7561462E-02  0.1089707E+00
         22   -1    0    0    0    0  0.00000000000E+00  0.00000000000E+00  0.31156821413E+03  0.31156821413E+03  0.00000000000E+00 0. -1.
         22   -1    0    0    0    0 -0.00000000000E+00 -0.00000000000E+00 -0.14407547790E+04  0.14407547790E+04  0.00000000000E+00 0. -1.
        -24    2    1    2    0    0 -0.92208587482E+02  0.60550112071E+02 -0.12102475658E+04  0.12179428742E+04  0.80727532779E+02 0.  0.
         25    2    1    2    0    0  0.27988178997E+01 -0.30100133809E+02 -0.19389058683E+03  0.23271233823E+03  0.12509045234E+03 0.  0.
         24    2    1    2    0    0  0.89409769582E+02 -0.30449978262E+02  0.27495158782E+03  0.30166778066E+03  0.80521836610E+02 0.  0.
        -13    1    5    5    0    0 -0.51760032793E+01  0.39241396006E+01  0.97100056363E+02  0.97317063392E+02  0.00000000000E+00 0.  1.
         14    1    5    5    0    0  0.94585772861E+02 -0.34374117863E+02  0.17785153146E+03  0.20435071727E+03  0.00000000000E+00 0. -1.
         11    1    3    3    0    0 -0.70173099692E+02  0.16641975021E+02 -0.97261949168E+03  0.97528964665E+03  0.00000000000E+00 0. -1.
        -12    1    3    3    0    0 -0.22035487789E+02  0.43908137050E+02 -0.23762807415E+03  0.24265322756E+03  0.00000000000E+00 0.  1.
          5    1    4    4  501    0  0.26830332677E+01  0.49106876755E+02 -0.72559495549E+02  0.87755551428E+02  0.41800000000E+01 0.  1.
         -5    1    4    4    0  501  0.11578463205E+00 -0.79207010564E+02 -0.12133109128E+03  0.14495678680E+03  0.41800000000E+01 0.  1.
</event>
<event>
11    1  0.8864208E-009  0.3143075E+03  0.7561462E-02  0.9943114E-01
         22   -1    0    0    0    0  0.00000000000E+00  0.00000000000E+00  0.23187927451E+03  0.23187927451E+03  0.00000000000E+00 0.  1.
         22   -1    0    0    0    0 -0.00000000000E+00 -0.00000000000E+00 -0.94893156776E+03  0.94893156776E+03  0.00000000000E+00 0.  1.
        -24    2    1    2    0    0  0.13275440971E+03  0.13659971984E+03 -0.28164658543E+03  0.34898438740E+03  0.78626247590E+02 0.  0.
         25    2    1    2    0    0 -0.10664189922E+03  0.18829714815E+03 -0.42961350410E+03  0.49703492733E+03  0.12509054880E+03 0.  0.
         24    2    1    2    0    0 -0.26112510481E+02 -0.32489686799E+03 -0.57922037123E+01  0.33479152753E+03  0.76236338140E+02 0.  0.
        -13    1    5    5    0    0 -0.26790198531E+02 -0.32637584900E+03  0.13398650998E+01  0.32747626599E+03  0.00000000000E+00 0.  1.
         14    1    5    5    0    0  0.67768805007E+00  0.14789810124E+01 -0.71320688121E+01  0.73152615448E+01  0.00000000000E+00 0. -1.
         11    1    3    3    0    0  0.22820451161E+02 -0.24164248132E+01 -0.10942376399E+02  0.25423369197E+02  0.00000000000E+00 0. -1.
        -12    1    3    3    0    0  0.10993395854E+03  0.13901614465E+03 -0.27070420903E+03  0.32356101821E+03  0.00000000000E+00 0.  1.
          5    1    4    4  501    0 -0.11332507654E+03  0.81507990510E+02 -0.28184585779E+03  0.31454838331E+03  0.41800000000E+01 0.  1.
         -5    1    4    4    0  501  0.66831773188E+01  0.10678915764E+03 -0.14776764631E+03  0.18248654401E+03  0.41800000000E+01 0.  1.
</event>
<event>
11    1  0.8864208E-009  0.2019477E+03  0.7561462E-02  0.1053155E+00
         22   -1    0    0    0    0  0.00000000000E+00  0.00000000000E+00  0.69148095862E+03  0.69148095862E+03  0.00000000000E+00 0.  1.
         22   -1    0    0    0    0 -0.00000000000E+00 -0.00000000000E+00 -0.49428706014E+03  0.49428706014E+03  0.00000000000E+00 0. -1.
        -24    2    1    2    0    0  0.97143348069E+01  0.61200731372E+01 -0.39180038913E+03  0.40023974717E+03  0.80947431681E+02 0.  0.
         25    2    1    2    0    0  0.62062068831E+02 -0.14730267095E+03  0.37688846139E+02  0.20644355019E+03  0.12509481617E+03 0.  0.
         24    2    1    2    0    0 -0.71776403638E+02  0.14118259781E+03  0.55130544148E+03  0.57908472140E+03  0.79479851010E+02 0.  0.
        -11    1    5    5    0    0 -0.41598472593E+02  0.14100756042E+03  0.45975991395E+03  0.48269321882E+03  0.00000000000E+00 0.  1.
         12    1    5    5    0    0 -0.30177931045E+02  0.17503738796E+00  0.91545527526E+02  0.96391502583E+02  0.00000000000E+00 0. -1.
         11    1    3    3    0    0 -0.65897181424E+01  0.41799600279E+02 -0.18883339761E+03  0.19351662208E+03  0.00000000000E+00 0. -1.
        -12    1    3    3    0    0  0.16304052949E+02 -0.35679527142E+02 -0.20296699152E+03  0.20672312509E+03  0.00000000000E+00 0.  1.
          5    1    4    4  501    0 -0.61386009611E+01 -0.13196476730E+03  0.16032192542E+02  0.13314235174E+03  0.41800000000E+01 0.  1.
         -5    1    4    4    0  501  0.68200669792E+02 -0.15337903654E+02  0.21656653597E+02  0.73301198446E+02  0.41800000000E+01 0.  1.
</event>
<event>
11    1  0.8864208E-009  0.3528703E+03  0.7561462E-02  0.9800063E-01
         22   -1    0    0    0    0  0.00000000000E+00  0.00000000000E+00  0.99542786106E+03  0.99542786106E+03  0.00000000000E+00 0.  1.
         22   -1    0    0    0    0 -0.00000000000E+00 -0.00000000000E+00 -0.71306535162E+03  0.71306535162E+03  0.00000000000E+00 0. -1.
        -24    2    1    2    0    0 -0.17816065644E+03 -0.28074773547E+03 -0.42920878162E+03  0.54897622298E+03  0.81204708656E+02 0.  0.
         25    2    1    2    0    0  0.13291350420E+03  0.29824914192E+03 -0.82979576487E+02  0.35937338931E+03  0.12508026455E+03 0.  0.
         24    2    1    2    0    0  0.45247152242E+02 -0.17501406445E+02  0.79455086754E+03  0.80014360039E+03  0.81025280724E+02 0.  0.
        -13    1    5    5    0    0  0.67194601775E+02 -0.11115646437E+02  0.67498925796E+03  0.67841666435E+03  0.00000000000E+00 0.  1.
         14    1    5    5    0    0 -0.21947449533E+02 -0.63857600080E+01  0.11956160958E+03  0.12172693604E+03  0.00000000000E+00 0. -1.
         13    1    3    3    0    0 -0.16181213673E+03 -0.28267614064E+03 -0.41133952972E+03  0.52468007089E+03  0.00000000000E+00 0. -1.
        -14    1    3    3    0    0 -0.16348519706E+02  0.19284051671E+01 -0.17869251898E+02  0.24296152092E+02  0.00000000000E+00 0.  1.
          5    1    4    4  501    0  0.23953415702E+02  0.14400896260E+03  0.14584754520E+02  0.14677375411E+03  0.41800000000E+01 0. -1.
         -5    1    4    4    0  501  0.10896008849E+03  0.15424017932E+03 -0.97564331007E+02  0.21259963520E+03  0.41800000000E+01 0. -1.
</event>
<event>
11    1  0.8864208E-009  0.2519278E+03  0.7561462E-02  0.1022877E+00
         22   -1    0    0    0    0  0.00000000000E+00  0.00000000000E+00  0.96281770159E+03  0.96281770159E+03  0.00000000000E+00 0. -1.
         22   -1    0    0    0    0 -0.00000000000E+00 -0.00000000000E+00 -0.75820732543E+03  0.75820732543E+03  0.00000000000E+00 0. -1.
        -24    2    1    2    0    0  0.20069549362E+03  0.79032942352E+02 -0.65573068116E+03  0.69496696757E+03  0.80445463893E+02 0.  0.
         25    2    1    2    0    0 -0.23323496101E+03 -0.11199068710E+03  0.17991476583E+03  0.33905407989E+03  0.12509150686E+03 0.  0.
         24    2    1    2    0    0  0.32539467395E+02  0.32957744744E+02  0.68042629149E+03  0.68700397957E+03  0.82761705606E+02 0.  0.
        -13    1    5    5    0    0  0.29498778925E+02  0.49579460074E+02  0.26377934170E+03  0.27001452170E+03  0.00000000000E+00 0.  1.
         14    1    5    5    0    0  0.30406884698E+01 -0.16621715330E+02  0.41664694979E+03  0.41698945787E+03  0.00000000000E+00 0. -1.
         11    1    3    3    0    0  0.12443779172E+03  0.88630304024E+02 -0.41253346010E+03  0.43991357163E+03  0.00000000000E+00 0. -1.
        -12    1    3    3    0    0  0.76257701895E+02 -0.95973616722E+01 -0.24319722106E+03  0.25505339594E+03  0.00000000000E+00 0.  1.
          5    1    4    4  501    0 -0.31442308881E+02  0.19554577837E+02  0.58272345553E+02  0.69167470377E+02  0.41800000000E+01 0.  1.
         -5    1    4    4    0  501 -0.20179265213E+03 -0.13154526493E+03  0.12164242028E+03  0.26988660951E+03  0.41800000000E+01 0.  1.
</event>
<event>
11    1  0.8864208E-009  0.1402377E+03  0.7561462E-02  0.1107293E+00
         22   -1    0    0    0    0  0.00000000000E+00  0.00000000000E+00  0.28910200869E+03  0.28910200869E+03  0.00000000000E+00 0. -1.
         22   -1    0    0    0    0 -0.00000000000E+00 -0.00000000000E+00 -0.60588085688E+03  0.60588085688E+03  0.00000000000E+00 0.  1.
         24    2    1    2    0    0  0.35319325121E+01 -0.42542505763E+02 -0.48546530036E+03  0.49456156377E+03  0.84215456798E+02 0.  0.
         25    2    1    2    0    0  0.67425102137E+01 -0.24095300330E+02 -0.66137725761E+02  0.14369150533E+03  0.12508798901E+03 0.  0.
        -24    2    1    2    0    0 -0.10274442726E+02  0.66637806093E+02  0.23482417793E+03  0.25672979646E+03  0.78877325497E+02 0.  0.
        -11    1    3    3    0    0 -0.33265778904E+02 -0.39386304113E+02 -0.36317258807E+03  0.36681360624E+03  0.00000000000E+00 0.  1.
         12    1    3    3    0    0  0.36797711416E+02 -0.31562016506E+01 -0.12229271229E+03  0.12774795753E+03  0.00000000000E+00 0. -1.
         13    1    5    5    0    0  0.12148406826E+02 -0.83584371748E+01  0.97949144118E+02  0.99052925721E+02  0.00000000000E+00 0. -1.
        -14    1    5    5    0    0 -0.22422849551E+02  0.74996243268E+02  0.13687503381E+03  0.15767687074E+03  0.00000000000E+00 0.  1.
          5    1    4    4  501    0  0.42412174182E+02 -0.61906946856E+02 -0.43520534997E+02  0.86849133296E+02  0.41800000000E+01 0.  1.
         -5    1    4    4    0  501 -0.35669663968E+02  0.37811646527E+02 -0.22617190764E+02  0.56842372036E+02  0.41800000000E+01 0.  1.
</event>
<event>
11    1  0.8864208E-009  0.1367756E+03  0.7561462E-02  0.1111213E+00
         22   -1    0    0    0    0  0.00000000000E+00  0.00000000000E+00  0.24702909411E+04  0.24702909411E+04  0.00000000000E+00 0.  1.
         22   -1    0    0    0    0 -0.00000000000E+00 -0.00000000000E+00 -0.12165493173E+03  0.12165493173E+03  0.00000000000E+00 0. -1.
         24    2    1    2    0    0  0.48319125856E+02 -0.25612219989E+02 -0.91236158979E+02  0.13280244824E+03  0.79509306476E+02 0.  0.
         25    2    1    2    0    0 -0.50150070487E+02  0.74663870901E+02  0.69846117300E+03  0.71524526764E+03  0.12505222711E+03 0.  0.
        -24    2    1    2    0    0  0.18309446305E+01 -0.49051650912E+02  0.17414109954E+04  0.17438981570E+04  0.79114538978E+02 0.  0.
        -13    1    3    3    0    0  0.18076888283E+02 -0.24039987341E+02  0.62503410578E+01  0.30720703844E+02  0.00000000000E+00 0.  1.
         14    1    3    3    0    0  0.30242237574E+02 -0.15722326486E+01 -0.97486500037E+02  0.10208174439E+03  0.00000000000E+00 0. -1.
         13    1    5    5    0    0 -0.18869435528E+02  0.16040781948E+02  0.44283451444E+03  0.44352651495E+03  0.00000000000E+00 0. -1.
        -14    1    5    5    0    0  0.20700380158E+02 -0.65092432860E+02  0.12985764809E+04  0.13003716420E+04  0.00000000000E+00 0.  1.
          5    1    4    4  501    0  0.35991746659E+02  0.46192725096E+02  0.36256208993E+03  0.36728451524E+03  0.41800000000E+01 0. -1.
         -5    1    4    4    0  501 -0.86141817146E+02  0.28471145805E+02  0.33589908307E+03  0.34796075240E+03  0.41800000000E+01 0. -1.
</event>
<event>
11    1  0.8864208E-009  0.1709334E+03  0.7561462E-02  0.1077222E+00
         22   -1    0    0    0    0  0.00000000000E+00  0.00000000000E+00  0.10900027760E+04  0.10900027760E+04  0.00000000000E+00 0. -1.
         22   -1    0    0    0    0 -0.00000000000E+00 -0.00000000000E+00 -0.37361336653E+03  0.37361336653E+03  0.00000000000E+00 0.  1.
         24    2    1    2    0    0 -0.10549806133E+03  0.36953213427E+02 -0.27074412619E+03  0.30359671948E+03  0.79832357403E+02 0.  0.
         25    2    1    2    0    0  0.13322447213E+03 -0.69601075214E+02  0.29037638803E+02  0.19769663360E+03  0.12509078633E+03 0.  0.
        -24    2    1    2    0    0 -0.27726410802E+02  0.32647861787E+02  0.95809589689E+03  0.96232278949E+03  0.79263906007E+02 0.  0.
        -13    1    3    3    0    0 -0.95368355918E+02  0.52186110036E+02 -0.26129253011E+03  0.28300582977E+03  0.00000000000E+00 0.  1.
         14    1    3    3    0    0 -0.10129705410E+02 -0.15232896609E+02 -0.94515960765E+01  0.20590889713E+02  0.00000000000E+00 0. -1.
         13    1    5    5    0    0  0.66780683613E+01  0.49757610601E+02  0.62644432875E+03  0.62845279332E+03  0.00000000000E+00 0. -1.
        -14    1    5    5    0    0 -0.34404479163E+02 -0.17109748814E+02  0.33165156813E+03  0.33386999616E+03  0.00000000000E+00 0.  1.
          5    1    4    4  501    0  0.87654590498E+02 -0.85737859068E+01 -0.38127091716E+02  0.96062399319E+02  0.41800000000E+01 0.  1.
         -5    1    4    4    0  501  0.45569881632E+02 -0.61027289307E+02  0.67164730519E+02  0.10163423428E+03  0.41800000000E+01 0.  1.
</event>
<event>
11    1  0.8864208E-009  0.1963490E+03  0.7561462E-02  0.1057136E+00
         22   -1    0    0    0    0  0.00000000000E+00  0.00000000000E+00  0.12040003197E+03  0.12040003197E+03  0.00000000000E+00 0.  1.
         22   -1    0    0    0    0 -0.00000000000E+00 -0.00000000000E+00 -0.12729542597E+04  0.12729542597E+04  0.00000000000E+00 0. -1.
        -24    2    1    2    0    0 -0.59084026614E+02 -0.46560839596E+01 -0.37388633922E+03  0.38276364097E+03  0.56607498377E+02 0.  0.
         25    2    1    2    0    0  0.13969052243E+03  0.12930083511E+03 -0.80780191018E+03  0.83929977876E+03  0.12509214412E+03 0.  0.
         24    2    1    2    0    0 -0.80606495812E+02 -0.12464475115E+03  0.29134021658E+02  0.17129087195E+03  0.80361996225E+02 0.  0.
        -13    1    5    5    0    0 -0.73898301918E+02 -0.13322952022E+03  0.38255949316E+02  0.15708144939E+03  0.00000000000E+00 0.  1.
         14    1    5    5    0    0 -0.67081938943E+01  0.85847690660E+01 -0.91219276581E+01  0.14209422558E+02  0.00000000000E+00 0. -1.
         13    1    3    3    0    0 -0.52899940939E+02  0.16016098838E+02 -0.19837642977E+03  0.20593233612E+03  0.00000000000E+00 0. -1.
        -14    1    3    3    0    0 -0.61840856746E+01 -0.20672182798E+02 -0.17550990946E+03  0.17683130485E+03  0.00000000000E+00 0.  1.
          5    1    4    4  501    0  0.16080508049E+02  0.79785752786E+02 -0.18107975015E+03  0.19857416096E+03  0.41800000000E+01 0. -1.
         -5    1    4    4    0  501  0.12361001438E+03  0.49515082324E+02 -0.62672216003E+03  0.64072561780E+03  0.41800000000E+01 0. -1.
</event>
<event>
11    1  0.8864208E-009  0.1468341E+03  0.7561462E-02  0.1100158E+00
         22   -1    0    0    0    0  0.00000000000E+00  0.00000000000E+00  0.79255367620E+03  0.79255367620E+03  0.00000000000E+00 0. -1.
         22   -1    0    0    0    0 -0.00000000000E+00 -0.00000000000E+00 -0.25622152788E+03  0.25622152788E+03  0.00000000000E+00 0. -1.
        -24    2    1    2    0    0  0.12450536772E+01  0.59290323493E+02 -0.20557827263E+03  0.22860731543E+03  0.80510781088E+02 0.  0.
         25    2    1    2    0    0 -0.20169614926E+02 -0.12590567015E+03  0.20114020304E+03  0.26900487788E+03  0.12508873609E+03 0.  0.
         24    2    1    2    0    0  0.18924561248E+02  0.66615346660E+02  0.54077021791E+03  0.55116301077E+03  0.80947467137E+02 0.  0.
        -11    1    5    5    0    0 -0.16378570200E+01  0.41206605734E+00 -0.27567924785E+01  0.32329984261E+01  0.00000000000E+00 0.  1.
         12    1    5    5    0    0  0.20562418268E+02  0.66203280603E+02  0.54352701038E+03  0.54793001234E+03  0.00000000000E+00 0. -1.
         11    1    3    3    0    0  0.25874934527E+02  0.15602785776E+02 -0.19671338661E+02  0.36054413398E+02  0.00000000000E+00 0. -1.
        -12    1    3    3    0    0 -0.24629880850E+02  0.43687537716E+02 -0.18590693397E+03  0.19255290203E+03  0.00000000000E+00 0.  1.
          5    1    4    4  501    0  0.12294954594E+02 -0.10683362245E+03  0.20437982225E+03  0.23098305769E+03  0.41800000000E+01 0.  1.
         -5    1    4    4    0  501 -0.32464569520E+02 -0.19072047704E+02 -0.32396192102E+01  0.38021820187E+02  0.41800000000E+01 0.  1.
</event>
<event>
11    1  0.8864208E-009  0.2141373E+03  0.7561462E-02  0.1044953E+00
         22   -1    0    0    0    0  0.00000000000E+00  0.00000000000E+00  0.17081707941E+04  0.17081707941E+04  0.00000000000E+00 0. -1.
         22   -1    0    0    0    0 -0.00000000000E+00 -0.00000000000E+00 -0.12799670015E+04  0.12799670015E+04  0.00000000000E+00 0.  1.
        -24    2    1    2    0    0  0.10834003131E+03  0.13463399486E+03 -0.12290721761E+04  0.12438501473E+04  0.81736772214E+02 0.  0.
         25    2    1    2    0    0 -0.25025647897E+03 -0.13336998968E+03  0.61405409238E+03  0.68784107440E+03  0.12508819227E+03 0.  0.
         24    2    1    2    0    0  0.14191644766E+03 -0.12640051771E+01  0.10432218763E+04  0.10564465739E+04  0.87324707441E+02 0.  0.
        -13    1    5    5    0    0  0.33972156471E+02  0.38556654254E+02  0.29907290212E+03  0.30345563726E+03  0.00000000000E+00 0.  1.
         14    1    5    5    0    0  0.10794429119E+03 -0.39820659431E+02  0.74414897415E+03  0.75299093663E+03  0.00000000000E+00 0. -1.
         11    1    3    3    0    0  0.78427260833E+01 -0.82557469957E+00 -0.81806979771E+01  0.11362822950E+02  0.00000000000E+00 0. -1.
        -12    1    3    3    0    0  0.10049730523E+03  0.13545956956E+03 -0.12208914781E+04  0.12324873244E+04  0.00000000000E+00 0.  1.
          5    1    4    4  501    0 -0.98584140409E+02 -0.12191155075E+03  0.33838587695E+03  0.37296612857E+03  0.41800000000E+01 0.  1.
         -5    1    4    4    0  501 -0.15167233856E+03 -0.11458438935E+02  0.27566821544E+03  0.31487494583E+03  0.41800000000E+01 0.  1.
</event>
<event>
11    1  0.8864208E-009  0.1346993E+03  0.7561462E-02  0.1113626E+00
         22   -1    0    0    0    0  0.00000000000E+00  0.00000000000E+00  0.20350112302E+04  0.20350112302E+04  0.00000000000E+00 0. -1.
         22   -1    0    0    0    0 -0.00000000000E+00 -0.00000000000E+00 -0.43178567533E+03  0.43178567533E+03  0.00000000000E+00 0.  1.
        -24    2    1    2    0    0  0.43469668852E+01  0.49723794867E+02 -0.40977581572E+03  0.42052082038E+03  0.80188461293E+02 0.  0.
         25    2    1    2    0    0 -0.30459368182E+02 -0.50014633464E+02  0.28425958814E+03  0.31603891576E+03  0.12509135124E+03 0.  0.
         24    2    1    2    0    0  0.26112401296E+02  0.29083859665E+00  0.17287417825E+04  0.17302371694E+04  0.67011714455E+02 0.  0.
        -11    1    5    5    0    0 -0.58543484029E+01 -0.67074695526E+01  0.33005846669E+02  0.34185515315E+02  0.00000000000E+00 0.  1.
         12    1    5    5    0    0  0.31966749699E+02  0.69983081493E+01  0.16957359358E+04  0.16960516541E+04  0.00000000000E+00 0. -1.
         11    1    3    3    0    0 -0.12286471862E+02 -0.94864630710E+01 -0.17249383600E+02  0.23205421931E+02  0.00000000000E+00 0. -1.
        -12    1    3    3    0    0  0.16633438747E+02  0.59210257938E+02 -0.39252643212E+03  0.39731539845E+03  0.00000000000E+00 0.  1.
          5    1    4    4  501    0 -0.44772410653E+02 -0.81788342486E+02  0.25056807676E+03  0.26738686433E+03  0.41800000000E+01 0.  1.
         -5    1    4    4    0  501  0.14313042472E+02  0.31773709022E+02  0.33691511382E+02  0.48652051437E+02  0.41800000000E+01 0.  1.
</event>
<event>
11    1  0.8864208E-009  0.3356154E+03  0.7561462E-02  0.9861516E-01
         22   -1    0    0    0    0  0.00000000000E+00  0.00000000000E+00  0.35977272316E+04  0.35977272316E+04  0.00000000000E+00 0. -1.
         22   -1    0    0    0    0 -0.00000000000E+00 -0.00000000000E+00 -0.36923262473E+03  0.36923262473E+03  0.00000000000E+00 0. -1.
        -24    2    1    2    0    0  0.30579392157E+03 -0.13568184307E+02 -0.23940378786E+03  0.39704357790E+03  0.81458032178E+02 0.  0.
         25    2    1    2    0    0 -0.35983028662E+03  0.23781259398E+02  0.67584778516E+03  0.77618598020E+03  0.12510421133E+03 0.  0.
         24    2    1    2    0    0  0.54036365044E+02 -0.10213075090E+02  0.27920506096E+04  0.27937302982E+04  0.79737928065E+02 0.  0.
        -11    1    5    5    0    0 -0.10092132585E+02  0.50897083504E+00  0.15086022571E+04  0.15086360993E+04  0.00000000000E+00 0.  1.
         12    1    5    5    0    0  0.64128497629E+02 -0.10722045925E+02  0.12834483525E+04  0.12850941989E+04  0.00000000000E+00 0. -1.
         13    1    3    3    0    0  0.64589596792E+02  0.30457000169E+02 -0.59143949470E+02  0.92722444057E+02  0.00000000000E+00 0. -1.
        -14    1    3    3    0    0  0.24120432478E+03 -0.44025184477E+02 -0.18025983839E+03  0.30432113384E+03  0.00000000000E+00 0.  1.
          5    1    4    4  501    0 -0.26570798792E+03 -0.37343928053E+02  0.50183489577E+03  0.56907911473E+03  0.41800000000E+01 0.  1.
         -5    1    4    4    0  501 -0.94122298701E+02  0.61125187450E+02  0.17401288938E+03  0.20710686547E+03  0.41800000000E+01 0.  1.
</event>
<event>
11    1  0.8864208E-009  0.1380777E+03  0.7561462E-02  0.1109724E+00
         22   -1    0    0    0    0  0.00000000000E+00  0.00000000000E+00  0.15468180496E+04  0.15468180496E+04  0.00000000000E+00 0. -1.
         22   -1    0    0    0    0 -0.00000000000E+00 -0.00000000000E+00 -0.55420641679E+03  0.55420641679E+03  0.00000000000E+00 0. -1.
         24    2    1    2    0    0  0.48759462956E+02 -0.35179557883E+02 -0.51878359137E+03  0.52938846088E+03  0.86606242927E+02 0.  0.
         25    2    1    2    0    0 -0.20269063196E+01 -0.83687740324E+01  0.11607249046E+03  0.17085823961E+03  0.12508225403E+03 0.  0.
        -24    2    1    2    0    0 -0.46732556636E+02  0.43548331916E+02  0.13953227338E+04  0.14007777659E+04  0.10569971212E+03 0.  0.
        -13    1    3    3    0    0  0.49976327696E+02  0.15604509417E+02 -0.31784436184E+03  0.32212757162E+03  0.00000000000E+00 0.  1.
         14    1    3    3    0    0 -0.12168647405E+01 -0.50784067301E+02 -0.20093922953E+03  0.20726088925E+03  0.00000000000E+00 0. -1.
         11    1    5    5    0    0 -0.64641591021E+01  0.50276310150E+02  0.12077526525E+04  0.12088159340E+04  0.00000000000E+00 0. -1.
        -12    1    5    5    0    0 -0.40268397534E+02 -0.67279782343E+01  0.18757008126E+03  0.19196183192E+03  0.00000000000E+00 0.  1.
          5    1    4    4  501    0 -0.47551219207E+02  0.17502602026E+02  0.90524540490E+01  0.51641832365E+02  0.41800000000E+01 0. -1.
         -5    1    4    4    0  501  0.45524312887E+02 -0.25871376059E+02  0.10702003641E+03  0.11921640724E+03  0.41800000000E+01 0. -1.
</event>
<event>
11    1  0.8864208E-009  0.1417479E+03  0.7561462E-02  0.1105622E+00
         22   -1    0    0    0    0  0.00000000000E+00  0.00000000000E+00  0.39323590197E+03  0.39323590197E+03  0.00000000000E+00 0.  1.
         22   -1    0    0    0    0 -0.00000000000E+00 -0.00000000000E+00 -0.68832557350E+03  0.68832557350E+03  0.00000000000E+00 0. -1.
        -24    2    1    2    0    0  0.54758343004E+02  0.10098758296E+02 -0.50807524532E+03  0.51752159576E+03  0.81164562025E+02 0.  0.
         25    2    1    2    0    0 -0.85012240170E+02 -0.67798007333E+02 -0.12702246162E+03  0.20882158466E+03  0.12509235663E+03 0.  0.
         24    2    1    2    0    0  0.30253897166E+02  0.57699249037E+02  0.34000803541E+03  0.35521829504E+03  0.79561745567E+02 0.  0.
        -13    1    5    5    0    0  0.54641766742E+02  0.56009350858E+02  0.25098363492E+03  0.26289837401E+03  0.00000000000E+00 0.  1.
         14    1    5    5    0    0 -0.24387869576E+02  0.16898981795E+01  0.89024400488E+02  0.92319921039E+02  0.00000000000E+00 0. -1.
         11    1    3    3    0    0  0.56159837879E+02  0.26096175399E+02 -0.48751879786E+03  0.49143617697E+03  0.00000000000E+00 0. -1.
        -12    1    3    3    0    0 -0.14014948753E+01 -0.15997417103E+02 -0.20556447455E+02  0.26085418797E+02  0.00000000000E+00 0.  1.
          5    1    4    4  501    0 -0.86921234059E+02  0.31427554929E+01 -0.38292970946E+02  0.95126241733E+02  0.41800000000E+01 0. -1.
         -5    1    4    4    0  501  0.19089938891E+01 -0.70940762826E+02 -0.88729490675E+02  0.11369534293E+03  0.41800000000E+01 0. -1.
</event>
<event>
11    1  0.8864208E-009  0.1476364E+03  0.7561462E-02  0.1099319E+00
         22   -1    0    0    0    0  0.00000000000E+00  0.00000000000E+00  0.13805310511E+04  0.13805310511E+04  0.00000000000E+00 0. -1.
         22   -1    0    0    0    0 -0.00000000000E+00 -0.00000000000E+00 -0.27067247673E+03  0.27067247673E+03  0.00000000000E+00 0.  1.
        -24    2    1    2    0    0 -0.76124841071E+02 -0.11978683547E+02 -0.20686055497E+03  0.23450708317E+03  0.79144188442E+02 0.  0.
         25    2    1    2    0    0  0.99700996070E+02 -0.50326842823E+02  0.99379604600E+02  0.19492211556E+03  0.12508095618E+03 0.  0.
         24    2    1    2    0    0 -0.23576154999E+02  0.62305526370E+02  0.12173395248E+04  0.12217743291E+04  0.79869763081E+02 0.  0.
        -11    1    5    5    0    0 -0.35255945698E+02  0.17978861854E+02  0.23065265702E+03  0.23402322400E+03  0.00000000000E+00 0.  1.
         12    1    5    5    0    0  0.11679790700E+02  0.44326664515E+02  0.98668686774E+03  0.98775110512E+03  0.00000000000E+00 0. -1.
         11    1    3    3    0    0 -0.25755299927E+02  0.11986756184E+02 -0.10352553357E+02  0.30235627315E+02  0.00000000000E+00 0. -1.
        -12    1    3    3    0    0 -0.50369541145E+02 -0.23965439731E+02 -0.19650800161E+03  0.20427145585E+03  0.00000000000E+00 0.  1.
          5    1    4    4  501    0  0.43883720303E+02 -0.32391595704E+02 -0.22858341526E+02  0.59287203992E+02  0.41800000000E+01 0. -1.
         -5    1    4    4    0  501  0.55817275767E+02 -0.17935247118E+02  0.12223794613E+03  0.13563491157E+03  0.41800000000E+01 0. -1.
</event>
<event>
11    1  0.8864208E-009  0.1477632E+03  0.7561462E-02  0.1099186E+00
         22   -1    0    0    0    0  0.00000000000E+00  0.00000000000E+00  0.54997573445E+03  0.54997573445E+03  0.00000000000E+00 0.  1.
         22   -1    0    0    0    0 -0.00000000000E+00 -0.00000000000E+00 -0.33414377230E+03  0.33414377230E+03  0.00000000000E+00 0. -1.
         24    2    1    2    0    0  0.25528959007E+02  0.74975726322E+02 -0.29588859055E+03  0.31746821554E+03  0.83444128445E+02 0.  0.
         25    2    1    2    0    0  0.40992918110E+01 -0.71102016573E+02  0.22156404903E+03  0.26421816974E+03  0.12509321500E+03 0.  0.
        -24    2    1    2    0    0 -0.29628250818E+02 -0.38737097487E+01  0.29015650367E+03  0.30243312148E+03  0.79888406343E+02 0.  0.
        -13    1    3    3    0    0  0.48431437324E+02  0.61619636632E+02 -0.15052543948E+03  0.16970707607E+03  0.00000000000E+00 0.  1.
         14    1    3    3    0    0 -0.22902478317E+02  0.13356089690E+02 -0.14536315108E+03  0.14776113947E+03  0.00000000000E+00 0. -1.
         13    1    5    5    0    0 -0.48120858495E+01 -0.24057320457E+02  0.23862225789E+02  0.34224503757E+02  0.00000000000E+00 0. -1.
        -14    1    5    5    0    0 -0.24816164969E+02  0.20183610708E+02  0.26629427789E+03  0.26820861772E+03  0.00000000000E+00 0.  1.
          5    1    4    4  501    0  0.15508666029E+02  0.19556813530E+01  0.17709363547E+03  0.17783130077E+03  0.41800000000E+01 0. -1.
         -5    1    4    4    0  501 -0.11409374218E+02 -0.73057697926E+02  0.44470413564E+02  0.86386868961E+02  0.41800000000E+01 0. -1.
</event>
<event>
11    1  0.8864208E-009  0.1359187E+03  0.7561462E-02  0.1112203E+00
         22   -1    0    0    0    0  0.00000000000E+00  0.00000000000E+00  0.25728136222E+03  0.25728136222E+03  0.00000000000E+00 0.  1.
         22   -1    0    0    0    0 -0.00000000000E+00 -0.00000000000E+00 -0.20225649943E+03  0.20225649943E+03  0.00000000000E+00 0.  1.
        -24    2    1    2    0    0 -0.29871960091E+01  0.50051007144E+02 -0.10601366890E+03  0.14190557988E+03  0.79901620450E+02 0.  0.
         25    2    1    2    0    0  0.43522198143E+01 -0.65211316744E+02  0.39675544600E+01  0.14119314641E+03  0.12509318709E+03 0.  0.
         24    2    1    2    0    0 -0.13650238053E+01  0.15160309600E+02  0.15707097724E+03  0.17643913536E+03  0.78916274105E+02 0.  0.
        -13    1    5    5    0    0  0.11484538198E+02  0.43617439592E+02  0.11862987102E+03  0.12691501863E+03  0.00000000000E+00 0.  1.
         14    1    5    5    0    0 -0.12849562003E+02 -0.28457129992E+02  0.38441106215E+02  0.49524116732E+02  0.00000000000E+00 0. -1.
         11    1    3    3    0    0  0.22771613404E+02  0.45142814840E+01 -0.80342802841E+02  0.83629486921E+02  0.00000000000E+00 0. -1.
        -12    1    3    3    0    0 -0.25758809413E+02  0.45536725660E+02 -0.25670866064E+02  0.58276092960E+02  0.00000000000E+00 0.  1.
          5    1    4    4  501    0  0.13878457553E+02 -0.66585662086E+02 -0.51073940134E+02  0.85160329616E+02  0.41800000000E+01 0.  1.
         -5    1    4    4    0  501 -0.95262377385E+01  0.13743453427E+01  0.55041494594E+02  0.56032816792E+02  0.41800000000E+01 0.  1.
</event>
<event>
11    1  0.8864208E-009  0.1632669E+03  0.7561462E-02  0.1084044E+00
         22   -1    0    0    0    0  0.00000000000E+00  0.00000000000E+00  0.40206735369E+03  0.40206735369E+03  0.00000000000E+00 0. -1.
         22   -1    0    0    0    0 -0.00000000000E+00 -0.00000000000E+00 -0.20329382238E+04  0.20329382238E+04  0.00000000000E+00 0.  1.
        -24    2    1    2    0    0  0.87763399442E+02  0.58668883013E+02 -0.18687797727E+04  0.18734222462E+04  0.78921614999E+02 0.  0.
         25    2    1    2    0    0 -0.78087839915E+02 -0.52572760601E+02 -0.11814333105E+03  0.19612826078E+03  0.12508733791E+03 0.  0.
         24    2    1    2    0    0 -0.96755595264E+01 -0.60961224115E+01  0.35605223367E+03  0.36545507057E+03  0.81568598982E+02 0.  0.
        -11    1    5    5    0    0 -0.17898583921E+01 -0.17675276927E+02  0.12750598244E+02  0.21867710513E+02  0.00000000000E+00 0.  1.
         12    1    5    5    0    0 -0.78857011343E+01  0.11579154515E+02  0.34330163543E+03  0.34358736005E+03  0.00000000000E+00 0. -1.
         13    1    3    3    0    0  0.26883390589E+02 -0.15427541237E+02 -0.27093274468E+03  0.27269997773E+03  0.00000000000E+00 0. -1.
        -14    1    3    3    0    0  0.60880008853E+02  0.74096424250E+02 -0.15978470281E+04  0.16007222684E+04  0.00000000000E+00 0.  1.
          5    1    4    4  501    0 -0.61233778581E+02 -0.14917170857E+02  0.76985791110E+01  0.63630481265E+02  0.41800000000E+01 0.  1.
         -5    1    4    4    0  501 -0.16854061334E+02 -0.37655589745E+02 -0.12584191017E+03  0.13249777952E+03  0.41800000000E+01 0.  1.
</event>
<event>
11    1  0.8864208E-009  0.1340691E+03  0.7561462E-02  0.1114368E+00
         22   -1    0    0    0    0  0.00000000000E+00  0.00000000000E+00  0.59065952772E+03  0.59065952772E+03  0.00000000000E+00 0. -1.
         22   -1    0    0    0    0 -0.00000000000E+00 -0.00000000000E+00 -0.44248204944E+03  0.44248204944E+03  0.00000000000E+00 0.  1.
         24    2    1    2    0    0  0.50416001142E+02  0.69910358856E+01 -0.36866541575E+03  0.38076420877E+03  0.80476991442E+02 0.  0.
         25    2    1    2    0    0 -0.22097916866E+02  0.13508823259E+02 -0.42808261075E+00  0.12774326352E+03  0.12508937559E+03 0.  0.
        -24    2    1    2    0    0 -0.28318084276E+02 -0.20499859144E+02  0.51727097664E+03  0.52463410487E+03  0.80308919787E+02 0.  0.
        -13    1    3    3    0    0  0.37644028477E+02  0.36661258136E+02 -0.30368708411E+03  0.30819955513E+03  0.00000000000E+00 0.  1.
         14    1    3    3    0    0  0.12771972665E+02 -0.29670222250E+02 -0.64978331647E+02  0.72564653639E+02  0.00000000000E+00 0. -1.
         13    1    5    5    0    0 -0.46167929747E+02 -0.16673513870E+02  0.48563046674E+03  0.48810494162E+03  0.00000000000E+00 0. -1.
        -14    1    5    5    0    0  0.17849845471E+02 -0.38263452742E+01  0.31640509899E+02  0.36529163256E+02  0.00000000000E+00 0.  1.
          5    1    4    4  501    0  0.43817918877E+01 -0.52126486530E+02 -0.16568349083E+02  0.55030476006E+02  0.41800000000E+01 0. -1.
         -5    1    4    4    0  501 -0.26479708754E+02  0.65635309789E+02  0.16140266472E+02  0.72712787518E+02  0.41800000000E+01 0. -1.
</event>
<event>
11    1  0.8864208E-009  0.1299713E+03  0.7561462E-02  0.1119304E+00
         22   -1    0    0    0    0  0.00000000000E+00  0.00000000000E+00  0.65932637778E+03  0.65932637778E+03  0.00000000000E+00 0. -1.
         22   -1    0    0    0    0 -0.00000000000E+00 -0.00000000000E+00 -0.56737050460E+03  0.56737050460E+03  0.00000000000E+00 0. -1.
         24    2    1    2    0    0  0.34450684937E+02 -0.30469771980E+01 -0.51191503980E+03  0.51971147091E+03  0.82745823231E+02 0.  0.
         25    2    1    2    0    0 -0.54231397260E+02 -0.18567115624E+02  0.49778338353E+02  0.14632754891E+03  0.12509231139E+03 0.  0.
        -24    2    1    2    0    0  0.19780712322E+02  0.21614092822E+02  0.55409257463E+03  0.56065786256E+03  0.80375444036E+02 0.  0.
        -13    1    3    3    0    0 -0.19005301464E+02  0.12911473264E+02 -0.58064798149E+02  0.62445403431E+02  0.00000000000E+00 0.  1.
         14    1    3    3    0    0  0.53455986402E+02 -0.15958450462E+02 -0.45385024165E+03  0.45726606748E+03  0.00000000000E+00 0. -1.
         11    1    5    5    0    0 -0.39745218812E+00  0.16259866066E+02  0.52272681098E+03  0.52297978941E+03  0.00000000000E+00 0. -1.
        -12    1    5    5    0    0  0.20178164511E+02  0.53542267554E+01  0.31365763647E+02  0.37678073151E+02  0.00000000000E+00 0.  1.
          5    1    4    4  501    0 -0.60509728999E+00  0.41257200354E+01 -0.39345033791E+02  0.39785572668E+02  0.41800000000E+01 0. -1.
         -5    1    4    4    0  501 -0.53626299970E+02 -0.22692835659E+02  0.89123372144E+02  0.10654197624E+03  0.41800000000E+01 0. -1.
</event>
<event>
11    1  0.8864208E-009  0.1736128E+03  0.7561462E-02  0.1074930E+00
         22   -1    0    0    0    0  0.00000000000E+00  0.00000000000E+00  0.47303935046E+02  0.47303935046E+02  0.00000000000E+00 0.  1.
         22   -1    0    0    0    0 -0.00000000000E+00 -0.00000000000E+00 -0.33671204708E+04  0.33671204708E+04  0.00000000000E+00 0. -1.
         24    2    1    2    0    0  0.42068124435E+02  0.13135755220E+02 -0.21441786093E+04  0.21461514016E+04  0.80756764996E+02 0.  0.
         25    2    1    2    0    0  0.70680114294E+01 -0.12354983991E+03 -0.10809656247E+04  0.10951934967E+04  0.12509034295E+03 0.  0.
        -24    2    1    2    0    0 -0.49136135864E+02  0.11041408469E+03 -0.94672301815E+02  0.17307950746E+03  0.79925222710E+02 0.  0.
        -11    1    3    3    0    0  0.31528169849E+02 -0.31395528048E+02 -0.84965884942E+03  0.85082305157E+03  0.00000000000E+00 0.  1.
         12    1    3    3    0    0  0.10539954586E+02  0.44531283268E+02 -0.12945197598E+04  0.12953283501E+04  0.00000000000E+00 0. -1.
         11    1    5    5    0    0  0.13818958881E+01 -0.56562751868E+01 -0.30696834175E+02  0.31244178876E+02  0.00000000000E+00 0. -1.
        -12    1    5    5    0    0 -0.50518031752E+02  0.11607035988E+03 -0.63975467640E+02  0.14183532858E+03  0.00000000000E+00 0.  1.
          5    1    4    4  501    0  0.31642928083E+02 -0.12194277788E+03 -0.10369535289E+04  0.10445867170E+04  0.41800000000E+01 0. -1.
         -5    1    4    4    0  501 -0.24574916653E+02 -0.16070620298E+01 -0.44012095779E+02  0.50606779702E+02  0.41800000000E+01 0. -1.
</event>
<event>
11    1  0.8864208E-009  0.1488525E+03  0.7561462E-02  0.1098057E+00
         22   -1    0    0    0    0  0.00000000000E+00  0.00000000000E+00  0.22031172077E+04  0.22031172077E+04  0.00000000000E+00 0. -1.
         22   -1    0    0    0    0 -0.00000000000E+00 -0.00000000000E+00 -0.61826939291E+02  0.61826939291E+02  0.00000000000E+00 0. -1.
        -24    2    1    2    0    0  0.59717065446E+02 -0.46924162947E+02  0.37074374183E+02  0.11661838208E+03  0.80357531343E+02 0.  0.
         25    2    1    2    0    0 -0.10699549750E+03  0.23295224260E+02  0.31149353253E+03  0.35307981141E+03  0.12508568449E+03 0.  0.
         24    2    1    2    0    0  0.47278432055E+02  0.23628938687E+02  0.17927223617E+04  0.17952459535E+04  0.79126421215E+02 0.  0.
        -11    1    5    5    0    0 -0.71077941229E+01 -0.53828207229E+01  0.26722785953E+02  0.28170956415E+02  0.00000000000E+00 0.  1.
         12    1    5    5    0    0  0.54386226178E+02  0.29011759410E+02  0.17659995758E+04  0.17670749971E+04  0.00000000000E+00 0. -1.
         13    1    3    3    0    0  0.79480017937E+02 -0.42352045714E+02  0.27336962527E+02  0.94117365813E+02  0.00000000000E+00 0. -1.
        -14    1    3    3    0    0 -0.19762952491E+02 -0.45721172339E+01  0.97374116554E+01  0.22501016264E+02  0.00000000000E+00 0.  1.
          5    1    4    4  501    0 -0.20010660608E+02 -0.40013582334E+02  0.16666709270E+03  0.17261780180E+03  0.41800000000E+01 0. -1.
         -5    1    4    4    0  501 -0.86984836893E+02  0.63308806594E+02  0.14482643983E+03  0.18046200962E+03  0.41800000000E+01 0. -1.
</event>
<event>
11    1  0.8864208E-009  0.5031320E+03  0.7561462E-02  0.9386550E-01
         22   -1    0    0    0    0  0.00000000000E+00  0.00000000000E+00  0.18973718834E+04  0.18973718834E+04  0.00000000000E+00 0. -1.
         22   -1    0    0    0    0 -0.00000000000E+00 -0.00000000000E+00 -0.31566078784E+03  0.31566078784E+03  0.00000000000E+00 0. -1.
        -24    2    1    2    0    0  0.73860799537E+02 -0.13275628076E+03 -0.99168249472E+02  0.19875230257E+03  0.81169503427E+02 0.  0.
         25    2    1    2    0    0  0.41409377974E+03 -0.44860664943E+02  0.27781209811E+03  0.51605539127E+03  0.12508983703E+03 0.  0.
         24    2    1    2    0    0 -0.48795457928E+03  0.17761694570E+03  0.14030672469E+04  0.14982249774E+04  0.80205565040E+02 0.  0.
        -13    1    5    5    0    0 -0.96459982207E+01  0.46348209584E+01  0.80806923190E+02  0.81512487892E+02  0.00000000000E+00 0.  1.
         14    1    5    5    0    0 -0.47830858106E+03  0.17298212474E+03  0.13222603237E+04  0.14167124895E+04  0.00000000000E+00 0. -1.
         13    1    3    3    0    0  0.63931391222E+02 -0.55984665594E+02 -0.18539798091E+02  0.86978328786E+02  0.00000000000E+00 0. -1.
        -14    1    3    3    0    0  0.99294083150E+01 -0.76771615164E+02 -0.80628451381E+02  0.11177397379E+03  0.00000000000E+00 0.  1.
          5    1    4    4  501    0  0.35432326944E+03 -0.58922901731E+02  0.27846470337E+03  0.45450737182E+03  0.41800000000E+01 0. -1.
         -5    1    4    4    0  501  0.59770510303E+02  0.14062236787E+02 -0.65260526367E+00  0.61548019456E+02  0.41800000000E+01 0. -1.
</event>
<event>
11    1  0.8864208E-009  0.1430879E+03  0.7561462E-02  0.1104158E+00
         22   -1    0    0    0    0  0.00000000000E+00  0.00000000000E+00  0.12628644369E+04  0.12628644369E+04  0.00000000000E+00 0. -1.
         22   -1    0    0    0    0 -0.00000000000E+00 -0.00000000000E+00 -0.15991475815E+04  0.15991475815E+04  0.00000000000E+00 0. -1.
         24    2    1    2    0    0 -0.63748668551E+02  0.22227361224E+02 -0.13744643464E+04  0.13784950949E+04  0.80861230468E+02 0.  0.
         25    2    1    2    0    0  0.79440808670E+02 -0.71323754127E+02 -0.19021867053E+03  0.25145332510E+03  0.12509081541E+03 0.  0.
        -24    2    1    2    0    0 -0.15692140120E+02  0.49096392903E+02  0.12283998724E+04  0.12320635985E+04  0.79735594340E+02 0.  0.
        -11    1    3    3    0    0  0.17359400467E+02  0.16507698894E+02 -0.33515577976E+03  0.33601078794E+03  0.00000000000E+00 0.  1.
         12    1    3    3    0    0 -0.81108069018E+02  0.57196623302E+01 -0.10393085667E+04  0.10424843069E+04  0.00000000000E+00 0. -1.
         11    1    5    5    0    0 -0.10368025142E+01  0.49743028528E+02  0.11886891080E+04  0.11897299019E+04  0.00000000000E+00 0. -1.
        -12    1    5    5    0    0 -0.14655337605E+02 -0.64663562433E+00  0.39710764400E+02  0.42333696592E+02  0.00000000000E+00 0.  1.
          5    1    4    4  501    0  0.87846732450E+02 -0.61113956260E+02 -0.64598093892E+02  0.12506938149E+03  0.41800000000E+01 0.  1.
         -5    1    4    4    0  501 -0.84059237797E+01 -0.10209797867E+02 -0.12562057664E+03  0.12638394361E+03  0.41800000000E+01 0.  1.
</event>
<event>
11    1  0.8864208E-009  0.2378723E+03  0.7561462E-02  0.1030566E+00
         22   -1    0    0    0    0  0.00000000000E+00  0.00000000000E+00  0.76944495255E+03  0.76944495255E+03  0.00000000000E+00 0. -1.
         22   -1    0    0    0    0 -0.00000000000E+00 -0.00000000000E+00 -0.24156542359E+03  0.24156542359E+03  0.00000000000E+00 0.  1.
        -24    2    1    2    0    0  0.35097530292E+02  0.16948865285E+02 -0.65204836573E+02  0.11118756472E+03  0.81190536198E+02 0.  0.
         25    2    1    2    0    0 -0.22735408990E+02 -0.21706594443E+03 -0.17440724590E+02  0.25215810237E+03  0.12508000106E+03 0.  0.
         24    2    1    2    0    0 -0.12362121302E+02  0.20011707915E+03  0.61052509013E+03  0.64766470905E+03  0.80802365516E+02 0.  0.
        -11    1    5    5    0    0 -0.28723793042E+02  0.72439936856E+02  0.32907492781E+03  0.33817585492E+03  0.00000000000E+00 0.  1.
         12    1    5    5    0    0  0.16361671740E+02  0.12767714229E+03  0.28145016231E+03  0.30948885413E+03  0.00000000000E+00 0. -1.
         13    1    3    3    0    0 -0.30107096199E+01  0.29422951056E+02 -0.64640567865E+02  0.71085704858E+02  0.00000000000E+00 0. -1.
        -14    1    3    3    0    0  0.38108239912E+02 -0.12474085771E+02 -0.56426870824E+00  0.40101859859E+02  0.00000000000E+00 0.  1.
          5    1    4    4  501    0 -0.71963350144E+01  0.15499920836E+02 -0.65809532228E+01  0.18783400355E+02  0.41800000000E+01 0.  1.
         -5    1    4    4    0  501 -0.15539073976E+02 -0.23256586527E+03 -0.10859771367E+02  0.23337470202E+03  0.41800000000E+01 0.  1.
</event>
<event>
11    1  0.8864208E-009  0.1379297E+03  0.7561462E-02  0.1109893E+00
         22   -1    0    0    0    0  0.00000000000E+00  0.00000000000E+00  0.15263227123E+03  0.15263227123E+03  0.00000000000E+00 0. -1.
         22   -1    0    0    0    0 -0.00000000000E+00 -0.00000000000E+00 -0.13453388094E+04  0.13453388094E+04  0.00000000000E+00 0. -1.
         24    2    1    2    0    0 -0.14034609015E+02 -0.85947507684E+01 -0.99085664168E+03  0.99424057765E+03  0.80290733519E+02 0.  0.
         25    2    1    2    0    0 -0.22034002453E+02 -0.37990631361E+02 -0.32099635373E+03  0.34729807610E+03  0.12509400153E+03 0.  0.
        -24    2    1    2    0    0  0.36068611468E+02  0.46585382130E+02  0.11914645721E+03  0.15643242690E+03  0.82486867799E+02 0.  0.
        -13    1    3    3    0    0 -0.42086395678E+01 -0.29756366876E+02 -0.14595401938E+03  0.14901587093E+03  0.00000000000E+00 0.  1.
         14    1    3    3    0    0 -0.98259694469E+01  0.21161616108E+02 -0.84490262230E+03  0.84522470672E+03  0.00000000000E+00 0. -1.
         11    1    5    5    0    0 -0.51098261114E+01 -0.15565475078E+02  0.57202633958E+02  0.59502400532E+02  0.00000000000E+00 0. -1.
        -12    1    5    5    0    0  0.41178437579E+02  0.62150857208E+02  0.61943823254E+02  0.96930026372E+02  0.00000000000E+00 0.  1.
          5    1    4    4  501    0  0.40275224624E+02 -0.29613826657E+02 -0.23725074366E+03  0.24249630970E+03  0.41800000000E+01 0.  1.
         -5    1    4    4    0  501 -0.62309227077E+02 -0.83768047043E+01 -0.83745610067E+02  0.10480176640E+03  0.41800000000E+01 0.  1.
</event>
<event>
11    1  0.8864208E-009  0.1445406E+03  0.7561462E-02  0.1102591E+00
         22   -1    0    0    0    0  0.00000000000E+00  0.00000000000E+00  0.90735986006E+02  0.90735986006E+02  0.00000000000E+00 0.  1.
         22   -1    0    0    0    0 -0.00000000000E+00 -0.00000000000E+00 -0.18593010446E+04  0.18593010446E+04  0.00000000000E+00 0.  1.
        -24    2    1    2    0    0 -0.36732752428E+02 -0.40605580617E+02 -0.13585512614E+04  0.13620471255E+04  0.80701512734E+02 0.  0.
         25    2    1    2    0    0  0.21998809721E+02 -0.33878073916E+02 -0.45251226083E+03  0.47121148892E+03  0.12506498137E+03 0.  0.
         24    2    1    2    0    0  0.14733942706E+02  0.74483654533E+02  0.42498463594E+02  0.11677841616E+03  0.77885654724E+02 0.  0.
        -11    1    5    5    0    0  0.45617697587E+02  0.57904588484E+02  0.29224049789E+02  0.79296663149E+02  0.00000000000E+00 0.  1.
         12    1    5    5    0    0 -0.30883754880E+02  0.16579066049E+02  0.13274413806E+02  0.37481753007E+02  0.00000000000E+00 0. -1.
         13    1    3    3    0    0 -0.15963870233E+02  0.11842265782E+02 -0.86855886886E+02  0.89101231744E+02  0.00000000000E+00 0. -1.
        -14    1    3    3    0    0 -0.20768882194E+02 -0.52447846399E+02 -0.12716953745E+04  0.12729458938E+04  0.00000000000E+00 0.  1.
          5    1    4    4  501    0 -0.33755744187E+01 -0.58730666471E+02 -0.94333916582E+02  0.11125217258E+03  0.41800000000E+01 0. -1.
         -5    1    4    4    0  501  0.25374384140E+02  0.24852592556E+02 -0.35817834425E+03  0.35995931633E+03  0.41800000000E+01 0. -1.
</event>
<event>
11    1  0.8864208E-009  0.1287395E+03  0.7561462E-02  0.1120828E+00
         22   -1    0    0    0    0  0.00000000000E+00  0.00000000000E+00  0.24354888692E+03  0.24354888692E+03  0.00000000000E+00 0. -1.
         22   -1    0    0    0    0 -0.00000000000E+00 -0.00000000000E+00 -0.27443588213E+03  0.27443588213E+03  0.00000000000E+00 0.  1.
        -24    2    1    2    0    0  0.34558310586E+01 -0.78398471421E+01 -0.20165993290E+03  0.21759158351E+03  0.81277073686E+02 0.  0.
         25    2    1    2    0    0  0.22709293684E+02 -0.10087009668E+02  0.23117252437E+02  0.12961403753E+03  0.12509169269E+03 0.  0.
         24    2    1    2    0    0 -0.26165124743E+02  0.17926856810E+02  0.14765568526E+03  0.17077914801E+03  0.79732866871E+02 0.  0.
        -13    1    5    5    0    0  0.12408896624E+02 -0.24296100351E+02  0.62574563423E+02  0.68263146685E+02  0.00000000000E+00 0.  1.
         14    1    5    5    0    0 -0.38574021367E+02  0.42222957161E+02  0.85081121832E+02  0.10251600133E+03  0.00000000000E+00 0. -1.
         11    1    3    3    0    0 -0.94717327597E+01 -0.42376763964E+02 -0.12894732205E+03  0.13606217589E+03  0.00000000000E+00 0. -1.
        -12    1    3    3    0    0  0.12927563818E+02  0.34536916822E+02 -0.72712610853E+02  0.81529407621E+02  0.00000000000E+00 0.  1.
          5    1    4    4  501    0  0.65418973738E+02 -0.26706782934E+02  0.39140390382E+02  0.80884713876E+02  0.41800000000E+01 0.  1.
         -5    1    4    4    0  501 -0.42709680054E+02  0.16619773266E+02 -0.16023137945E+02  0.48729323649E+02  0.41800000000E+01 0.  1.
</event>
<event>
11    1  0.8864208E-009  0.2259256E+03  0.7561462E-02  0.1037568E+00
         22   -1    0    0    0    0  0.00000000000E+00  0.00000000000E+00  0.27823976962E+03  0.27823976962E+03  0.00000000000E+00 0. -1.
         22   -1    0    0    0    0 -0.00000000000E+00 -0.00000000000E+00 -0.19481271727E+04  0.19481271727E+04  0.00000000000E+00 0.  1.
        -24    2    1    2    0    0 -0.72870378809E+02  0.17723957417E+03 -0.18032282230E+04  0.18151799140E+04  0.80759748289E+02 0.  0.
         25    2    1    2    0    0  0.27429239866E+02 -0.14521624794E+03 -0.53291541243E+02  0.20081882425E+03  0.12509232566E+03 0.  0.
         24    2    1    2    0    0  0.45441138944E+02 -0.32023326227E+02  0.18663236122E+03  0.21036820409E+03  0.79578593269E+02 0.  0.
        -11    1    5    5    0    0  0.43448439468E+02 -0.37664093518E+02  0.58261874068E+02  0.81858394821E+02  0.00000000000E+00 0.  1.
         12    1    5    5    0    0  0.19926994758E+01  0.56407672918E+01  0.12837048715E+03  0.12850980927E+03  0.00000000000E+00 0. -1.
         13    1    3    3    0    0 -0.75359587344E+02  0.10113689773E+03 -0.90775776322E+03  0.91647798456E+03  0.00000000000E+00 0. -1.
        -14    1    3    3    0    0  0.24892085347E+01  0.76102676439E+02 -0.89547045982E+03  0.89870192941E+03  0.00000000000E+00 0.  1.
          5    1    4    4  501    0 -0.22531383438E+02 -0.83567913579E+02  0.24054194214E+02  0.89929617362E+02  0.41800000000E+01 0.  1.
         -5    1    4    4    0  501  0.49960623304E+02 -0.61648334362E+02 -0.77345735456E+02  0.11088920689E+03  0.41800000000E+01 0.  1.
</event>
<event>
11    1  0.8864208E-009  0.1413679E+03  0.7561462E-02  0.1106041E+00
         22   -1    0    0    0    0  0.00000000000E+00  0.00000000000E+00  0.53087673582E+03  0.53087673582E+03  0.00000000000E+00 0.  1.
         22   -1    0    0    0    0 -0.00000000000E+00 -0.00000000000E+00 -0.21426734985E+03  0.21426734985E+03  0.00000000000E+00 0. -1.
        -24    2    1    2    0    0  0.55926360484E+02 -0.33349696647E+02 -0.13940455550E+03  0.17552936248E+03  0.84480571335E+02 0.  0.
         25    2    1    2    0    0 -0.61945446807E+02  0.32957271000E+02  0.43938762940E+02  0.14998813347E+03  0.12506960143E+03 0.  0.
         24    2    1    2    0    0  0.60190863227E+01  0.39242564682E+00  0.41207517853E+03  0.41962658972E+03  0.79019862324E+02 0.  0.
        -13    1    5    5    0    0  0.34144017850E+02 -0.17369003272E+02  0.12797054327E+03  0.13358127180E+03  0.00000000000E+00 0.  1.
         14    1    5    5    0    0 -0.28124931527E+02  0.17761428918E+02  0.28410463526E+03  0.28604531793E+03  0.00000000000E+00 0. -1.
         13    1    3    3    0    0  0.27787842800E+02  0.25060422458E+01 -0.12448148300E+03  0.12756991834E+03  0.00000000000E+00 0. -1.
        -14    1    3    3    0    0  0.28138517684E+02 -0.35855738893E+02 -0.14923072502E+02  0.47959444137E+02  0.00000000000E+00 0.  1.
          5    1    4    4  501    0 -0.52451627789E+02 -0.35017803528E+02 -0.81442868732E+01  0.63727714774E+02  0.41800000000E+01 0.  1.
         -5    1    4    4    0  501 -0.94938190179E+01  0.67975074528E+02  0.52083049813E+02  0.86260418701E+02  0.41800000000E+01 0.  1.
</event>
<event>
11    1  0.8864208E-009  0.1393854E+03  0.7561462E-02  0.1108247E+00
         22   -1    0    0    0    0  0.00000000000E+00  0.00000000000E+00  0.46790551733E+02  0.46790551733E+02  0.00000000000E+00 0.  1.
         22   -1    0    0    0    0 -0.00000000000E+00 -0.00000000000E+00 -0.13464855329E+04  0.13464855329E+04  0.00000000000E+00 0.  1.
        -24    2    1    2    0    0  0.44653970516E+02 -0.44439319003E+02 -0.10488251096E+04  0.10537071492E+04  0.79346175443E+02 0.  0.
         25    2    1    2    0    0 -0.46472808230E+02  0.22264913656E+02 -0.20459454097E+03  0.24527921352E+03  0.12509003999E+03 0.  0.
         24    2    1    2    0    0  0.18188377133E+01  0.22174405347E+02 -0.46275330581E+02  0.94289721913E+02  0.79083076666E+02 0.  0.
        -11    1    5    5    0    0 -0.24343460329E+02  0.38568152767E+02 -0.10068039203E+02  0.46706229585E+02  0.00000000000E+00 0.  1.
         12    1    5    5    0    0  0.26162298042E+02 -0.16393747419E+02 -0.36207291378E+02  0.47583492329E+02  0.00000000000E+00 0. -1.
         11    1    3    3    0    0 -0.21197250995E+02 -0.24213002018E+02 -0.36910823502E+03  0.37050841026E+03  0.00000000000E+00 0. -1.
        -12    1    3    3    0    0  0.65851221512E+02 -0.20226316985E+02 -0.67971687455E+03  0.68319873890E+03  0.00000000000E+00 0.  1.
          5    1    4    4  501    0 -0.83603386779E+02 -0.17326793537E+01 -0.16811162879E+03  0.18780713669E+03  0.41800000000E+01 0.  1.
         -5    1    4    4    0  501  0.37130578549E+02  0.23997593010E+02 -0.36482912184E+02  0.57472076829E+02  0.41800000000E+01 0.  1.
</event>
<event>
11    1  0.8864208E-009  0.1500627E+03  0.7561462E-02  0.1096815E+00
         22   -1    0    0    0    0  0.00000000000E+00  0.00000000000E+00  0.14364690064E+04  0.14364690064E+04  0.00000000000E+00 0.  1.
         22   -1    0    0    0    0 -0.00000000000E+00 -0.00000000000E+00 -0.57159774015E+02  0.57159774015E+02  0.00000000000E+00 0. -1.
        -24    2    1    2    0    0 -0.45288523502E+02 -0.30908902248E+02  0.11399764801E+02  0.95694681890E+02  0.77595791802E+02 0.  0.
         25    2    1    2    0    0 -0.51391762142E+02  0.31281921889E+02  0.46046110981E+03  0.48092764990E+03  0.12508916396E+03 0.  0.
         24    2    1    2    0    0  0.96680285643E+02 -0.37301964103E+00  0.90744835776E+03  0.91700644861E+03  0.89950475340E+02 0.  0.
        -11    1    5    5    0    0  0.40742162388E+02  0.37462617532E+02  0.58196571776E+03  0.58459171064E+03  0.00000000000E+00 0.  1.
         12    1    5    5    0    0  0.55938123256E+02 -0.37835637173E+02  0.32548264000E+03  0.33241473796E+03  0.00000000000E+00 0. -1.
         13    1    3    3    0    0 -0.62522109856E+02 -0.37560928344E+02 -0.18511883957E+01  0.72960704885E+02  0.00000000000E+00 0. -1.
        -14    1    3    3    0    0  0.17233586354E+02  0.66520260969E+01  0.13250953197E+02  0.22733977004E+02  0.00000000000E+00 0.  1.
          5    1    4    4  501    0 -0.85627987412E+01 -0.46419084940E+02  0.11860318866E+03  0.12771938666E+03  0.41800000000E+01 0.  1.
         -5    1    4    4    0  501 -0.42828963400E+02  0.77701006828E+02  0.34185792115E+03  0.35320826324E+03  0.41800000000E+01 0.  1.
</event>
<event>
11    1  0.8864208E-009  0.8958958E+03  0.7561462E-02  0.8784870E-01
         22   -1    0    0    0    0  0.00000000000E+00  0.00000000000E+00  0.31999735125E+04  0.31999735125E+04  0.00000000000E+00 0.  1.
         22   -1    0    0    0    0 -0.00000000000E+00 -0.00000000000E+00 -0.40860776340E+03  0.40860776340E+03  0.00000000000E+00 0. -1.
        -24    2    1    2    0    0 -0.87876828932E+03 -0.91419759707E+02  0.39068981326E+03  0.96981911614E+03  0.85552960664E+02 0.  0.
         25    2    1    2    0    0  0.88797390892E+03  0.12634253893E+03  0.16439886218E+04  0.18769140683E+04  0.12509089111E+03 0.  0.
         24    2    1    2    0    0 -0.92056196056E+01 -0.34922779219E+02  0.75668731408E+03  0.76184809151E+03  0.80823754585E+02 0.  0.
        -13    1    5    5    0    0  0.67942388422E+01 -0.51013390589E+02  0.67810711212E+03  0.68005719113E+03  0.00000000000E+00 0.  1.
         14    1    5    5    0    0 -0.15999858448E+02  0.16090611369E+02  0.78580201958E+02  0.81790900376E+02  0.00000000000E+00 0. -1.
         13    1    3    3    0    0 -0.76134074311E+03 -0.65647807575E+02  0.30798259284E+03  0.82389479865E+03  0.00000000000E+00 0. -1.
        -14    1    3    3    0    0 -0.11742754621E+03 -0.25771952132E+02  0.82707220418E+02  0.14592431749E+03  0.00000000000E+00 0.  1.
          5    1    4    4  501    0  0.68699908114E+03  0.13691085235E+03  0.12017649953E+04  0.13910315939E+04  0.41800000000E+01 0. -1.
         -5    1    4    4    0  501  0.20097482779E+03 -0.10568313422E+02  0.44222362649E+03  0.48588247435E+03  0.41800000000E+01 0. -1.
</event>
<event>
11    1  0.8864208E-009  0.1350216E+03  0.7561462E-02  0.1113249E+00
         22   -1    0    0    0    0  0.00000000000E+00  0.00000000000E+00  0.66352502722E+03  0.66352502722E+03  0.00000000000E+00 0. -1.
         22   -1    0    0    0    0 -0.00000000000E+00 -0.00000000000E+00 -0.71164803973E+03  0.71164803973E+03  0.00000000000E+00 0. -1.
        -24    2    1    2    0    0  0.17534893854E+02  0.46878042697E+02 -0.64235271935E+03  0.64956509014E+03  0.82539486794E+02 0.  0.
         25    2    1    2    0    0 -0.56497203869E+02 -0.52033867268E+02  0.23952353121E+02  0.14873581302E+03  0.12509664051E+03 0.  0.
         24    2    1    2    0    0  0.38962310014E+02  0.51558245707E+01  0.57027735372E+03  0.57687216378E+03  0.77592454859E+02 0.  0.
        -11    1    5    5    0    0  0.32315155043E+01 -0.30367726264E+02  0.12166548255E+03  0.12543975102E+03  0.00000000000E+00 0.  1.
         12    1    5    5    0    0  0.35730794510E+02  0.35523550834E+02  0.44861187117E+03  0.45143241277E+03  0.00000000000E+00 0. -1.
         13    1    3    3    0    0  0.47706945813E+02  0.28670869139E+02 -0.49197227820E+03  0.49511078955E+03  0.00000000000E+00 0. -1.
        -14    1    3    3    0    0 -0.30172051958E+02  0.18207173558E+02 -0.15038044116E+03  0.15445430059E+03  0.00000000000E+00 0.  1.
          5    1    4    4  501    0 -0.33810711061E+02 -0.25376846099E+02  0.75297144690E+02  0.86453923560E+02  0.41800000000E+01 0.  1.
         -5    1    4    4    0  501 -0.22686492808E+02 -0.26657021169E+02 -0.51344791569E+02  0.62281889461E+02  0.41800000000E+01 0.  1.
</event>
<event>
11    1  0.8864208E-009  0.1640721E+03  0.7561462E-02  0.1083309E+00
         22   -1    0    0    0    0  0.00000000000E+00  0.00000000000E+00  0.17929328508E+04  0.17929328508E+04  0.00000000000E+00 0.  1.
         22   -1    0    0    0    0 -0.00000000000E+00 -0.00000000000E+00 -0.17015176231E+04  0.17015176231E+04  0.00000000000E+00 0.  1.
        -24    2    1    2    0    0  0.32790551350E+02  0.16381427235E+01 -0.16744150231E+04  0.16769984174E+04  0.87063877670E+02 0.  0.
         25    2    1    2    0    0 -0.84894156105E+02  0.88829713216E+02  0.31361381473E+03  0.35930344558E+03  0.12509038942E+03 0.  0.
         24    2    1    2    0    0  0.52103604755E+02 -0.90467855940E+02  0.14522164360E+04  0.14581486109E+04  0.79784558878E+02 0.  0.
        -13    1    5    5    0    0  0.50391624709E+02 -0.48289045942E+02  0.48334581593E+03  0.48835880823E+03  0.00000000000E+00 0.  1.
         14    1    5    5    0    0  0.17119800460E+01 -0.42178809998E+02  0.96887062009E+03  0.96978980267E+03  0.00000000000E+00 0. -1.
         13    1    3    3    0    0  0.94658958228E+01 -0.39542213133E+01 -0.20633948168E+02  0.23043412658E+02  0.00000000000E+00 0. -1.
        -14    1    3    3    0    0  0.23324655527E+02  0.55923640369E+01 -0.16537810749E+04  0.16539550048E+04  0.00000000000E+00 0.  1.
          5    1    4    4  501    0 -0.92761305162E+02  0.59078401971E+02  0.30886354958E+03  0.32788577580E+03  0.41800000000E+01 0.  1.
         -5    1    4    4    0  501  0.78671490571E+01  0.29751311245E+02  0.47502651494E+01  0.31417669775E+02  0.41800000000E+01 0.  1.
</event>
<event>
11    1  0.8864208E-009  0.1310026E+03  0.7561462E-02  0.1118043E+00
         22   -1    0    0    0    0  0.00000000000E+00  0.00000000000E+00  0.95988187974E+03  0.95988187974E+03  0.00000000000E+00 0.  1.
         22   -1    0    0    0    0 -0.00000000000E+00 -0.00000000000E+00 -0.12965588452E+04  0.12965588452E+04  0.00000000000E+00 0.  1.
        -24    2    1    2    0    0 -0.32253145320E+02  0.27301183618E+02 -0.99423224584E+03  0.99808530736E+03  0.76752212211E+02 0.  0.
         25    2    1    2    0    0  0.15705033402E+02 -0.58638062038E+01 -0.28516283028E+03  0.31184239364E+03  0.12508719520E+03 0.  0.
         24    2    1    2    0    0  0.16548111918E+02 -0.21437377414E+02  0.94271811066E+03  0.94651302395E+03  0.80225103121E+02 0.  0.
        -11    1    5    5    0    0  0.77023537393E+00 -0.34161024753E+02  0.87867142327E+03  0.87933556675E+03  0.00000000000E+00 0.  1.
         12    1    5    5    0    0  0.15777876544E+02  0.12723647339E+02  0.64046687393E+02  0.67177457200E+02  0.00000000000E+00 0. -1.
         13    1    3    3    0    0 -0.51089234116E+02 -0.31675856258E+01 -0.64144989661E+03  0.64348901568E+03  0.00000000000E+00 0. -1.
        -14    1    3    3    0    0  0.18836088796E+02  0.30468769244E+02 -0.35278234923E+03  0.35459629168E+03  0.00000000000E+00 0.  1.
          5    1    4    4  501    0  0.21561664838E+02 -0.62855349941E+02 -0.12395063987E+03  0.14070157757E+03  0.41800000000E+01 0.  1.
         -5    1    4    4    0  501 -0.58566314361E+01  0.56991543737E+02 -0.16121219041E+03  0.17114081607E+03  0.41800000000E+01 0.  1.
</event>
<event>
11    1  0.8864208E-009  0.1453019E+03  0.7561462E-02  0.1101778E+00
         22   -1    0    0    0    0  0.00000000000E+00  0.00000000000E+00  0.24648225827E+03  0.24648225827E+03  0.00000000000E+00 0. -1.
         22   -1    0    0    0    0 -0.00000000000E+00 -0.00000000000E+00 -0.21422353597E+04  0.21422353597E+04  0.00000000000E+00 0.  1.
        -24    2    1    2    0    0 -0.16031016514E+02 -0.39213837872E+02 -0.20085316640E+04  0.20105897217E+04  0.80478974247E+02 0.  0.
         25    2    1    2    0    0 -0.46791662195E+02  0.76503580997E+02 -0.67298144777E+02  0.16798976091E+03  0.12509701005E+03 0.  0.
         24    2    1    2    0    0  0.62822678709E+02 -0.37289743125E+02  0.18007670727E+03  0.21013813539E+03  0.79957498348E+02 0.  0.
        -13    1    5    5    0    0 -0.15640684760E+02 -0.39768562067E+01  0.77967071744E+01  0.17923031212E+02  0.00000000000E+00 0.  1.
         14    1    5    5    0    0  0.78463363469E+02 -0.33312886918E+02  0.17228000010E+03  0.19221510418E+03  0.00000000000E+00 0. -1.
         11    1    3    3    0    0 -0.18246347585E+02 -0.29910335799E+02 -0.30114884990E+03  0.30318012333E+03  0.00000000000E+00 0. -1.
        -12    1    3    3    0    0  0.22153310715E+01 -0.93035020734E+01 -0.17073828141E+04  0.17074095984E+04  0.00000000000E+00 0.  1.
          5    1    4    4  501    0 -0.83506663537E+02  0.73478001650E+02 -0.29739494280E+02  0.11521410288E+03  0.41800000000E+01 0. -1.
         -5    1    4    4    0  501  0.36715001342E+02  0.30255793467E+01 -0.37558650497E+02  0.52775658036E+02  0.41800000000E+01 0. -1.
</event>
<event>
11    1  0.8864208E-009  0.4172388E+03  0.7561462E-02  0.9600220E-01
         22   -1    0    0    0    0  0.00000000000E+00  0.00000000000E+00  0.36864934258E+03  0.36864934258E+03  0.00000000000E+00 0.  1.
         22   -1    0    0    0    0 -0.00000000000E+00 -0.00000000000E+00 -0.21150723793E+04  0.21150723793E+04  0.00000000000E+00 0.  1.
        -24    2    1    2    0    0 -0.44803941012E+02  0.31026463506E+03 -0.19791690317E+04  0.20059572474E+04  0.92102579985E+02 0.  0.
         25    2    1    2    0    0 -0.49866999462E+02 -0.99804793739E+02  0.58823695518E+02  0.17764220181E+03  0.12509520463E+03 0.  0.
         24    2    1    2    0    0  0.94670940474E+02 -0.21045984133E+03  0.17392229951E+03  0.30012227267E+03  0.81046162808E+02 0.  0.
        -13    1    5    5    0    0  0.16351421492E+02 -0.13341527202E+03  0.88115289844E+02  0.16072121234E+03  0.00000000000E+00 0.  1.
         14    1    5    5    0    0  0.78319518982E+02 -0.77044569310E+02  0.85807009671E+02  0.13940106033E+03  0.00000000000E+00 0. -1.
         11    1    3    3    0    0 -0.42004841058E+02  0.49030456746E+02 -0.33547317550E+03  0.34162939545E+03  0.00000000000E+00 0. -1.
        -12    1    3    3    0    0 -0.27990999543E+01  0.26123417832E+03 -0.16436958563E+04  0.16643278519E+04  0.00000000000E+00 0.  1.
          5    1    4    4  501    0 -0.86095013376E+02 -0.37940898826E+02  0.21050900421E+02  0.96501170669E+02  0.41800000000E+01 0.  1.
         -5    1    4    4    0  501  0.36228013914E+02 -0.61863894913E+02  0.37772795097E+02  0.81141031146E+02  0.41800000000E+01 0.  1.
</event>
<event>
11    1  0.8864208E-009  0.1641261E+03  0.7561462E-02  0.1083259E+00
         22   -1    0    0    0    0  0.00000000000E+00  0.00000000000E+00  0.86812531766E+02  0.86812531766E+02  0.00000000000E+00 0. -1.
         22   -1    0    0    0    0 -0.00000000000E+00 -0.00000000000E+00 -0.24023665621E+04  0.24023665621E+04  0.00000000000E+00 0. -1.
        -24    2    1    2    0    0  0.47501171448E+02 -0.96612672830E+02 -0.22031022010E+04  0.22073549683E+04  0.84653874427E+02 0.  0.
         25    2    1    2    0    0 -0.56888199253E+01  0.87210422487E+02 -0.11415705800E+03  0.19057012922E+03  0.12508844790E+03 0.  0.
         24    2    1    2    0    0 -0.41812351522E+02  0.94022503424E+01  0.17052286430E+01  0.91253996300E+02  0.80546315774E+02 0.  0.
        -11    1    5    5    0    0 -0.10261249538E+02  0.13842027480E+02 -0.37182181714E+02  0.40980600336E+02  0.00000000000E+00 0.  1.
         12    1    5    5    0    0 -0.31551101985E+02 -0.44397771376E+01  0.38887410357E+02  0.50273395964E+02  0.00000000000E+00 0. -1.
         11    1    3    3    0    0 -0.51128928999E+01 -0.72797793453E+02 -0.15453596328E+04  0.15470817868E+04  0.00000000000E+00 0. -1.
        -12    1    3    3    0    0  0.52614064347E+02 -0.23814879377E+02 -0.65774256821E+03  0.66027318156E+03  0.00000000000E+00 0.  1.
          5    1    4    4  501    0 -0.13771713091E+02  0.60298219765E+02  0.10361459026E+02  0.62851950021E+02  0.41800000000E+01 0. -1.
         -5    1    4    4    0  501  0.80828931656E+01  0.26912202722E+02 -0.12451851702E+03  0.12771817920E+03  0.41800000000E+01 0. -1.
</event>
<event>
11    1  0.8864208E-009  0.1697586E+03  0.7561462E-02  0.1078242E+00
         22   -1    0    0    0    0  0.00000000000E+00  0.00000000000E+00  0.58762804795E+03  0.58762804795E+03  0.00000000000E+00 0. -1.
         22   -1    0    0    0    0 -0.00000000000E+00 -0.00000000000E+00 -0.26695537141E+03  0.26695537141E+03  0.00000000000E+00 0. -1.
        -24    2    1    2    0    0  0.36047398393E+02 -0.10985013921E+03 -0.20078859423E+03  0.24486908316E+03  0.79235978568E+02 0.  0.
         25    2    1    2    0    0 -0.97570350311E+02  0.78017699158E+02  0.17681904253E+03  0.25004122956E+03  0.12509559560E+03 0.  0.
         24    2    1    2    0    0  0.61522951918E+02  0.31832440056E+02  0.34464222824E+03  0.35967310664E+03  0.76079565580E+02 0.  0.
        -13    1    5    5    0    0  0.48139219487E+01 -0.22961398481E+02  0.64077606665E+02  0.68237374954E+02  0.00000000000E+00 0.  1.
         14    1    5    5    0    0  0.56709029969E+02  0.54793838537E+02  0.28056462158E+03  0.29143573168E+03  0.00000000000E+00 0. -1.
         11    1    3    3    0    0  0.43957019777E+02 -0.11948557140E+03 -0.17727710415E+03  0.21825717174E+03  0.00000000000E+00 0. -1.
        -12    1    3    3    0    0 -0.79096213840E+01  0.96354321831E+01 -0.23511490084E+02  0.26611911426E+02  0.00000000000E+00 0.  1.
          5    1    4    4  501    0 -0.12083319580E+03  0.62145019936E+02  0.17488367617E+03  0.22150493742E+03  0.41800000000E+01 0. -1.
         -5    1    4    4    0  501  0.23262845491E+02  0.15872679222E+02  0.19353663515E+01  0.28536292137E+02  0.41800000000E+01 0. -1.
</event>
<event>
11    1  0.1617138E-008  0.1987314E+03  0.7561462E-02  0.1055424E+00
         22   -1    0    0    0    0  0.00000000000E+00  0.00000000000E+00  0.19198088979E+04  0.19198088979E+04  0.00000000000E+00 0.  1.
         22   -1    0    0    0    0 -0.00000000000E+00 -0.00000000000E+00 -0.30507811985E+03  0.30507811985E+03  0.00000000000E+00 0.  1.
         24    2    1    2    0    0 -0.11767549520E+02  0.41388788044E+02 -0.12761406636E+03  0.15466859986E+03  0.76062598247E+02 0.  0.
         25    2    1    2    0    0  0.91702014935E+02 -0.17229757078E+03 -0.75753686312E+02  0.24388813005E+03  0.12508831499E+03 0.  0.
        -24    2    1    2    0    0 -0.79934465415E+02  0.13090878274E+03  0.18180985307E+04  0.18263302878E+04  0.80457595798E+02 0.  0.
        -13    1    3    3    0    0 -0.32511122038E+02  0.15228485546E+02 -0.11237170081E+03  0.11796727924E+03  0.00000000000E+00 0.  1.
         14    1    3    3    0    0  0.20743572518E+02  0.26160302497E+02 -0.15242365546E+02  0.36701320616E+02  0.00000000000E+00 0. -1.
         11    1    5    5    0    0 -0.74126450832E+02  0.44354941193E+02  0.93370580012E+03  0.93769324019E+03  0.00000000000E+00 0. -1.
        -12    1    5    5    0    0 -0.58080145824E+01  0.86553841546E+02  0.88439273056E+03  0.88863704761E+03  0.00000000000E+00 0.  1.
          5    1    4    4  501    0  0.96208809173E+02 -0.16406912391E+03 -0.24732761838E+02  0.19184367149E+03  0.41800000000E+01 0.  1.
         -5    1    4    4    0  501 -0.45067942384E+01 -0.82284468713E+01 -0.51020924474E+02  0.52044458556E+02  0.41800000000E+01 0.  1.
</event>
<event>
11    1  0.8864208E-009  0.1856813E+03  0.7561462E-02  0.1065138E+00
         22   -1    0    0    0    0  0.00000000000E+00  0.00000000000E+00  0.17582768002E+03  0.17582768002E+03  0.00000000000E+00 0. -1.
         22   -1    0    0    0    0 -0.00000000000E+00 -0.00000000000E+00 -0.38447271567E+03  0.38447271567E+03  0.00000000000E+00 0.  1.
         24    2    1    2    0    0  0.96220395482E+02  0.78359767219E+02 -0.14644876080E+03  0.20799493242E+03  0.80100154478E+02 0.  0.
         25    2    1    2    0    0 -0.18369827004E+03 -0.48770858370E+02 -0.36419829330E+02  0.23042753218E+03  0.12508713994E+03 0.  0.
        -24    2    1    2    0    0  0.87477874554E+02 -0.29588908848E+02 -0.25776445521E+02  0.12187793109E+03  0.75245749911E+02 0.  0.
        -13    1    3    3    0    0  0.20868857551E+02  0.59987512895E+02 -0.97231687129E+02  0.11613790036E+03  0.00000000000E+00 0.  1.
         14    1    3    3    0    0  0.75351537931E+02  0.18372254324E+02 -0.49217073666E+02  0.91857032053E+02  0.00000000000E+00 0. -1.
         11    1    5    5    0    0  0.85434136213E+00  0.11510598150E+02 -0.23259357156E+02  0.25965774863E+02  0.00000000000E+00 0. -1.
        -12    1    5    5    0    0  0.86623533192E+02 -0.41099506998E+02 -0.25170883645E+01  0.95912156227E+02  0.00000000000E+00 0.  1.
          5    1    4    4  501    0 -0.10084157029E+03 -0.13164055609E+02  0.42706525964E+02  0.11037950180E+03  0.41800000000E+01 0.  1.
         -5    1    4    4    0  501 -0.82856699750E+02 -0.35606802761E+02 -0.79126355294E+02  0.12004803038E+03  0.41800000000E+01 0.  1.
</event>
<event>
11    1  0.8864208E-009  0.2076166E+03  0.7561462E-02  0.1049264E+00
         22   -1    0    0    0    0  0.00000000000E+00  0.00000000000E+00  0.96028358726E+02  0.96028358726E+02  0.00000000000E+00 0.  1.
         22   -1    0    0    0    0 -0.00000000000E+00 -0.00000000000E+00 -0.72549429210E+03  0.72549429210E+03  0.00000000000E+00 0.  1.
         24    2    1    2    0    0 -0.10916789048E+03 -0.11517262789E+03 -0.38961493275E+03  0.42818045537E+03  0.79726683228E+02 0.  0.
         25    2    1    2    0    0  0.13160668466E+03  0.12814417530E+03 -0.20190721029E+03  0.30025857004E+03  0.12508972062E+03 0.  0.
        -24    2    1    2    0    0 -0.22438794172E+02 -0.12971547415E+02 -0.37943790338E+02  0.93083625416E+02  0.80951031922E+02 0.  0.
        -13    1    3    3    0    0 -0.62516648757E+02 -0.19596509309E+02 -0.98993443478E+02  0.11870996757E+03  0.00000000000E+00 0.  1.
         14    1    3    3    0    0 -0.46651241726E+02 -0.95576118576E+02 -0.29062148927E+03  0.30947048780E+03  0.00000000000E+00 0. -1.
         11    1    5    5    0    0 -0.53240954268E+01 -0.19474025673E+02 -0.60646432400E+02  0.63918490524E+02  0.00000000000E+00 0. -1.
        -12    1    5    5    0    0 -0.17114698746E+02  0.65024782579E+01  0.22702642062E+02  0.29165134892E+02  0.00000000000E+00 0.  1.
          5    1    4    4  501    0  0.12800750649E+03  0.14147660292E+03 -0.20996479463E+03  0.28373268806E+03  0.41800000000E+01 0. -1.
         -5    1    4    4    0  501  0.35991781683E+01 -0.13332427622E+02  0.80575843361E+01  0.16525881977E+02  0.41800000000E+01 0. -1.
</event>
<event>
11    1  0.8864208E-009  0.1573567E+03  0.7561462E-02  0.1089590E+00
         22   -1    0    0    0    0  0.00000000000E+00  0.00000000000E+00  0.23940016788E+04  0.23940016788E+04  0.00000000000E+00 0. -1.
         22   -1    0    0    0    0 -0.00000000000E+00 -0.00000000000E+00 -0.40279937325E+03  0.40279937325E+03  0.00000000000E+00 0.  1.
         24    2    1    2    0    0  0.54099937614E+02  0.51637620211E+02 -0.36264086899E+03  0.37885161495E+03  0.80167943816E+02 0.  0.
         25    2    1    2    0    0 -0.14376426035E+03 -0.71109859858E+02  0.31224432119E+03  0.37265142464E+03  0.12509114056E+03 0.  0.
        -24    2    1    2    0    0  0.89664322740E+02  0.19472239647E+02  0.20415988534E+04  0.20452980125E+04  0.81848780731E+02 0.  0.
        -11    1    3    3    0    0  0.53367786501E+02  0.11064028086E+02 -0.29483396222E+03  0.29982928248E+03  0.00000000000E+00 0.  1.
         12    1    3    3    0    0  0.73215111301E+00  0.40573592124E+02 -0.67806906774E+02  0.79022332472E+02  0.00000000000E+00 0. -1.
         11    1    5    5    0    0  0.27762316801E+02 -0.17363566849E+02  0.12499249157E+04  0.12503537637E+04  0.00000000000E+00 0. -1.
        -12    1    5    5    0    0  0.61902005939E+02  0.36835806496E+02  0.79167393773E+03  0.79494424878E+03  0.00000000000E+00 0.  1.
          5    1    4    4  501    0 -0.44065020867E+02  0.31286955879E+02  0.13121249649E+03  0.14196757132E+03  0.41800000000E+01 0. -1.
         -5    1    4    4    0  501 -0.99699239487E+02 -0.10239681574E+03  0.18103182470E+03  0.23068385332E+03  0.41800000000E+01 0. -1.
</event>
<event>
11    1  0.8864208E-009  0.2608710E+03  0.7561462E-02  0.1018262E+00
         22   -1    0    0    0    0  0.00000000000E+00  0.00000000000E+00  0.16121659013E+04  0.16121659013E+04  0.00000000000E+00 0.  1.
         22   -1    0    0    0    0 -0.00000000000E+00 -0.00000000000E+00 -0.42974249617E+04  0.42974249617E+04  0.00000000000E+00 0.  1.
        -24    2    1    2    0    0  0.47875426522E+00  0.57556889049E+02 -0.38685384606E+04  0.38698333928E+04  0.81900196247E+02 0.  0.
         25    2    1    2    0    0 -0.21781748798E+03 -0.12817539778E+03 -0.37143830513E+03  0.46635491699E+03  0.12508838243E+03 0.  0.
         24    2    1    2    0    0  0.21733873371E+03  0.70618508735E+02  0.15547177054E+04  0.15734025533E+04  0.78900901555E+02 0.  0.
        -13    1    5    5    0    0  0.18854356515E+03  0.53718712274E+02  0.10902370367E+04  0.11077234186E+04  0.00000000000E+00 0.  1.
         14    1    5    5    0    0  0.28795168560E+02  0.16899796462E+02  0.46448066870E+03  0.46567913465E+03  0.00000000000E+00 0. -1.
         11    1    3    3    0    0  0.30382542588E+02  0.38166544525E+02 -0.11177235862E+04  0.11187876471E+04  0.00000000000E+00 0. -1.
        -12    1    3    3    0    0 -0.29903788322E+02  0.19390344524E+02 -0.27508148744E+04  0.27510457457E+04  0.00000000000E+00 0.  1.
          5    1    4    4  501    0 -0.10284002056E+03 -0.53964738104E+02 -0.27598198562E+03  0.29945248634E+03  0.41800000000E+01 0.  1.
         -5    1    4    4    0  501 -0.11497746742E+03 -0.74210659680E+02 -0.95456319511E+02  0.16690243065E+03  0.41800000000E+01 0.  1.
</event>
<event>
11    1  0.8864208E-009  0.1535661E+03  0.7561462E-02  0.1093290E+00
         22   -1    0    0    0    0  0.00000000000E+00  0.00000000000E+00  0.22660807889E+04  0.22660807889E+04  0.00000000000E+00 0.  1.
         22   -1    0    0    0    0 -0.00000000000E+00 -0.00000000000E+00 -0.29919022151E+03  0.29919022151E+03  0.00000000000E+00 0. -1.
         24    2    1    2    0    0 -0.91301872356E+01  0.23136482749E+02 -0.26929456840E+03  0.28212983221E+03  0.80368031565E+02 0.  0.
         25    2    1    2    0    0 -0.36763817929E+02 -0.98096132073E+02  0.28591898690E+03  0.32919853862E+03  0.12509029267E+03 0.  0.
        -24    2    1    2    0    0  0.45894005165E+02  0.74959649324E+02  0.19502661489E+04  0.19539426396E+04  0.81416082901E+02 0.  0.
        -11    1    3    3    0    0  0.36591846701E+01  0.44797175565E+02 -0.85237966514E+02  0.96362272215E+02  0.00000000000E+00 0.  1.
         12    1    3    3    0    0 -0.12789371906E+02 -0.21660692815E+02 -0.18405660189E+03  0.18576755999E+03  0.00000000000E+00 0. -1.
         13    1    5    5    0    0  0.39025299925E+02  0.11776175585E+02  0.34193140128E+03  0.34435263252E+03  0.00000000000E+00 0. -1.
        -14    1    5    5    0    0  0.68687052403E+01  0.63183473739E+02  0.16083347476E+04  0.16095900071E+04  0.00000000000E+00 0.  1.
          5    1    4    4  501    0 -0.16072631170E+02 -0.77852931631E+02  0.28902496927E+03  0.29978711396E+03  0.41800000000E+01 0.  1.
         -5    1    4    4    0  501 -0.20691186760E+02 -0.20243200442E+02 -0.31059823717E+01  0.29411424653E+02  0.41800000000E+01 0.  1.
</event>
<event>
11    1  0.8864208E-009  0.1619927E+03  0.7561462E-02  0.1085218E+00
         22   -1    0    0    0    0  0.00000000000E+00  0.00000000000E+00  0.17519623064E+04  0.17519623064E+04  0.00000000000E+00 0. -1.
         22   -1    0    0    0    0 -0.00000000000E+00 -0.00000000000E+00 -0.97100115227E+02  0.97100115227E+02  0.00000000000E+00 0.  1.
        -24    2    1    2    0    0 -0.75152455122E+01  0.48602983291E+02 -0.47792891794E+02  0.10546702994E+03  0.80127429754E+02 0.  0.
         25    2    1    2    0    0 -0.80936228319E+02 -0.95752126341E+02  0.43404135400E+03  0.46878347700E+03  0.12508760362E+03 0.  0.
         24    2    1    2    0    0  0.88451473831E+02  0.47149143050E+02  0.12686137290E+04  0.12748119147E+04  0.75616926473E+02 0.  0.
        -13    1    5    5    0    0  0.16246786685E+01  0.37797249621E+02  0.43153636171E+03  0.43319153170E+03  0.00000000000E+00 0.  1.
         14    1    5    5    0    0  0.86826795163E+02  0.93518934290E+01  0.83707736729E+03  0.84162038301E+03  0.00000000000E+00 0. -1.
         11    1    3    3    0    0  0.92088569413E+00 -0.12362712983E+02  0.13692149973E+02  0.18470508213E+02  0.00000000000E+00 0. -1.
        -12    1    3    3    0    0 -0.84361312063E+01  0.60965696274E+02 -0.61485041767E+02  0.86996521729E+02  0.00000000000E+00 0.  1.
          5    1    4    4  501    0 -0.98565141263E+02 -0.22519337606E+02  0.26542226771E+03  0.28405749459E+03  0.41800000000E+01 0.  1.
         -5    1    4    4    0  501  0.17628912943E+02 -0.73232788734E+02  0.16861908629E+03  0.18472598241E+03  0.41800000000E+01 0.  1.
</event>
<event>
11    1  0.8864208E-009  0.1710328E+03  0.7561462E-02  0.1077136E+00
         22   -1    0    0    0    0  0.00000000000E+00  0.00000000000E+00  0.11265804920E+04  0.11265804920E+04  0.00000000000E+00 0. -1.
         22   -1    0    0    0    0 -0.00000000000E+00 -0.00000000000E+00 -0.45963676909E+03  0.45963676909E+03  0.00000000000E+00 0.  1.
        -24    2    1    2    0    0  0.11579373779E+03 -0.43639444461E-01 -0.42392549162E+03  0.44588575176E+03  0.75452565006E+02 0.  0.
         25    2    1    2    0    0 -0.15581782304E+03  0.48865015382E+02  0.50015092011E+03  0.54080372067E+03  0.12510290844E+03 0.  0.
         24    2    1    2    0    0  0.40024085255E+02 -0.48821375937E+02  0.59071829446E+03  0.59952778870E+03  0.80622651059E+02 0.  0.
        -11    1    5    5    0    0  0.50138810483E+02 -0.48093394174E+02  0.27479058239E+03  0.28343736354E+03  0.00000000000E+00 0.  1.
         12    1    5    5    0    0 -0.10114725228E+02 -0.72798176308E+00  0.31592771208E+03  0.31609042517E+03  0.00000000000E+00 0. -1.
         11    1    3    3    0    0  0.17583089776E+02 -0.29867578813E+02 -0.13062051302E+03  0.13514050367E+03  0.00000000000E+00 0. -1.
        -12    1    3    3    0    0  0.98210648012E+02  0.29823939369E+02 -0.29330497860E+03  0.31074524809E+03  0.00000000000E+00 0.  1.
          5    1    4    4  501    0 -0.16671323649E+03  0.70555308207E+02  0.43896307217E+03  0.47484461234E+03  0.41800000000E+01 0.  1.
         -5    1    4    4    0  501  0.10895413442E+02 -0.21690292826E+02  0.61187847939E+02  0.65959108335E+02  0.41800000000E+01 0.  1.
</event>
<event>
11    1  0.8864208E-009  0.1538268E+03  0.7561462E-02  0.1093031E+00
         22   -1    0    0    0    0  0.00000000000E+00  0.00000000000E+00  0.76816123687E+02  0.76816123687E+02  0.00000000000E+00 0. -1.
         22   -1    0    0    0    0 -0.00000000000E+00 -0.00000000000E+00 -0.21789481828E+04  0.21789481828E+04  0.00000000000E+00 0. -1.
        -24    2    1    2    0    0  0.93694425408E+02  0.14616079250E+02 -0.18034808824E+04  0.18078420025E+04  0.82201810819E+02 0.  0.
         25    2    1    2    0    0 -0.56719650567E+02  0.21989907907E+01 -0.32552622750E+03  0.35332094819E+03  0.12508562394E+03 0.  0.
         24    2    1    2    0    0 -0.36974774841E+02 -0.16815070041E+02  0.26875050738E+02  0.94601355846E+02  0.81100355244E+02 0.  0.
        -11    1    5    5    0    0 -0.51234520543E+02  0.12184715755E+02  0.14604942430E+00  0.52663694551E+02  0.00000000000E+00 0.  1.
         12    1    5    5    0    0  0.14259745702E+02 -0.28999785796E+02  0.26729001314E+02  0.41937661295E+02  0.00000000000E+00 0. -1.
         13    1    3    3    0    0  0.43050776116E+02 -0.18129898726E+00 -0.14305197841E+04  0.14311674448E+04  0.00000000000E+00 0. -1.
        -14    1    3    3    0    0  0.50643649293E+02  0.14797378237E+02 -0.37296109823E+03  0.37667455769E+03  0.00000000000E+00 0.  1.
          5    1    4    4  501    0 -0.59687602639E+02 -0.54166358363E+02 -0.18643063669E+03  0.20315132041E+03  0.41800000000E+01 0. -1.
         -5    1    4    4    0  501  0.29679520712E+01  0.56365349154E+02 -0.13909559081E+03  0.15016962778E+03  0.41800000000E+01 0. -1.
</event>
<event>
11    1  0.8864208E-009  0.2669143E+03  0.7561462E-02  0.1015256E+00
         22   -1    0    0    0    0  0.00000000000E+00  0.00000000000E+00  0.14024101220E+03  0.14024101220E+03  0.00000000000E+00 0. -1.
         22   -1    0    0    0    0 -0.00000000000E+00 -0.00000000000E+00 -0.87961603243E+03  0.87961603243E+03  0.00000000000E+00 0. -1.
         24    2    1    2    0    0  0.12589118683E+03 -0.16832947664E+03 -0.33861813967E+03  0.40663628261E+03  0.80668570044E+02 0.  0.
         25    2    1    2    0    0 -0.26452897578E+02  0.27036858413E+03 -0.22450473756E+03  0.37396556926E+03  0.12509573425E+03 0.  0.
        -24    2    1    2    0    0 -0.99438289250E+02 -0.10203910749E+03 -0.17625214300E+03  0.23925519276E+03  0.76669919296E+02 0.  0.
        -13    1    3    3    0    0  0.56933318483E+02 -0.11635797481E+03 -0.14382365854E+03  0.19356090983E+03  0.00000000000E+00 0.  1.
         14    1    3    3    0    0  0.68957868345E+02 -0.51971501828E+02 -0.19479448113E+03  0.21307537278E+03  0.00000000000E+00 0. -1.
         11    1    5    5    0    0 -0.47960242732E+02 -0.19010531596E+02 -0.20738631399E+02  0.55602841895E+02  0.00000000000E+00 0. -1.
        -12    1    5    5    0    0 -0.51478046518E+02 -0.83028575897E+02 -0.15551351160E+03  0.18365235087E+03  0.00000000000E+00 0.  1.
          5    1    4    4  501    0  0.42684903969E+02  0.14670527609E+03 -0.84092588389E+02  0.17445192713E+03  0.41800000000E+01 0. -1.
         -5    1    4    4    0  501 -0.69137801547E+02  0.12366330805E+03 -0.14041214917E+03  0.19951364212E+03  0.41800000000E+01 0. -1.
</event>
<event>
11    1  0.8864208E-009  0.1311221E+03  0.7561462E-02  0.1117898E+00
         22   -1    0    0    0    0  0.00000000000E+00  0.00000000000E+00  0.34743880659E+03  0.34743880659E+03  0.00000000000E+00 0. -1.
         22   -1    0    0    0    0 -0.00000000000E+00 -0.00000000000E+00 -0.56515010645E+03  0.56515010645E+03  0.00000000000E+00 0. -1.
         24    2    1    2    0    0 -0.29679859914E+02  0.15003454882E+02 -0.47766373851E+03  0.48581842223E+03  0.82163827447E+02 0.  0.
         25    2    1    2    0    0  0.61887872376E+02  0.44774612969E+01 -0.11708156153E+02  0.14012580375E+03  0.12509198036E+03 0.  0.
        -24    2    1    2    0    0 -0.32208012463E+02 -0.19480916179E+02  0.27166059481E+03  0.28664468706E+03  0.83359676615E+02 0.  0.
        -11    1    3    3    0    0 -0.45345425751E+02  0.35334558687E+01 -0.13212104234E+03  0.13973067944E+03  0.00000000000E+00 0.  1.
         12    1    3    3    0    0  0.15665565837E+02  0.11469999014E+02 -0.34554269617E+03  0.34608774278E+03  0.00000000000E+00 0. -1.
         13    1    5    5    0    0  0.13516650753E+02 -0.29594143732E+02  0.18777530287E+03  0.19057302422E+03  0.00000000000E+00 0. -1.
        -14    1    5    5    0    0 -0.45724663216E+02  0.10113227553E+02  0.83885291937E+02  0.96071662841E+02  0.00000000000E+00 0.  1.
          5    1    4    4  501    0  0.34388129501E+01  0.37242865628E+02 -0.50197651259E+02  0.62738609058E+02  0.41800000000E+01 0.  1.
         -5    1    4    4    0  501  0.58449059426E+02 -0.32765404331E+02  0.38489495106E+02  0.77387194692E+02  0.41800000000E+01 0.  1.
</event>
<event>
11    1  0.8864208E-009  0.1500315E+03  0.7561462E-02  0.1096847E+00
         22   -1    0    0    0    0  0.00000000000E+00  0.00000000000E+00  0.50474251985E+03  0.50474251985E+03  0.00000000000E+00 0.  1.
         22   -1    0    0    0    0 -0.00000000000E+00 -0.00000000000E+00 -0.19460407064E+03  0.19460407064E+03  0.00000000000E+00 0.  1.
        -24    2    1    2    0    0 -0.37744085629E+02 -0.64430035323E+02 -0.10208745949E+03  0.15085871972E+03  0.82223223474E+02 0.  0.
         25    2    1    2    0    0  0.48625917003E+02  0.11691007631E+03  0.66311861036E+02  0.18994009129E+03  0.12509008601E+03 0.  0.
         24    2    1    2    0    0 -0.10881831374E+02 -0.52480040992E+02  0.34591404767E+03  0.35854777948E+03  0.77636414403E+02 0.  0.
        -11    1    5    5    0    0  0.16889028142E+02 -0.32695915233E+02  0.29490238316E+03  0.29718963262E+03  0.00000000000E+00 0.  1.
         12    1    5    5    0    0 -0.27770859516E+02 -0.19784125760E+02  0.51011664510E+02  0.61358146862E+02  0.00000000000E+00 0. -1.
         13    1    3    3    0    0 -0.18265924151E+02  0.18428871006E+02 -0.24450341652E+02  0.35652299765E+02  0.00000000000E+00 0. -1.
        -14    1    3    3    0    0 -0.19478161478E+02 -0.82858906328E+02 -0.77637117841E+02  0.11520641996E+03  0.00000000000E+00 0.  1.
          5    1    4    4  501    0  0.88443799338E+02  0.74649572767E+02  0.62502883082E+02  0.13160147092E+03  0.41800000000E+01 0.  1.
         -5    1    4    4    0  501 -0.39817882334E+02  0.42260503547E+02  0.38089779532E+01  0.58338620370E+02  0.41800000000E+01 0.  1.
</event>
<event>
11    1  0.8864208E-009  0.1825722E+03  0.7561462E-02  0.1067581E+00
         22   -1    0    0    0    0  0.00000000000E+00  0.00000000000E+00  0.13163125209E+04  0.13163125209E+04  0.00000000000E+00 0.  1.
         22   -1    0    0    0    0 -0.00000000000E+00 -0.00000000000E+00 -0.18273038715E+03  0.18273038715E+03  0.00000000000E+00 0.  1.
        -24    2    1    2    0    0  0.36735787434E+01  0.66869367916E+01 -0.11093310693E+03  0.13680932438E+03  0.79702112393E+02 0.  0.
         25    2    1    2    0    0  0.15608316300E+02  0.12551232915E+03  0.93504930556E+02  0.20097299248E+03  0.12509998946E+03 0.  0.
         24    2    1    2    0    0 -0.19281895044E+02 -0.13219926594E+03  0.11510103101E+04  0.11612605912E+04  0.76504831593E+02 0.  0.
        -11    1    5    5    0    0 -0.31918600935E+01 -0.96659227927E+02  0.51157696354E+03  0.52063824672E+03  0.00000000000E+00 0.  1.
         12    1    5    5    0    0 -0.16090034950E+02 -0.35540038016E+02  0.63943334657E+03  0.64062234447E+03  0.00000000000E+00 0. -1.
         11    1    3    3    0    0 -0.78045249565E+00 -0.81368428530E+01  0.11107490944E+02  0.13791072213E+02  0.00000000000E+00 0. -1.
        -12    1    3    3    0    0  0.44540312390E+01  0.14823779645E+02 -0.12204059787E+03  0.12301825216E+03  0.00000000000E+00 0.  1.
          5    1    4    4  501    0  0.37865036241E+02 -0.73013754894E+01  0.40813924656E+02  0.56305593855E+02  0.41800000000E+01 0. -1.
         -5    1    4    4    0  501 -0.22256719941E+02  0.13281370464E+03  0.52691005901E+02  0.14466739863E+03  0.41800000000E+01 0. -1.
</event>
<event>
11    1  0.8864208E-009  0.2241646E+03  0.7561462E-02  0.1038640E+00
         22   -1    0    0    0    0  0.00000000000E+00  0.00000000000E+00  0.22082623938E+03  0.22082623938E+03  0.00000000000E+00 0.  1.
         22   -1    0    0    0    0 -0.00000000000E+00 -0.00000000000E+00 -0.10472717771E+04  0.10472717771E+04  0.00000000000E+00 0.  1.
         24    2    1    2    0    0  0.46324470233E+02  0.19731361147E+02 -0.78920228365E+03  0.79453165204E+03  0.76844117705E+02 0.  0.
         25    2    1    2    0    0  0.86430283665E+02  0.12756172495E+03 -0.13339681424E+03  0.23913354988E+03  0.12509179438E+03 0.  0.
        -24    2    1    2    0    0 -0.13275475390E+03 -0.14729308610E+03  0.96153560188E+02  0.23443281455E+03  0.79963488565E+02 0.  0.
        -11    1    3    3    0    0 -0.65297263372E+01  0.11789723424E+02 -0.51459232778E+03  0.51476878180E+03  0.00000000000E+00 0.  1.
         12    1    3    3    0    0  0.52854196570E+02  0.79416377228E+01 -0.27460995587E+03  0.27976287024E+03  0.00000000000E+00 0. -1.
         11    1    5    5    0    0 -0.30696637407E+02 -0.74490052527E+02  0.75537822591E+01  0.80920399777E+02  0.00000000000E+00 0. -1.
        -12    1    5    5    0    0 -0.10205811649E+03 -0.72803033574E+02  0.88599777929E+02  0.15351241477E+03  0.00000000000E+00 0.  1.
          5    1    4    4  501    0  0.14300300611E+02 -0.13979446420E+02 -0.61325123845E+02  0.64638740198E+02  0.41800000000E+01 0. -1.
         -5    1    4    4    0  501  0.72129983054E+02  0.14154117137E+03 -0.72071690393E+02  0.17449480968E+03  0.41800000000E+01 0. -1.
</event>
<event>
11    1  0.8864208E-009  0.2020817E+03  0.7561462E-02  0.1053061E+00
         22   -1    0    0    0    0  0.00000000000E+00  0.00000000000E+00  0.24789957348E+03  0.24789957348E+03  0.00000000000E+00 0. -1.
         22   -1    0    0    0    0 -0.00000000000E+00 -0.00000000000E+00 -0.55342455713E+03  0.55342455713E+03  0.00000000000E+00 0. -1.
         24    2    1    2    0    0 -0.16240234429E+03  0.28404208514E+01 -0.34236972228E+03  0.38771495701E+03  0.81995559221E+02 0.  0.
         25    2    1    2    0    0  0.14949791218E+03  0.24619980435E+02 -0.12118223953E+03  0.23084262408E+03  0.12508961879E+03 0.  0.
        -24    2    1    2    0    0  0.12904432111E+02 -0.27460401286E+02  0.15802697817E+03  0.18276654952E+03  0.86663070497E+02 0.  0.
        -11    1    3    3    0    0 -0.37811057613E+01 -0.12316332719E+02 -0.36559981124E+01  0.13392353588E+02  0.00000000000E+00 0.  1.
         12    1    3    3    0    0 -0.15862123853E+03  0.15156753571E+02 -0.33871372417E+03  0.37432260342E+03  0.00000000000E+00 0. -1.
         13    1    5    5    0    0 -0.11301862034E+02 -0.56864381458E+01  0.14822596773E+03  0.14876493261E+03  0.00000000000E+00 0. -1.
        -14    1    5    5    0    0  0.24206294144E+02 -0.21773963141E+02  0.98010104373E+01  0.34001616912E+02  0.00000000000E+00 0.  1.
          5    1    4    4  501    0  0.91204243313E+02 -0.25420872003E+02 -0.12126088868E+03  0.15390292477E+03  0.41800000000E+01 0.  1.
         -5    1    4    4    0  501  0.58293668870E+02  0.50040852438E+02  0.78649141059E-01  0.76939699303E+02  0.41800000000E+01 0.  1.
</event>
<event>
11    1  0.8864208E-009  0.1621799E+03  0.7561462E-02  0.1085045E+00
         22   -1    0    0    0    0  0.00000000000E+00  0.00000000000E+00  0.25065563202E+03  0.25065563202E+03  0.00000000000E+00 0. -1.
         22   -1    0    0    0    0 -0.00000000000E+00 -0.00000000000E+00 -0.47556406488E+03  0.47556406488E+03  0.00000000000E+00 0.  1.
        -24    2    1    2    0    0 -0.46220286620E+02  0.93890975540E+02 -0.37295805639E+03  0.39541322484E+03  0.79385618181E+02 0.  0.
         25    2    1    2    0    0  0.59012292049E+02 -0.74755636999E+02 -0.28464756317E+01  0.15724822450E+03  0.12509214927E+03 0.  0.
         24    2    1    2    0    0 -0.12792005429E+02 -0.19135338540E+02  0.15089609916E+03  0.17355824755E+03  0.82601670498E+02 0.  0.
        -13    1    5    5    0    0 -0.64748704167E+01  0.14758358780E+01 -0.95711571150E+01  0.11649424319E+02  0.00000000000E+00 0.  1.
         14    1    5    5    0    0 -0.63171350119E+01 -0.20611174419E+02  0.16046725627E+03  0.16190882323E+03  0.00000000000E+00 0. -1.
         11    1    3    3    0    0  0.12150523751E+02 -0.56407065664E+01 -0.19984957688E+02  0.24059329413E+02  0.00000000000E+00 0. -1.
        -12    1    3    3    0    0 -0.58370810372E+02  0.99531682106E+02 -0.35297309870E+03  0.37135389543E+03  0.00000000000E+00 0.  1.
          5    1    4    4  501    0 -0.12615026337E+02 -0.83703543696E+02  0.20597062253E+01  0.84776983353E+02  0.41800000000E+01 0. -1.
         -5    1    4    4    0  501  0.71627318385E+02  0.89479066965E+01 -0.49061818570E+01  0.72471241149E+02  0.41800000000E+01 0. -1.
</event>
<event>
11    1  0.8864208E-009  0.1529780E+03  0.7561462E-02  0.1093874E+00
         22   -1    0    0    0    0  0.00000000000E+00  0.00000000000E+00  0.53051586909E+03  0.53051586909E+03  0.00000000000E+00 0. -1.
         22   -1    0    0    0    0 -0.00000000000E+00 -0.00000000000E+00 -0.98689281441E+03  0.98689281441E+03  0.00000000000E+00 0.  1.
        -24    2    1    2    0    0 -0.79879751454E+02 -0.38038393005E+02 -0.86745768293E+03  0.87538748598E+03  0.77412692019E+02 0.  0.
         25    2    1    2    0    0  0.96451339141E+02 -0.14198288151E+02 -0.53631171906E+02  0.16741867345E+03  0.12509299505E+03 0.  0.
         24    2    1    2    0    0 -0.16571587687E+02  0.52236681156E+02  0.46471190952E+03  0.47460252407E+03  0.79291289739E+02 0.  0.
        -11    1    5    5    0    0 -0.26892006152E+02 -0.18942526203E+01  0.55545260507E+02  0.61741753722E+02  0.00000000000E+00 0.  1.
         12    1    5    5    0    0  0.10320418465E+02  0.54130933776E+02  0.40916664901E+03  0.41286077035E+03  0.00000000000E+00 0. -1.
         11    1    3    3    0    0 -0.11057884677E+02  0.89313104891E+01 -0.41985420597E+03  0.42009475049E+03  0.00000000000E+00 0. -1.
        -12    1    3    3    0    0 -0.68821866777E+02 -0.46969703494E+02 -0.44760347697E+03  0.45529273548E+03  0.00000000000E+00 0.  1.
          5    1    4    4  501    0  0.46410945749E+02  0.50662053141E+02  0.10410168241E+01  0.68841670736E+02  0.41800000000E+01 0.  1.
         -5    1    4    4    0  501  0.50040393393E+02 -0.64860341292E+02 -0.54672188730E+02  0.98577002713E+02  0.41800000000E+01 0.  1.
</event>
<event>
11    1  0.8864208E-009  0.1382517E+03  0.7561462E-02  0.1109527E+00
         22   -1    0    0    0    0  0.00000000000E+00  0.00000000000E+00  0.85417430989E+02  0.85417430989E+02  0.00000000000E+00 0.  1.
         22   -1    0    0    0    0 -0.00000000000E+00 -0.00000000000E+00 -0.11738454808E+04  0.11738454808E+04  0.00000000000E+00 0.  1.
         24    2    1    2    0    0 -0.27735566506E+02  0.50227315884E+02 -0.97855143035E+03  0.98333644391E+03  0.78074420676E+02 0.  0.
         25    2    1    2    0    0  0.19413635548E+02 -0.83822498335E+02 -0.11043509415E+03  0.18774080985E+03  0.12509037210E+03 0.  0.
        -24    2    1    2    0    0  0.83219309578E+01  0.33595182451E+02  0.55847464335E+00  0.88185658076E+02  0.81107999468E+02 0.  0.
        -13    1    3    3    0    0  0.21751320650E+02  0.35682800381E+02 -0.57228709938E+03  0.57381086284E+03  0.00000000000E+00 0.  1.
         14    1    3    3    0    0 -0.49486887156E+02  0.14544515503E+02 -0.40626433097E+03  0.40952558107E+03  0.00000000000E+00 0. -1.
         11    1    5    5    0    0  0.21787579428E+02  0.57058866817E+02  0.18066036707E+01  0.61103819165E+02  0.00000000000E+00 0. -1.
        -12    1    5    5    0    0 -0.13465648470E+02 -0.23463684366E+02 -0.12481290274E+01  0.27081838911E+02  0.00000000000E+00 0.  1.
          5    1    4    4  501    0 -0.31670924435E+02 -0.64278884917E+01  0.11443625477E+02  0.34536852333E+02  0.41800000000E+01 0. -1.
         -5    1    4    4    0  501  0.51084559983E+02 -0.77394609843E+02 -0.12187871962E+03  0.15320395752E+03  0.41800000000E+01 0. -1.
</event>
<event>
11    1  0.8864208E-009  0.1270591E+03  0.7561462E-02  0.1122936E+00
         22   -1    0    0    0    0  0.00000000000E+00  0.00000000000E+00  0.68685315956E+03  0.68685315956E+03  0.00000000000E+00 0. -1.
         22   -1    0    0    0    0 -0.00000000000E+00 -0.00000000000E+00 -0.13441359351E+04  0.13441359351E+04  0.00000000000E+00 0. -1.
        -24    2    1    2    0    0 -0.61841399359E+01 -0.20705574694E+02 -0.12140353606E+04  0.12168595663E+04  0.79989892766E+02 0.  0.
         25    2    1    2    0    0  0.10459703004E+02  0.37011338204E+02 -0.92134466428E+02  0.16004853832E+03  0.12509008822E+03 0.  0.
         24    2    1    2    0    0 -0.42755630684E+01 -0.16305763510E+02  0.64888705149E+03  0.65408099002E+03  0.80519423447E+02 0.  0.
        -11    1    5    5    0    0  0.20826250633E+02  0.16377622773E+02  0.93906552959E+02  0.97572536770E+02  0.00000000000E+00 0.  1.
         12    1    5    5    0    0 -0.25101813701E+02 -0.32683386283E+02  0.55498049853E+03  0.55650845325E+03  0.00000000000E+00 0. -1.
         13    1    3    3    0    0 -0.93987935120E+01 -0.27657294652E+02 -0.12033943742E+04  0.12037488455E+04  0.00000000000E+00 0. -1.
        -14    1    3    3    0    0  0.32146535761E+01  0.69517199578E+01 -0.10640986407E+02  0.13110720792E+02  0.00000000000E+00 0.  1.
          5    1    4    4  501    0 -0.52474401625E+02 -0.35844842386E+01 -0.21362678693E+02  0.56923174490E+02  0.41800000000E+01 0. -1.
         -5    1    4    4    0  501  0.62934104629E+02  0.40595822443E+02 -0.70771787736E+02  0.10312536383E+03  0.41800000000E+01 0. -1.
</event>
<event>
11    1  0.8864208E-009  0.1518636E+03  0.7561462E-02  0.1094990E+00
         22   -1    0    0    0    0  0.00000000000E+00  0.00000000000E+00  0.12379761838E+04  0.12379761838E+04  0.00000000000E+00 0. -1.
         22   -1    0    0    0    0 -0.00000000000E+00 -0.00000000000E+00 -0.87584658313E+02  0.87584658313E+02  0.00000000000E+00 0.  1.
        -24    2    1    2    0    0  0.59201386055E+01  0.86896560175E+01 -0.46987304550E+02  0.94897968791E+02  0.81775665873E+02 0.  0.
         25    2    1    2    0    0  0.66088538140E+02  0.43578393422E+02  0.45230807141E+03  0.47591726564E+03  0.12509149064E+03 0.  0.
         24    2    1    2    0    0 -0.72008676746E+02 -0.52268049440E+02  0.74507075859E+03  0.75474560763E+03  0.81199128214E+02 0.  0.
        -13    1    5    5    0    0 -0.11983820932E+02 -0.72664229143E+01  0.13909131305E+02  0.19745298168E+02  0.00000000000E+00 0.  1.
         14    1    5    5    0    0 -0.60024855814E+02 -0.45001626525E+02  0.73116162728E+03  0.73500030947E+03  0.00000000000E+00 0. -1.
         13    1    3    3    0    0  0.12369515155E+02 -0.31839418988E+02 -0.23144666777E+01  0.34236095903E+02  0.00000000000E+00 0. -1.
        -14    1    3    3    0    0 -0.64493765495E+01  0.40529075006E+02 -0.44672837872E+02  0.60661872888E+02  0.00000000000E+00 0.  1.
          5    1    4    4  501    0  0.76982978868E+02 -0.22908900974E+02  0.25478826235E+03  0.26718107682E+03  0.41800000000E+01 0.  1.
         -5    1    4    4    0  501 -0.10894440727E+02  0.66487294396E+02  0.19751980905E+03  0.20873618882E+03  0.41800000000E+01 0.  1.
</event>
<event>
11    1  0.8864208E-009  0.2924543E+03  0.7561462E-02  0.1003436E+00
         22   -1    0    0    0    0  0.00000000000E+00  0.00000000000E+00  0.40991006220E+03  0.40991006220E+03  0.00000000000E+00 0.  1.
         22   -1    0    0    0    0 -0.00000000000E+00 -0.00000000000E+00 -0.99988758413E+03  0.99988758413E+03  0.00000000000E+00 0. -1.
         24    2    1    2    0    0 -0.24947439466E+03  0.41245876291E+02 -0.69483292852E+03  0.74367332017E+03  0.79489072695E+02 0.  0.
         25    2    1    2    0    0  0.30701281332E+03 -0.67291387917E+02 -0.16590761415E+03  0.37677183188E+03  0.12508668368E+03 0.  0.
        -24    2    1    2    0    0 -0.57538418660E+02  0.26045511626E+02  0.27076302073E+03  0.28935249429E+03  0.80144957784E+02 0.  0.
        -13    1    3    3    0    0 -0.13359868754E+03  0.97950825237E+00 -0.26640586564E+03  0.29802961933E+03  0.00000000000E+00 0.  1.
         14    1    3    3    0    0 -0.11587570712E+03  0.40266368038E+02 -0.42842706287E+03  0.44564370084E+03  0.00000000000E+00 0. -1.
         11    1    5    5    0    0 -0.43263406456E+02  0.32982473427E+02  0.73453093590E+02  0.91405267078E+02  0.00000000000E+00 0. -1.
        -12    1    5    5    0    0 -0.14275012205E+02 -0.69369618012E+01  0.19730992714E+03  0.19794722721E+03  0.00000000000E+00 0.  1.
          5    1    4    4  501    0  0.20964641037E+03  0.13820646717E+02 -0.11954645858E+03  0.24176735888E+03  0.41800000000E+01 0.  1.
         -5    1    4    4    0  501  0.97366402948E+02 -0.81112034634E+02 -0.46361155561E+02  0.13500447300E+03  0.41800000000E+01 0.  1.
</event>
<event>
11    1  0.8864208E-009  0.1941934E+03  0.7561462E-02  0.1058707E+00
         22   -1    0    0    0    0  0.00000000000E+00  0.00000000000E+00  0.12986272019E+04  0.12986272019E+04  0.00000000000E+00 0. -1.
         22   -1    0    0    0    0 -0.00000000000E+00 -0.00000000000E+00 -0.11776293140E+04  0.11776293140E+04  0.00000000000E+00 0.  1.
         24    2    1    2    0    0 -0.30866673731E+02  0.60066724758E+01 -0.11118154481E+04  0.11150251193E+04  0.78476712957E+02 0.  0.
         25    2    1    2    0    0 -0.26995217399E+01  0.13994516488E+03  0.94256766830E+02  0.21005944888E+03  0.12509475362E+03 0.  0.
        -24    2    1    2    0    0  0.33566195471E+02 -0.14595183735E+03  0.11385565691E+04  0.11511719477E+04  0.80356479460E+02 0.  0.
        -11    1    3    3    0    0  0.18429872034E+02  0.15749317742E+02 -0.65607667226E+03  0.65652441012E+03  0.00000000000E+00 0.  1.
         12    1    3    3    0    0 -0.49296545765E+02 -0.97426452662E+01 -0.45573877579E+03  0.45850070918E+03  0.00000000000E+00 0. -1.
         11    1    5    5    0    0 -0.19188091969E+02 -0.55268523807E+02  0.57196492130E+03  0.57494927063E+03  0.00000000000E+00 0. -1.
        -12    1    5    5    0    0  0.52754287440E+02 -0.90683313544E+02  0.56659164781E+03  0.57622267707E+03  0.00000000000E+00 0.  1.
          5    1    4    4  501    0 -0.12477072461E+02 -0.21476971470E+02  0.19478500172E+02  0.31840571755E+02  0.41800000000E+01 0. -1.
         -5    1    4    4    0  501  0.97775507208E+01  0.16142213635E+03  0.74778266657E+02  0.17821887713E+03  0.41800000000E+01 0. -1.
</event>
<event>
11    1  0.8864208E-009  0.2153055E+03  0.7561462E-02  0.1044199E+00
         22   -1    0    0    0    0  0.00000000000E+00  0.00000000000E+00  0.79302117842E+03  0.79302117842E+03  0.00000000000E+00 0.  1.
         22   -1    0    0    0    0 -0.00000000000E+00 -0.00000000000E+00 -0.38845438611E+03  0.38845438611E+03  0.00000000000E+00 0. -1.
         24    2    1    2    0    0 -0.18124418835E+03  0.34104334492E+02 -0.32076395322E+03  0.37862813473E+03  0.80356638068E+02 0.  0.
         25    2    1    2    0    0  0.94419020730E+02 -0.61556425015E+02  0.18985362112E+03  0.25376665482E+03  0.12509585409E+03 0.  0.
        -24    2    1    2    0    0  0.86825167616E+02  0.27452090524E+02  0.53547712440E+03  0.54908077498E+03  0.80384822495E+02 0.  0.
        -11    1    3    3    0    0 -0.22967767276E+02  0.25937649738E+02 -0.10734837769E+03  0.11280050621E+03  0.00000000000E+00 0.  1.
         12    1    3    3    0    0 -0.15827642107E+03  0.81666847532E+01 -0.21341557553E+03  0.26582762852E+03  0.00000000000E+00 0. -1.
         11    1    5    5    0    0  0.49378612556E+02 -0.90939294084E+01  0.11663514862E+03  0.12698308873E+03  0.00000000000E+00 0. -1.
        -12    1    5    5    0    0  0.37446555060E+02  0.36546019932E+02  0.41884197578E+03  0.42209768625E+03  0.00000000000E+00 0.  1.
          5    1    4    4  501    0  0.63280618804E+02 -0.18303943469E+02  0.10777305670E+02  0.66881191528E+02  0.41800000000E+01 0. -1.
         -5    1    4    4    0  501  0.31138401926E+02 -0.43252481546E+02  0.17907631545E+03  0.18688546330E+03  0.41800000000E+01 0. -1.
</event>
<event>
11    1  0.8864208E-009  0.1820321E+03  0.7561462E-02  0.1068011E+00
         22   -1    0    0    0    0  0.00000000000E+00  0.00000000000E+00  0.14025342251E+04  0.14025342251E+04  0.00000000000E+00 0.  1.
         22   -1    0    0    0    0 -0.00000000000E+00 -0.00000000000E+00 -0.10956896767E+04  0.10956896767E+04  0.00000000000E+00 0.  1.
         24    2    1    2    0    0  0.10780852539E+03 -0.75596626157E+02 -0.10462726475E+04  0.10573505488E+04  0.77241194004E+02 0.  0.
         25    2    1    2    0    0 -0.11335773029E+03  0.11246980997E+03  0.20150290977E+03  0.28591930549E+03  0.12508794281E+03 0.  0.
        -24    2    1    2    0    0  0.55492048964E+01 -0.36873183811E+02  0.11516142862E+04  0.11549540475E+04  0.79454152678E+02 0.  0.
        -13    1    3    3    0    0  0.77972076115E+02 -0.56219644952E+02 -0.45676391093E+03  0.46676928291E+03  0.00000000000E+00 0.  1.
         14    1    3    3    0    0  0.29836449273E+02 -0.19376981205E+02 -0.58950873661E+03  0.59058126591E+03  0.00000000000E+00 0. -1.
         13    1    5    5    0    0  0.15138673738E+02 -0.30483873552E+02  0.17540150075E+03  0.17867325612E+03  0.00000000000E+00 0. -1.
        -14    1    5    5    0    0 -0.95894688411E+01 -0.63893102594E+01  0.97621278541E+03  0.97628079137E+03  0.00000000000E+00 0.  1.
          5    1    4    4  501    0  0.12171065071E+02  0.62963633377E+02  0.41183543105E+02  0.76328962889E+02  0.41800000000E+01 0.  1.
         -5    1    4    4    0  501 -0.12552879536E+03  0.49506176591E+02  0.16031936666E+03  0.20959034260E+03  0.41800000000E+01 0.  1.
</event>
<event>
11    1  0.8864208E-009  0.2610100E+03  0.7561462E-02  0.1018192E+00
         22   -1    0    0    0    0  0.00000000000E+00  0.00000000000E+00  0.75192506319E+03  0.75192506319E+03  0.00000000000E+00 0. -1.
         22   -1    0    0    0    0 -0.00000000000E+00 -0.00000000000E+00 -0.23273951895E+04  0.23273951895E+04  0.00000000000E+00 0.  1.
         24    2    1    2    0    0 -0.10057702378E+03  0.20536326457E+03 -0.22336307471E+04  0.22467652085E+04  0.80980118398E+02 0.  0.
         25    2    1    2    0    0  0.10994852642E+03 -0.21685357057E+03  0.13855951802E+03  0.30652866182E+03  0.12508769306E+03 0.  0.
        -24    2    1    2    0    0 -0.93715026450E+01  0.11490305994E+02  0.51960110276E+03  0.52602638239E+03  0.80613874689E+02 0.  0.
        -11    1    3    3    0    0 -0.11368219531E+03  0.19370756099E+03 -0.21037534885E+04  0.21157091012E+04  0.00000000000E+00 0.  1.
         12    1    3    3    0    0  0.13105171527E+02  0.11655703586E+02 -0.12987725861E+03  0.13105610726E+03  0.00000000000E+00 0. -1.
         11    1    5    5    0    0  0.16030831613E+02 -0.12054839003E+02  0.42174035320E+03  0.42221704397E+03  0.00000000000E+00 0. -1.
        -12    1    5    5    0    0 -0.25402334258E+02  0.23545144997E+02  0.97860749557E+02  0.10380933842E+03  0.00000000000E+00 0.  1.
          5    1    4    4  501    0  0.10583479662E+02 -0.13668435365E+03  0.33639297689E+02  0.14122215592E+03  0.41800000000E+01 0.  1.
         -5    1    4    4    0  501  0.99365046763E+02 -0.80169216922E+02  0.10492022033E+03  0.16530650590E+03  0.41800000000E+01 0.  1.
</event>
<event>
11    1  0.8864208E-009  0.1312039E+03  0.7561462E-02  0.1117799E+00
         22   -1    0    0    0    0  0.00000000000E+00  0.00000000000E+00  0.10125685333E+04  0.10125685333E+04  0.00000000000E+00 0. -1.
         22   -1    0    0    0    0 -0.00000000000E+00 -0.00000000000E+00 -0.54454043415E+03  0.54454043415E+03  0.00000000000E+00 0. -1.
        -24    2    1    2    0    0  0.35686281192E+02  0.14520613884E+02 -0.48936840560E+03  0.49800619669E+03  0.83930784901E+02 0.  0.
         25    2    1    2    0    0 -0.53155027052E+02 -0.40775498943E+02  0.54458793722E+02  0.15199231569E+03  0.12509118914E+03 0.  0.
         24    2    1    2    0    0  0.17468745859E+02  0.26254885060E+02  0.90293771100E+03  0.90711045505E+03  0.80983897461E+02 0.  0.
        -11    1    5    5    0    0 -0.28420565004E+02  0.16827231916E+02  0.20904810154E+03  0.21164118930E+03  0.00000000000E+00 0.  1.
         12    1    5    5    0    0  0.45889310863E+02  0.94276531436E+01  0.69388960946E+03  0.69546926575E+03  0.00000000000E+00 0. -1.
         11    1    3    3    0    0  0.22210731934E+02 -0.30843661001E+02 -0.31661473281E+03  0.31888796946E+03  0.00000000000E+00 0. -1.
        -12    1    3    3    0    0  0.13475549258E+02  0.45364274885E+02 -0.17275367279E+03  0.17911822723E+03  0.00000000000E+00 0.  1.
          5    1    4    4  501    0 -0.28651797515E+02 -0.65218219077E+02  0.81168683410E+02  0.10807483133E+03  0.41800000000E+01 0.  1.
         -5    1    4    4    0  501 -0.24503229537E+02  0.24442720134E+02 -0.26709889689E+02  0.43917484360E+02  0.41800000000E+01 0.  1.
</event>
<event>
11    1  0.8864208E-009  0.1592879E+03  0.7561462E-02  0.1087749E+00
         22   -1    0    0    0    0  0.00000000000E+00  0.00000000000E+00  0.97184808723E+03  0.97184808723E+03  0.00000000000E+00 0. -1.
         22   -1    0    0    0    0 -0.00000000000E+00 -0.00000000000E+00 -0.28072070009E+03  0.28072070009E+03  0.00000000000E+00 0. -1.
         24    2    1    2    0    0  0.74760342058E+02 -0.65024469011E+02 -0.15345147537E+03  0.20026827947E+03  0.82114177548E+02 0.  0.
         25    2    1    2    0    0 -0.77665806164E+02  0.58993599283E+02 -0.40454418074E+02  0.16369804033E+03  0.12509303043E+03 0.  0.
        -24    2    1    2    0    0  0.29054641065E+01  0.60308697273E+01  0.88503328059E+03  0.88860246752E+03  0.79281929917E+02 0.  0.
        -11    1    3    3    0    0  0.53717563996E+01  0.16461886609E+02 -0.65504123156E+01  0.18513707869E+02  0.00000000000E+00 0.  1.
         12    1    3    3    0    0  0.69388585658E+02 -0.81486355620E+02 -0.14690106306E+03  0.18175457160E+03  0.00000000000E+00 0. -1.
         11    1    5    5    0    0 -0.23227354968E+02 -0.22854723517E+02  0.60451629621E+03  0.60539392199E+03  0.00000000000E+00 0. -1.
        -12    1    5    5    0    0  0.26132819074E+02  0.28885593245E+02  0.28051698439E+03  0.28320854553E+03  0.00000000000E+00 0.  1.
          5    1    4    4  501    0 -0.25603679127E+02  0.82640177373E+02  0.10172170629E+02  0.87211769598E+02  0.41800000000E+01 0. -1.
         -5    1    4    4    0  501 -0.52062127037E+02 -0.23646578089E+02 -0.50626588702E+02  0.76486270733E+02  0.41800000000E+01 0. -1.
</event>
<event>
11    1  0.8864208E-009  0.1263779E+03  0.7561462E-02  0.1123801E+00
         22   -1    0    0    0    0  0.00000000000E+00  0.00000000000E+00  0.30669869824E+03  0.30669869824E+03  0.00000000000E+00 0.  1.
         22   -1    0    0    0    0 -0.00000000000E+00 -0.00000000000E+00 -0.23918386687E+03  0.23918386687E+03  0.00000000000E+00 0. -1.
        -24    2    1    2    0    0  0.86279164370E+00 -0.68995033610E+00 -0.12013373478E+03  0.14307411297E+03  0.77697278765E+02 0.  0.
         25    2    1    2    0    0 -0.32236446514E+01  0.18412453523E+02 -0.61470676318E+02  0.14063437640E+03  0.12509985391E+03 0.  0.
         24    2    1    2    0    0  0.23608530077E+01 -0.17722503186E+02  0.24911924248E+03  0.26217407575E+03  0.79719434761E+02 0.  0.
        -13    1    5    5    0    0  0.13764448783E+02  0.16729409216E+02  0.19964570898E+03  0.20081768422E+03  0.00000000000E+00 0.  1.
         14    1    5    5    0    0 -0.11403595775E+02 -0.34451912402E+02  0.49473533497E+02  0.61356391529E+02  0.00000000000E+00 0. -1.
         13    1    3    3    0    0  0.23251121691E+02 -0.29995628691E+02 -0.80140068835E+02  0.88672335219E+02  0.00000000000E+00 0. -1.
        -14    1    3    3    0    0 -0.22388330047E+02  0.29305678355E+02 -0.39993665947E+02  0.54401777747E+02  0.00000000000E+00 0.  1.
          5    1    4    4  501    0  0.41246582678E+02 -0.34381214761E+02 -0.43371486470E+02  0.69151332233E+02  0.41800000000E+01 0.  1.
         -5    1    4    4    0  501 -0.44470227330E+02  0.52793668283E+02 -0.18099189848E+02  0.71483044162E+02  0.41800000000E+01 0.  1.
</event>
<event>
11    1  0.8864208E-009  0.1572622E+03  0.7561462E-02  0.1089681E+00
         22   -1    0    0    0    0  0.00000000000E+00  0.00000000000E+00  0.11493605675E+04  0.11493605675E+04  0.00000000000E+00 0.  1.
         22   -1    0    0    0    0 -0.00000000000E+00 -0.00000000000E+00 -0.39124655174E+03  0.39124655174E+03  0.00000000000E+00 0.  1.
         24    2    1    2    0    0 -0.24097149398E+02 -0.90318174053E+02 -0.30148485250E+03  0.33081431137E+03  0.99030031562E+02 0.  0.
         25    2    1    2    0    0  0.54464394807E+02  0.95747630729E+02  0.21154576184E+02  0.16801666248E+03  0.12509238061E+03 0.  0.
        -24    2    1    2    0    0 -0.30367245409E+02 -0.54294566760E+01  0.10384442920E+04  0.10417761454E+04  0.77326197000E+02 0.  0.
        -11    1    3    3    0    0 -0.36823145414E+02 -0.34300296630E+02 -0.24548512854E+03  0.25059010898E+03  0.00000000000E+00 0.  1.
         12    1    3    3    0    0  0.12725996017E+02 -0.56017877424E+02 -0.55999723959E+02  0.80224202390E+02  0.00000000000E+00 0. -1.
         13    1    5    5    0    0  0.14313768955E+02 -0.29270939428E+02  0.39408003540E+03  0.39542476678E+03  0.00000000000E+00 0. -1.
        -14    1    5    5    0    0 -0.44681014364E+02  0.23841482752E+02  0.64436425665E+03  0.64635137858E+03  0.00000000000E+00 0.  1.
          5    1    4    4  501    0  0.68365923343E+01 -0.28489243062E+02  0.18440867255E+02  0.34869957702E+02  0.41800000000E+01 0.  1.
         -5    1    4    4    0  501  0.47627802473E+02  0.12423687379E+03  0.27137089296E+01  0.13314670478E+03  0.41800000000E+01 0.  1.
</event>
<event>
11    1  0.8864208E-009  0.1662728E+03  0.7561462E-02  0.1081322E+00
         22   -1    0    0    0    0  0.00000000000E+00  0.00000000000E+00  0.79756134263E+02  0.79756134263E+02  0.00000000000E+00 0.  1.
         22   -1    0    0    0    0 -0.00000000000E+00 -0.00000000000E+00 -0.13855990831E+04  0.13855990831E+04  0.00000000000E+00 0. -1.
         24    2    1    2    0    0  0.88440898713E+02 -0.66542889882E+02 -0.98306957204E+03  0.99259946946E+03  0.81105946404E+02 0.  0.
         25    2    1    2    0    0 -0.13878535840E+03 -0.25603625630E+02 -0.26258439985E+03  0.32329100886E+03  0.12509831340E+03 0.  0.
        -24    2    1    2    0    0  0.50344459685E+02  0.92146515512E+02 -0.60188976899E+02  0.14946473899E+03  0.87700914022E+02 0.  0.
        -11    1    3    3    0    0 -0.73215488970E+01 -0.69392240387E+01 -0.15604433264E+02  0.18581072251E+02  0.00000000000E+00 0.  1.
         12    1    3    3    0    0  0.95762447610E+02 -0.59603665843E+02 -0.96746513878E+03  0.97401839721E+03  0.00000000000E+00 0. -1.
         13    1    5    5    0    0 -0.20095325454E+02  0.51136225485E+02 -0.18960829280E+02  0.58122703902E+02  0.00000000000E+00 0. -1.
        -14    1    5    5    0    0  0.70439785139E+02  0.41010290027E+02 -0.41228147619E+02  0.91342035091E+02  0.00000000000E+00 0.  1.
          5    1    4    4  501    0 -0.53577903235E+02 -0.19313645177E+02 -0.22084639916E+03  0.22811008971E+03  0.41800000000E+01 0. -1.
         -5    1    4    4    0  501 -0.85207455163E+02 -0.62899804526E+01 -0.41738000695E+02  0.95180919157E+02  0.41800000000E+01 0. -1.
</event>
<event>
11    1  0.8864208E-009  0.1366378E+03  0.7561462E-02  0.1111372E+00
         22   -1    0    0    0    0  0.00000000000E+00  0.00000000000E+00  0.19696083587E+04  0.19696083587E+04  0.00000000000E+00 0. -1.
         22   -1    0    0    0    0 -0.00000000000E+00 -0.00000000000E+00 -0.20173790396E+03  0.20173790396E+03  0.00000000000E+00 0.  1.
         24    2    1    2    0    0  0.25198139083E+02  0.20408652269E+02 -0.15054990918E+03  0.17377283980E+03  0.80500095626E+02 0.  0.
         25    2    1    2    0    0  0.30604015781E+02 -0.20196096997E+02  0.72561141859E+02  0.14918038911E+03  0.12508069824E+03 0.  0.
        -24    2    1    2    0    0 -0.55802154865E+02 -0.21255527206E+00  0.18458592221E+04  0.18483930338E+04  0.79035522914E+02 0.  0.
        -11    1    3    3    0    0  0.80400729801E+01 -0.17263490243E+02 -0.12202230773E+03  0.12349945123E+03  0.00000000000E+00 0.  1.
         12    1    3    3    0    0  0.17158066103E+02  0.37672142512E+02 -0.28527601447E+02  0.50273388568E+02  0.00000000000E+00 0. -1.
         11    1    5    5    0    0 -0.66735525602E+02  0.23053509478E+02  0.14270752924E+04  0.14288208372E+04  0.00000000000E+00 0. -1.
        -12    1    5    5    0    0  0.10933370737E+02 -0.23266064750E+02  0.41878392970E+03  0.41957219657E+03  0.00000000000E+00 0.  1.
          5    1    4    4  501    0  0.70145734829E+02  0.10163122823E+02  0.69033206335E+02  0.99029132870E+02  0.41800000000E+01 0. -1.
         -5    1    4    4    0  501 -0.39541719048E+02 -0.30359219820E+02  0.35279355247E+01  0.50151256239E+02  0.41800000000E+01 0. -1.
</event>
<event>
11    1  0.8864208E-009  0.1684693E+03  0.7561462E-02  0.1079371E+00
         22   -1    0    0    0    0  0.00000000000E+00  0.00000000000E+00  0.50148039990E+03  0.50148039990E+03  0.00000000000E+00 0.  1.
         22   -1    0    0    0    0 -0.00000000000E+00 -0.00000000000E+00 -0.54843873983E+03  0.54843873983E+03  0.00000000000E+00 0. -1.
        -24    2    1    2    0    0  0.27695846698E+01 -0.70979332083E+01 -0.48051379942E+03  0.48645592341E+03  0.75417522693E+02 0.  0.
         25    2    1    2    0    0  0.72353729248E+02  0.90356853879E+02  0.88873844575E+02  0.19221150080E+03  0.12508907870E+03 0.  0.
         24    2    1    2    0    0 -0.75123313918E+02 -0.83258920670E+02  0.34468161493E+03  0.37125171552E+03  0.80292343603E+02 0.  0.
        -13    1    5    5    0    0 -0.25331655495E+02 -0.25514013060E+02  0.23462154714E+03  0.23736033370E+03  0.00000000000E+00 0.  1.
         14    1    5    5    0    0 -0.49791658422E+02 -0.57744907610E+02  0.11006006779E+03  0.13389138181E+03  0.00000000000E+00 0. -1.
         11    1    3    3    0    0  0.10472175872E+02 -0.30861061952E+02 -0.41600138476E+03  0.41727595633E+03  0.00000000000E+00 0. -1.
        -12    1    3    3    0    0 -0.77025912023E+01  0.23763128744E+02 -0.64512414665E+02  0.69179967077E+02  0.00000000000E+00 0.  1.
          5    1    4    4  501    0  0.11302376302E+01  0.85254713852E+02  0.10344110789E+02  0.85989049879E+02  0.41800000000E+01 0.  1.
         -5    1    4    4    0  501  0.71223491618E+02  0.51021400271E+01  0.78529733786E+02  0.10622245092E+03  0.41800000000E+01 0.  1.
</event>
<event>
11    1  0.8864208E-009  0.1337403E+03  0.7561462E-02  0.1114757E+00
         22   -1    0    0    0    0  0.00000000000E+00  0.00000000000E+00  0.79879792929E+03  0.79879792929E+03  0.00000000000E+00 0. -1.
         22   -1    0    0    0    0 -0.00000000000E+00 -0.00000000000E+00 -0.15926896986E+04  0.15926896986E+04  0.00000000000E+00 0.  1.
        -24    2    1    2    0    0  0.26399317459E+02  0.39519652263E+02 -0.15633892786E+04  0.15660190982E+04  0.77272587579E+02 0.  0.
         25    2    1    2    0    0 -0.20288894262E+02 -0.10092654191E+02  0.13383749375E+03  0.18459509287E+03  0.12509745272E+03 0.  0.
         24    2    1    2    0    0 -0.61104231972E+01 -0.29426998072E+02  0.63566001549E+03  0.64087343682E+03  0.75840762370E+02 0.  0.
        -11    1    5    5    0    0 -0.32105191481E+02 -0.23280005668E+01  0.46586104376E+03  0.46697181392E+03  0.00000000000E+00 0.  1.
         12    1    5    5    0    0  0.25994768284E+02 -0.27098997505E+02  0.16979897173E+03  0.17390162290E+03  0.00000000000E+00 0. -1.
         13    1    3    3    0    0  0.38416985520E+02  0.91163239435E+01 -0.35522959249E+03  0.35741717295E+03  0.00000000000E+00 0. -1.
        -14    1    3    3    0    0 -0.12017668061E+02  0.30403328320E+02 -0.12081596861E+04  0.12086019253E+04  0.00000000000E+00 0.  1.
          5    1    4    4  501    0 -0.22653564423E+02  0.34145643537E+02  0.13390496547E+03  0.14009682769E+03  0.41800000000E+01 0.  1.
         -5    1    4    4    0  501  0.23646701613E+01 -0.44238297728E+02 -0.67471715491E-01  0.44498265172E+02  0.41800000000E+01 0.  1.
</event>
<event>
11    1  0.8864208E-009  0.1284920E+04  0.7561462E-02  0.8447049E-01
         22   -1    0    0    0    0  0.00000000000E+00  0.00000000000E+00  0.94658668284E+03  0.94658668284E+03  0.00000000000E+00 0.  1.
         22   -1    0    0    0    0 -0.00000000000E+00 -0.00000000000E+00 -0.43604561808E+03  0.43604561808E+03  0.00000000000E+00 0.  1.
        -24    2    1    2    0    0 -0.16949755799E+03  0.82486045661E+01 -0.13671571719E+02  0.18834247527E+03  0.80551315786E+02 0.  0.
         25    2    1    2    0    0  0.53859401053E+03 -0.26891728228E+03  0.29851130467E+03  0.68349079578E+03  0.12510258199E+03 0.  0.
         24    2    1    2    0    0 -0.36909645253E+03  0.26066867771E+03  0.22570133181E+03  0.51079902987E+03  0.76119688172E+02 0.  0.
        -13    1    5    5    0    0 -0.20203176300E+03  0.18471808194E+03  0.15125700449E+03  0.31275595033E+03  0.00000000000E+00 0.  1.
         14    1    5    5    0    0 -0.16706468953E+03  0.75950595770E+02  0.74444327316E+02  0.19804307955E+03  0.00000000000E+00 0. -1.
         11    1    3    3    0    0 -0.98759901310E+02  0.41670614301E+02  0.70069418140E+01  0.10741999552E+03  0.00000000000E+00 0. -1.
        -12    1    3    3    0    0 -0.70737656683E+02 -0.33422009735E+02 -0.20678513533E+02  0.80922479755E+02  0.00000000000E+00 0.  1.
          5    1    4    4  501    0  0.72072340539E+02 -0.78186606511E+02  0.22241528542E+02  0.10871856189E+03  0.41800000000E+01 0. -1.
         -5    1    4    4    0  501  0.46652166999E+03 -0.19073067577E+03  0.27626977613E+03  0.57477223389E+03  0.41800000000E+01 0. -1.
</event>
<event>
11    1  0.8864208E-009  0.1354059E+03  0.7561462E-02  0.1112800E+00
         22   -1    0    0    0    0  0.00000000000E+00  0.00000000000E+00  0.20656851483E+03  0.20656851483E+03  0.00000000000E+00 0. -1.
         22   -1    0    0    0    0 -0.00000000000E+00 -0.00000000000E+00 -0.52464046158E+03  0.52464046158E+03  0.00000000000E+00 0. -1.
        -24    2    1    2    0    0  0.21504595072E+02  0.32980061184E+02 -0.35778967075E+03  0.36874849049E+03  0.80074145004E+02 0.  0.
         25    2    1    2    0    0  0.28721013653E+02 -0.48754228717E+02 -0.11595945111E+03  0.17970759206E+03  0.12508538244E+03 0.  0.
         24    2    1    2    0    0 -0.50225608725E+02  0.15774167533E+02  0.15567717511E+03  0.18275289385E+03  0.79948741246E+02 0.  0.
        -11    1    5    5    0    0  0.20046797098E+02  0.68995700434E+01  0.60534101472E+02  0.64139345036E+02  0.00000000000E+00 0.  1.
         12    1    5    5    0    0 -0.70272405823E+02  0.88745974896E+01  0.95143073642E+02  0.11861354882E+03  0.00000000000E+00 0. -1.
         11    1    3    3    0    0 -0.27266376287E+02  0.29627448213E+02 -0.16936229300E+03  0.17408281722E+03  0.00000000000E+00 0. -1.
        -12    1    3    3    0    0  0.48770971360E+02  0.33526129712E+01 -0.18842737776E+03  0.19466567327E+03  0.00000000000E+00 0.  1.
          5    1    4    4  501    0  0.60728446334E+02 -0.62803724042E+02 -0.40385652619E+02  0.96336521035E+02  0.41800000000E+01 0.  1.
         -5    1    4    4    0  501 -0.32007432681E+02  0.14049495325E+02 -0.75573798489E+02  0.83371071025E+02  0.41800000000E+01 0.  1.
</event>
<event>
11    1  0.8864208E-009  0.5776594E+03  0.7561462E-02  0.9234986E-01
         22   -1    0    0    0    0  0.00000000000E+00  0.00000000000E+00  0.92531465298E+03  0.92531465298E+03  0.00000000000E+00 0.  1.
         22   -1    0    0    0    0 -0.00000000000E+00 -0.00000000000E+00 -0.90155925955E+02  0.90155925955E+02  0.00000000000E+00 0.  1.
         24    2    1    2    0    0 -0.17631626873E+02 -0.17834879704E+03  0.25855546397E+03  0.32513405135E+03  0.82110022080E+02 0.  0.
         25    2    1    2    0    0  0.11839136240E+02  0.24434298243E+03  0.40170319489E+03  0.48667886874E+03  0.12508879360E+03 0.  0.
        -24    2    1    2    0    0  0.57924906331E+01 -0.65994185394E+02  0.17490006816E+03  0.20365765884E+03  0.80607832793E+02 0.  0.
        -13    1    3    3    0    0 -0.44634456203E+02 -0.14993429703E+03  0.22165277372E+03  0.27129777036E+03  0.00000000000E+00 0.  1.
         14    1    3    3    0    0  0.27002829330E+02 -0.28414500015E+02  0.36902690249E+02  0.53836280987E+02  0.00000000000E+00 0. -1.
         13    1    5    5    0    0 -0.29437153280E+02 -0.11504279664E+02  0.24936187668E+02  0.40258016584E+02  0.00000000000E+00 0. -1.
        -14    1    5    5    0    0  0.35229643913E+02 -0.54489905729E+02  0.14996388049E+03  0.16339964226E+03  0.00000000000E+00 0.  1.
          5    1    4    4  501    0  0.78307627039E+01  0.26170209987E+02 -0.20526953479E+01  0.27710768547E+02  0.41800000000E+01 0.  1.
         -5    1    4    4    0  501  0.40083735362E+01  0.21817277245E+03  0.40375589024E+03  0.45896810019E+03  0.41800000000E+01 0.  1.
</event>
<event>
11    1  0.8864208E-009  0.1664759E+03  0.7561462E-02  0.1081140E+00
         22   -1    0    0    0    0  0.00000000000E+00  0.00000000000E+00  0.63606703156E+03  0.63606703156E+03  0.00000000000E+00 0. -1.
         22   -1    0    0    0    0 -0.00000000000E+00 -0.00000000000E+00 -0.50130161818E+03  0.50130161818E+03  0.00000000000E+00 0.  1.
        -24    2    1    2    0    0  0.10623707766E+02  0.10516216589E+03 -0.36179370256E+03  0.38548805380E+03  0.80835710599E+02 0.  0.
         25    2    1    2    0    0 -0.25395530720E+02 -0.13145756525E+03 -0.57050486962E+02  0.19190976841E+03  0.12509427129E+03 0.  0.
         24    2    1    2    0    0  0.14771822954E+02  0.26295399361E+02  0.55360960290E+03  0.55997082753E+03  0.78575317195E+02 0.  0.
        -11    1    5    5    0    0  0.89031691957E+01 -0.17718162723E+02  0.42084069790E+02  0.46521700765E+02  0.00000000000E+00 0.  1.
         12    1    5    5    0    0  0.58686537583E+01  0.44013562084E+02  0.51152553311E+03  0.51344912676E+03  0.00000000000E+00 0. -1.
         13    1    3    3    0    0  0.46057055991E+02  0.61401987593E+02 -0.20754345122E+03  0.22128203865E+03  0.00000000000E+00 0. -1.
        -14    1    3    3    0    0 -0.35433348224E+02  0.43760178293E+02 -0.15425025134E+03  0.16420601515E+03  0.00000000000E+00 0.  1.
          5    1    4    4  501    0 -0.10274461421E+02  0.22106745668E+02  0.55283337912E+01  0.25343788904E+02  0.41800000000E+01 0. -1.
         -5    1    4    4    0  501 -0.15121069300E+02 -0.15356431091E+03 -0.62578820754E+02  0.16656597951E+03  0.41800000000E+01 0. -1.
</event>
<event>
11    1  0.8864208E-009  0.1395307E+03  0.7561462E-02  0.1108084E+00
         22   -1    0    0    0    0  0.00000000000E+00  0.00000000000E+00  0.45177808347E+03  0.45177808347E+03  0.00000000000E+00 0. -1.
         22   -1    0    0    0    0 -0.00000000000E+00 -0.00000000000E+00 -0.87692175858E+03  0.87692175858E+03  0.00000000000E+00 0.  1.
         24    2    1    2    0    0  0.32610558052E+02  0.54573699229E+02 -0.74901062159E+03  0.75612309899E+03  0.81630217631E+02 0.  0.
         25    2    1    2    0    0 -0.24653694068E+00 -0.49584846504E+02 -0.82078572571E+02  0.15761740270E+03  0.12509051034E+03 0.  0.
        -24    2    1    2    0    0 -0.32364021112E+02 -0.49888527253E+01  0.40594551906E+03  0.41495934035E+03  0.79543517555E+02 0.  0.
        -13    1    3    3    0    0 -0.12504812588E+02  0.54170314417E+02 -0.32521985860E+03  0.32993749367E+03  0.00000000000E+00 0.  1.
         14    1    3    3    0    0  0.45115370640E+02  0.40338481132E+00 -0.42379076299E+03  0.42618560532E+03  0.00000000000E+00 0. -1.
         13    1    5    5    0    0 -0.14310390272E+02  0.30433713913E+02  0.29859734154E+03  0.30048522523E+03  0.00000000000E+00 0. -1.
        -14    1    5    5    0    0 -0.18053630840E+02 -0.35422566638E+02  0.10734817753E+03  0.11447411512E+03  0.00000000000E+00 0.  1.
          5    1    4    4  501    0  0.44383675558E+02 -0.63594647661E+02 -0.20779134409E+02  0.80395489264E+02  0.41800000000E+01 0. -1.
         -5    1    4    4    0  501 -0.44630212499E+02  0.14009801157E+02 -0.61299438162E+02  0.77221913438E+02  0.41800000000E+01 0. -1.
</event>
<event>
11    1  0.8864208E-009  0.1460484E+03  0.7561462E-02  0.1100986E+00
         22   -1    0    0    0    0  0.00000000000E+00  0.00000000000E+00  0.41373670315E+03  0.41373670315E+03  0.00000000000E+00 0.  1.
         22   -1    0    0    0    0 -0.00000000000E+00 -0.00000000000E+00 -0.37789321259E+03  0.37789321259E+03  0.00000000000E+00 0.  1.
         24    2    1    2    0    0  0.28253182118E+02 -0.71107455980E+02 -0.32518817661E+03  0.34390057662E+03  0.81644006528E+02 0.  0.
         25    2    1    2    0    0 -0.53876042213E+02  0.40771932192E+02  0.10618385331E+03  0.17744570908E+03  0.12508793141E+03 0.  0.
        -24    2    1    2    0    0  0.25622860095E+02  0.30335523788E+02  0.25484781385E+03  0.27028363005E+03  0.80802583405E+02 0.  0.
        -13    1    3    3    0    0 -0.33656545343E+01 -0.64156938575E+02 -0.28571874524E+03  0.29285259394E+03  0.00000000000E+00 0.  1.
         14    1    3    3    0    0  0.31618836652E+02 -0.69505174053E+01 -0.39469431368E+02  0.51047982683E+02  0.00000000000E+00 0. -1.
         13    1    5    5    0    0  0.18365752646E+02  0.17771546124E+02  0.14273535858E+02  0.29272214604E+02  0.00000000000E+00 0. -1.
        -14    1    5    5    0    0  0.72571074492E+01  0.12563977663E+02  0.24057427799E+03  0.24101141545E+03  0.00000000000E+00 0.  1.
          5    1    4    4  501    0  0.22562611153E+02  0.16301207404E+01 -0.16015169791E+02  0.28030104871E+02  0.41800000000E+01 0.  1.
         -5    1    4    4    0  501 -0.76438653366E+02  0.39141811452E+02  0.12219902310E+03  0.14941560420E+03  0.41800000000E+01 0.  1.
</event>
<event>
11    1  0.8864208E-009  0.1321084E+03  0.7561462E-02  0.1116705E+00
         22   -1    0    0    0    0  0.00000000000E+00  0.00000000000E+00  0.14322632963E+03  0.14322632963E+03  0.00000000000E+00 0.  1.
         22   -1    0    0    0    0 -0.00000000000E+00 -0.00000000000E+00 -0.33587621224E+03  0.33587621224E+03  0.00000000000E+00 0.  1.
        -24    2    1    2    0    0  0.45259369513E+02  0.75664006571E+01 -0.15512101340E+03  0.18026932648E+03  0.79554008858E+02 0.  0.
         25    2    1    2    0    0 -0.36153320726E+02  0.17969756987E+02 -0.12212202305E+03  0.17942030789E+03  0.12509150093E+03 0.  0.
         24    2    1    2    0    0 -0.91060487864E+01 -0.25536157644E+02  0.84593153835E+02  0.11941290750E+03  0.79802414319E+02 0.  0.
        -13    1    5    5    0    0  0.13474706472E+02 -0.43807761766E+02  0.76635263410E+02  0.89295303927E+02  0.00000000000E+00 0.  1.
         14    1    5    5    0    0 -0.22580755258E+02  0.18271604122E+02  0.79578904246E+01  0.30117603577E+02  0.00000000000E+00 0. -1.
         13    1    3    3    0    0 -0.13893348618E+02 -0.92068673182E+01 -0.40304859847E+01  0.17147488414E+02  0.00000000000E+00 0. -1.
        -14    1    3    3    0    0  0.59152718131E+02  0.16773267975E+02 -0.15109052741E+03  0.16312183807E+03  0.00000000000E+00 0.  1.
          5    1    4    4  501    0 -0.50297758687E+02  0.48019874589E+02 -0.12771684973E+03  0.14548140427E+03  0.41800000000E+01 0. -1.
         -5    1    4    4    0  501  0.14144437960E+02 -0.30050117602E+02  0.55948266806E+01  0.33938903617E+02  0.41800000000E+01 0. -1.
</event>
<event>
11    1  0.8864208E-009  0.1348366E+03  0.7561462E-02  0.1113465E+00
         22   -1    0    0    0    0  0.00000000000E+00  0.00000000000E+00  0.15011060013E+03  0.15011060013E+03  0.00000000000E+00 0.  1.
         22   -1    0    0    0    0 -0.00000000000E+00 -0.00000000000E+00 -0.13573327003E+04  0.13573327003E+04  0.00000000000E+00 0.  1.
         24    2    1    2    0    0 -0.28852463123E+02 -0.22320417034E+02 -0.74925829538E+03  0.75455599788E+03  0.81462231059E+02 0.  0.
         25    2    1    2    0    0  0.49922575062E+02  0.67080975025E+02 -0.57987856457E+03  0.59908191729E+03  0.12509145963E+03 0.  0.
        -24    2    1    2    0    0 -0.21070111939E+02 -0.44760557991E+02  0.12191475983E+03  0.15380538521E+03  0.79658211678E+02 0.  0.
        -11    1    3    3    0    0  0.12175466441E+01 -0.10256056751E+02 -0.65123424875E+03  0.65131614126E+03  0.00000000000E+00 0.  1.
         12    1    3    3    0    0 -0.30070009767E+02 -0.12064360283E+02 -0.98024046632E+02  0.10323985662E+03  0.00000000000E+00 0. -1.
         11    1    5    5    0    0  0.18201747772E+02 -0.26473915735E+02  0.97636122837E+01  0.33578266202E+02  0.00000000000E+00 0. -1.
        -12    1    5    5    0    0 -0.39271859711E+02 -0.18286642256E+02  0.11215114755E+03  0.12022711901E+03  0.00000000000E+00 0.  1.
          5    1    4    4  501    0 -0.48985497720E+01 -0.26232481169E+02 -0.25928076545E+03  0.26068395921E+03  0.41800000000E+01 0.  1.
         -5    1    4    4    0  501  0.54821124834E+02  0.93313456194E+02 -0.32059779911E+03  0.33839795808E+03  0.41800000000E+01 0.  1.
</event>
<event>
11    1  0.8864208E-009  0.1586020E+03  0.7561462E-02  0.1088400E+00
         22   -1    0    0    0    0  0.00000000000E+00  0.00000000000E+00  0.19532420295E+04  0.19532420295E+04  0.00000000000E+00 0.  1.
         22   -1    0    0    0    0 -0.00000000000E+00 -0.00000000000E+00 -0.31328793026E+02  0.31328793026E+02  0.00000000000E+00 0.  1.
         24    2    1    2    0    0  0.62189102728E+02 -0.41030646311E+02  0.16143964929E+03  0.19694283925E+03  0.84691930744E+02 0.  0.
         25    2    1    2    0    0  0.21902092666E+02  0.10094046605E+03  0.67836604838E+03  0.69749316679E+03  0.12509013861E+03 0.  0.
        -24    2    1    2    0    0 -0.84091195394E+02 -0.59909819734E+02  0.10821075388E+04  0.10901348165E+04  0.82320574219E+02 0.  0.
        -11    1    3    3    0    0  0.55139375087E+02 -0.64992032352E+02  0.10510544294E+03  0.13531987692E+03  0.00000000000E+00 0.  1.
         12    1    3    3    0    0  0.70497276406E+01  0.23961386041E+02  0.56334206349E+02  0.61622962326E+02  0.00000000000E+00 0. -1.
         11    1    5    5    0    0 -0.52585626679E+02  0.11451056598E+02  0.47343361277E+03  0.47648269699E+03  0.00000000000E+00 0. -1.
        -12    1    5    5    0    0 -0.31505568715E+02 -0.71360876332E+02  0.60867392607E+03  0.61365211953E+03  0.00000000000E+00 0.  1.
          5    1    4    4  501    0 -0.26812150541E+02  0.15774993002E+02  0.36420740288E+02  0.48079980699E+02  0.41800000000E+01 0. -1.
         -5    1    4    4    0  501  0.48714243207E+02  0.85165473043E+02  0.64194530809E+03  0.64941318609E+03  0.41800000000E+01 0. -1.
</event>
<event>
11    1  0.8864208E-009  0.3336811E+03  0.7561462E-02  0.9868651E-01
         22   -1    0    0    0    0  0.00000000000E+00  0.00000000000E+00  0.25629815953E+04  0.25629815953E+04  0.00000000000E+00 0. -1.
         22   -1    0    0    0    0 -0.00000000000E+00 -0.00000000000E+00 -0.10679327885E+03  0.10679327885E+03  0.00000000000E+00 0. -1.
         24    2    1    2    0    0 -0.21191315507E+03 -0.24027698639E+03  0.22204336442E+03  0.39738123748E+03  0.77255269989E+02 0.  0.
         25    2    1    2    0    0  0.15867570692E+03  0.18335134694E+03  0.18683577477E+04  0.18881746874E+04  0.12508908824E+03 0.  0.
        -24    2    1    2    0    0  0.53237448142E+02  0.56925639453E+02  0.36578720428E+03  0.38421894932E+03  0.88029358104E+02 0.  0.
        -11    1    3    3    0    0 -0.14722813905E+03 -0.18597893623E+03  0.12291854791E+03  0.26715774192E+03  0.00000000000E+00 0.  1.
         12    1    3    3    0    0 -0.64685016020E+02 -0.54298050166E+02  0.99124816505E+02  0.13022349556E+03  0.00000000000E+00 0. -1.
         11    1    5    5    0    0  0.50576937873E+02 -0.59195079859E+01  0.11696283205E+03  0.12756712469E+03  0.00000000000E+00 0. -1.
        -12    1    5    5    0    0  0.26605102688E+01  0.62845147439E+02  0.24882437223E+03  0.25665182463E+03  0.00000000000E+00 0.  1.
          5    1    4    4  501    0  0.16115772297E+03  0.19545347770E+03  0.16410237733E+04  0.16604669134E+04  0.41800000000E+01 0. -1.
         -5    1    4    4    0  501 -0.24820160462E+01 -0.12102130757E+02  0.22733397445E+03  0.22770777394E+03  0.41800000000E+01 0. -1.
</event>
<event>
11    1  0.8864208E-009  0.1412355E+03  0.7561462E-02  0.1106187E+00
         22   -1    0    0    0    0  0.00000000000E+00  0.00000000000E+00  0.11092221446E+04  0.11092221446E+04  0.00000000000E+00 0. -1.
         22   -1    0    0    0    0 -0.00000000000E+00 -0.00000000000E+00 -0.11215143823E+03  0.11215143823E+03  0.00000000000E+00 0. -1.
        -24    2    1    2    0    0  0.56568539858E+02 -0.38978754116E+02 -0.56895009254E+02  0.12275202385E+03  0.84330743546E+02 0.  0.
         25    2    1    2    0    0 -0.16825109281E+02  0.50669964366E+02  0.21184488572E+03  0.25174650460E+03  0.12509003711E+03 0.  0.
         24    2    1    2    0    0 -0.39743430576E+02 -0.11691210250E+02  0.84212082994E+03  0.84687505442E+03  0.79458422519E+02 0.  0.
        -11    1    5    5    0    0 -0.53244148076E+02  0.86333128383E+01  0.34831362988E+03  0.35246539994E+03  0.00000000000E+00 0.  1.
         12    1    5    5    0    0  0.13500717500E+02 -0.20324523089E+02  0.49380720006E+03  0.49440965448E+03  0.00000000000E+00 0. -1.
         13    1    3    3    0    0  0.17088410487E+01 -0.45636224237E+02 -0.48909607736E+02  0.66915878753E+02  0.00000000000E+00 0. -1.
        -14    1    3    3    0    0  0.54859698809E+02  0.66574701217E+01 -0.79854015182E+01  0.55836145097E+02  0.00000000000E+00 0.  1.
          5    1    4    4  501    0  0.12903622934E+02  0.87322092288E+02  0.13035980143E+03  0.15748905205E+03  0.41800000000E+01 0.  1.
         -5    1    4    4    0  501 -0.29728732216E+02 -0.36652127922E+02  0.81485084290E+02  0.94257452555E+02  0.41800000000E+01 0.  1.
</event>
<event>
11    1  0.8864208E-009  0.1393932E+03  0.7561462E-02  0.1108238E+00
         22   -1    0    0    0    0  0.00000000000E+00  0.00000000000E+00  0.31863365370E+03  0.31863365370E+03  0.00000000000E+00 0. -1.
         22   -1    0    0    0    0 -0.00000000000E+00 -0.00000000000E+00 -0.32100859307E+03  0.32100859307E+03  0.00000000000E+00 0.  1.
        -24    2    1    2    0    0 -0.53240165700E+02  0.30137531492E+02 -0.24008100121E+03  0.25947980550E+03  0.77123902054E+02 0.  0.
         25    2    1    2    0    0  0.70949209239E+02 -0.32002046741E+01  0.19472278804E+02  0.14516096802E+03  0.12509398623E+03 0.  0.
         24    2    1    2    0    0 -0.17709043539E+02 -0.26937326818E+02  0.21823378304E+03  0.23500147325E+03  0.80996781237E+02 0.  0.
        -11    1    5    5    0    0 -0.14558666431E+02  0.26616225923E+02  0.50650843492E+02  0.59041393929E+02  0.00000000000E+00 0.  1.
         12    1    5    5    0    0 -0.31503771084E+01 -0.53553552741E+02  0.16758293955E+03  0.17596007932E+03  0.00000000000E+00 0. -1.
         11    1    3    3    0    0  0.78607700289E+01 -0.15243117347E+02 -0.85193381919E+02  0.86902569897E+02  0.00000000000E+00 0. -1.
        -12    1    3    3    0    0 -0.61100935729E+02  0.45380648839E+02 -0.15488761930E+03  0.17257723560E+03  0.00000000000E+00 0.  1.
          5    1    4    4  501    0  0.43901718217E+02  0.53181555246E+02  0.39227949768E+02  0.79447738317E+02  0.41800000000E+01 0. -1.
         -5    1    4    4    0  501  0.27047491022E+02 -0.56381759920E+02 -0.19755670964E+02  0.65713229699E+02  0.41800000000E+01 0. -1.
</event>
<event>
11    1  0.8864208E-009  0.1432883E+03  0.7561462E-02  0.1103941E+00
         22   -1    0    0    0    0  0.00000000000E+00  0.00000000000E+00  0.20426951942E+03  0.20426951942E+03  0.00000000000E+00 0.  1.
         22   -1    0    0    0    0 -0.00000000000E+00 -0.00000000000E+00 -0.11226120360E+04  0.11226120360E+04  0.00000000000E+00 0.  1.
        -24    2    1    2    0    0 -0.46050055862E+02 -0.58484654317E+02 -0.95964435644E+03  0.96551283249E+03  0.75872764701E+02 0.  0.
         25    2    1    2    0    0 -0.14756597378E+02  0.92713844847E+01 -0.11342538944E+03  0.16975405724E+03  0.12508958887E+03 0.  0.
         24    2    1    2    0    0  0.60806653239E+02  0.49213269832E+02  0.15472722925E+03  0.19161466574E+03  0.81585964771E+02 0.  0.
        -11    1    5    5    0    0  0.11653272990E+02  0.58047580348E+02  0.10829918043E+03  0.12342622427E+03  0.00000000000E+00 0.  1.
         12    1    5    5    0    0  0.49153380249E+02 -0.88343105165E+01  0.46428048820E+02  0.68188441465E+02  0.00000000000E+00 0. -1.
         13    1    3    3    0    0 -0.54979981563E+02 -0.86938342540E+01 -0.51636245463E+03  0.51935398880E+03  0.00000000000E+00 0. -1.
        -14    1    3    3    0    0  0.89299257016E+01 -0.49790820063E+02 -0.44328190181E+03  0.44615884369E+03  0.00000000000E+00 0.  1.
          5    1    4    4  501    0  0.18524572580E+02  0.59717826668E+02 -0.39079108790E+02  0.73851389662E+02  0.41800000000E+01 0.  1.
         -5    1    4    4    0  501 -0.33281169957E+02 -0.50446442183E+02 -0.74346280651E+02  0.95902667582E+02  0.41800000000E+01 0.  1.
</event>
<event>
11    1  0.8864208E-009  0.1588708E+03  0.7561462E-02  0.1088144E+00
         22   -1    0    0    0    0  0.00000000000E+00  0.00000000000E+00  0.64068692263E+03  0.64068692263E+03  0.00000000000E+00 0.  1.
         22   -1    0    0    0    0 -0.00000000000E+00 -0.00000000000E+00 -0.12851532448E+04  0.12851532448E+04  0.00000000000E+00 0. -1.
         24    2    1    2    0    0  0.10258673968E+02 -0.64207113739E+02 -0.12055019732E+04  0.12099897724E+04  0.81316960771E+02 0.  0.
         25    2    1    2    0    0 -0.50723352466E+02 -0.30635935204E+02 -0.16767058619E+01  0.13842638254E+03  0.12509049935E+03 0.  0.
        -24    2    1    2    0    0  0.40464678497E+02  0.94843048943E+02  0.56271235691E+03  0.57742401245E+03  0.78362614770E+02 0.  0.
        -13    1    3    3    0    0 -0.10092400523E+02  0.10595884503E+02 -0.50488554751E+03  0.50509756028E+03  0.00000000000E+00 0.  1.
         14    1    3    3    0    0  0.20351074491E+02 -0.74802998241E+02 -0.70061642571E+03  0.70489221215E+03  0.00000000000E+00 0. -1.
         13    1    5    5    0    0  0.32181611721E+02  0.15455547671E+02  0.31859308329E+03  0.32058709083E+03  0.00000000000E+00 0. -1.
        -14    1    5    5    0    0  0.82830667765E+01  0.79387501272E+02  0.24411927363E+03  0.25683692162E+03  0.00000000000E+00 0.  1.
          5    1    4    4  501    0 -0.28781214748E+02 -0.53012821482E+02  0.49585507547E+02  0.78197906127E+02  0.41800000000E+01 0. -1.
         -5    1    4    4    0  501 -0.21942137718E+02  0.22376886279E+02 -0.51262213409E+02  0.60228476411E+02  0.41800000000E+01 0. -1.
</event>
<event>
11    1  0.8864208E-009  0.1300495E+03  0.7561462E-02  0.1119208E+00
         22   -1    0    0    0    0  0.00000000000E+00  0.00000000000E+00  0.32139046610E+03  0.32139046610E+03  0.00000000000E+00 0.  1.
         22   -1    0    0    0    0 -0.00000000000E+00 -0.00000000000E+00 -0.47842495559E+03  0.47842495559E+03  0.00000000000E+00 0. -1.
        -24    2    1    2    0    0 -0.10799232748E+02 -0.40201808180E+02 -0.31503741088E+03  0.32865560880E+03  0.83863759362E+02 0.  0.
         25    2    1    2    0    0 -0.15977361713E+02  0.15172528060E+02 -0.12276500712E+03  0.17664880251E+03  0.12509224899E+03 0.  0.
         24    2    1    2    0    0  0.26776594462E+02  0.25029280120E+02  0.28076792850E+03  0.29451101038E+03  0.81010213450E+02 0.  0.
        -13    1    5    5    0    0  0.55730688817E+02  0.15609480499E+02  0.16724832612E+03  0.17697900482E+03  0.00000000000E+00 0.  1.
         14    1    5    5    0    0 -0.28954094355E+02  0.94197996204E+01  0.11351960239E+03  0.11753200556E+03  0.00000000000E+00 0. -1.
         13    1    3    3    0    0  0.28104691699E+02  0.95457082074E+00 -0.18060088188E+03  0.18277708674E+03  0.00000000000E+00 0. -1.
        -14    1    3    3    0    0 -0.38903924447E+02 -0.41156379001E+02 -0.13443652900E+03  0.14587852206E+03  0.00000000000E+00 0.  1.
          5    1    4    4  501    0 -0.18691029156E+02 -0.48910830083E+01  0.22482864372E+02  0.29937081593E+02  0.41800000000E+01 0.  1.
         -5    1    4    4    0  501  0.27136674430E+01  0.20063611069E+02 -0.14524787150E+03  0.14671172092E+03  0.41800000000E+01 0.  1.
</event>
<event>
11    1  0.8864208E-009  0.1774672E+03  0.7561462E-02  0.1071710E+00
         22   -1    0    0    0    0  0.00000000000E+00  0.00000000000E+00  0.23235302297E+03  0.23235302297E+03  0.00000000000E+00 0. -1.
         22   -1    0    0    0    0 -0.00000000000E+00 -0.00000000000E+00 -0.65728692626E+03  0.65728692626E+03  0.00000000000E+00 0.  1.
        -24    2    1    2    0    0  0.23149906155E+02  0.17495224135E+02 -0.25960287280E+03  0.27410810580E+03  0.83063837343E+02 0.  0.
         25    2    1    2    0    0 -0.13764220140E+03  0.32285908997E+02 -0.33774418224E+03  0.38691903887E+03  0.12508978565E+03 0.  0.
         24    2    1    2    0    0  0.11449229524E+03 -0.49781133132E+02  0.17241315175E+03  0.22861280456E+03  0.83371893512E+02 0.  0.
        -11    1    5    5    0    0 -0.88875720836E+01 -0.13659822553E+02  0.43936061473E+02  0.46861041255E+02  0.00000000000E+00 0.  1.
         12    1    5    5    0    0  0.12337986733E+03 -0.36121310580E+02  0.12847709028E+03  0.18175176331E+03  0.00000000000E+00 0. -1.
         11    1    3    3    0    0  0.18183866866E+02 -0.19579025665E+02 -0.25165817803E+02  0.36705716801E+02  0.00000000000E+00 0. -1.
        -12    1    3    3    0    0  0.49660392886E+01  0.37074249800E+02 -0.23443705500E+03  0.23740238899E+03  0.00000000000E+00 0.  1.
          5    1    4    4  501    0  0.34508160924E+01  0.44827761762E+02 -0.10694063874E+03  0.11608276776E+03  0.41800000000E+01 0. -1.
         -5    1    4    4    0  501 -0.14109301749E+03 -0.12541852764E+02 -0.23080354350E+03  0.27083627111E+03  0.41800000000E+01 0. -1.
</event>
<event>
11    1  0.8864208E-009  0.1270852E+03  0.7561462E-02  0.1122903E+00
         22   -1    0    0    0    0  0.00000000000E+00  0.00000000000E+00  0.19280539086E+04  0.19280539086E+04  0.00000000000E+00 0. -1.
         22   -1    0    0    0    0 -0.00000000000E+00 -0.00000000000E+00 -0.76540628334E+02  0.76540628334E+02  0.00000000000E+00 0. -1.
        -24    2    1    2    0    0  0.41805442327E+00  0.22258476705E+02 -0.36834360402E+02  0.94528922275E+02  0.84162536117E+02 0.  0.
         25    2    1    2    0    0  0.94657901008E+01 -0.24774846585E+02  0.39242656943E+03  0.41273433112E+03  0.12509045321E+03 0.  0.
         24    2    1    2    0    0 -0.98838445241E+01  0.25163698801E+01  0.14959210712E+04  0.14973312835E+04  0.64164622592E+02 0.  0.
        -11    1    5    5    0    0 -0.26590141648E+02 -0.10308594434E+02  0.33283771613E+03  0.33405725263E+03  0.00000000000E+00 0.  1.
         12    1    5    5    0    0  0.16706297124E+02  0.12824964315E+02  0.11630833551E+04  0.11632740309E+04  0.00000000000E+00 0. -1.
         11    1    3    3    0    0 -0.11536602241E+02 -0.14071450406E+01 -0.58899245412E+02  0.60034942813E+02  0.00000000000E+00 0. -1.
        -12    1    3    3    0    0  0.11954656665E+02  0.23665621746E+02  0.22064885011E+02  0.34493979462E+02  0.00000000000E+00 0.  1.
          5    1    4    4  501    0  0.67045814667E+02 -0.92831941769E+01  0.19483435461E+03  0.20629885384E+03  0.41800000000E+01 0. -1.
         -5    1    4    4    0  501 -0.57580024566E+02 -0.15491652408E+02  0.19759221482E+03  0.20643547729E+03  0.41800000000E+01 0. -1.
</event>
<event>
11    1  0.8864208E-009  0.1763651E+03  0.7561462E-02  0.1072622E+00
         22   -1    0    0    0    0  0.00000000000E+00  0.00000000000E+00  0.15063834650E+04  0.15063834650E+04  0.00000000000E+00 0. -1.
         22   -1    0    0    0    0 -0.00000000000E+00 -0.00000000000E+00 -0.14794897900E+03  0.14794897900E+03  0.00000000000E+00 0. -1.
        -24    2    1    2    0    0  0.82385614382E+02  0.69359651816E+02  0.18150788359E+03  0.22675223910E+03  0.82905460465E+02 0.  0.
         25    2    1    2    0    0 -0.20341042503E+03 -0.75608853419E+02  0.90688583075E+01  0.25064889802E+03  0.12510046427E+03 0.  0.
         24    2    1    2    0    0  0.12102481065E+03  0.62492016040E+01  0.11678577441E+04  0.11769313069E+04  0.81175940542E+02 0.  0.
        -13    1    5    5    0    0  0.47976005374E+02  0.21982985476E+02  0.78971106479E+03  0.79147237134E+03  0.00000000000E+00 0.  1.
         14    1    5    5    0    0  0.73048805274E+02 -0.15733783872E+02  0.37814667930E+03  0.38545893552E+03  0.00000000000E+00 0. -1.
         11    1    3    3    0    0  0.75192694929E+02  0.87893629767E+02  0.14869379739E+03  0.18838544770E+03  0.00000000000E+00 0. -1.
        -12    1    3    3    0    0  0.71929194536E+01 -0.18533977952E+02  0.32814086197E+02  0.38366791395E+02  0.00000000000E+00 0.  1.
          5    1    4    4  501    0 -0.21455655271E+03 -0.79481965154E+02 -0.85879968224E+01  0.22900463573E+03  0.41800000000E+01 0. -1.
         -5    1    4    4    0  501  0.11146127684E+02  0.38731117343E+01  0.17656855130E+02  0.21644262287E+02  0.41800000000E+01 0. -1.
</event>
<event>
11    1  0.8864208E-009  0.1582645E+03  0.7561462E-02  0.1088721E+00
         22   -1    0    0    0    0  0.00000000000E+00  0.00000000000E+00  0.11219560787E+03  0.11219560787E+03  0.00000000000E+00 0.  1.
         22   -1    0    0    0    0 -0.00000000000E+00 -0.00000000000E+00 -0.50870445854E+03  0.50870445854E+03  0.00000000000E+00 0.  1.
         24    2    1    2    0    0 -0.48345918528E+02  0.76000150288E+02 -0.25290378399E+03  0.28071230261E+03  0.82010500531E+02 0.  0.
         25    2    1    2    0    0  0.10452956220E+03 -0.66734988565E+02 -0.16099472590E+03  0.23863543000E+03  0.12509028183E+03 0.  0.
        -24    2    1    2    0    0 -0.56183643676E+02 -0.92651617228E+01  0.17389659231E+02  0.10155233379E+03  0.82268044903E+02 0.  0.
        -11    1    3    3    0    0 -0.39236371419E+02  0.71521604255E+02 -0.25709734133E+03  0.26972926359E+03  0.00000000000E+00 0.  1.
         12    1    3    3    0    0 -0.91095471090E+01  0.44785460332E+01  0.41935573345E+01  0.10983039025E+02  0.00000000000E+00 0. -1.
         13    1    5    5    0    0 -0.75167865057E+02 -0.70117189723E+01 -0.31666118953E+00  0.75494850251E+02  0.00000000000E+00 0. -1.
        -14    1    5    5    0    0  0.18984221381E+02 -0.22534427505E+01  0.17706320421E+02  0.26057483541E+02  0.00000000000E+00 0.  1.
          5    1    4    4  501    0  0.55004060306E+02 -0.77681270347E+02 -0.32890666296E+02  0.10079233474E+03  0.41800000000E+01 0. -1.
         -5    1    4    4    0  501  0.49525501898E+02  0.10946281781E+02 -0.12810405961E+03  0.13784309526E+03  0.41800000000E+01 0. -1.
</event>
<event>
11    1  0.8864208E-009  0.1799184E+03  0.7561462E-02  0.1069709E+00
         22   -1    0    0    0    0  0.00000000000E+00  0.00000000000E+00  0.17203200525E+04  0.17203200525E+04  0.00000000000E+00 0. -1.
         22   -1    0    0    0    0 -0.00000000000E+00 -0.00000000000E+00 -0.95752345529E+03  0.95752345529E+03  0.00000000000E+00 0. -1.
         24    2    1    2    0    0 -0.45245658992E+02 -0.11985711532E+03 -0.87083272209E+03  0.88409678968E+03  0.82852917326E+02 0.  0.
         25    2    1    2    0    0  0.14212046348E+03  0.11370635357E+03  0.79852249071E+02  0.23484279205E+03  0.12508954519E+03 0.  0.
        -24    2    1    2    0    0 -0.96874804484E+02  0.61507617488E+01  0.15537770703E+04  0.15589039261E+04  0.80843720022E+02 0.  0.
        -13    1    3    3    0    0  0.17517233916E+02 -0.96422359123E+01 -0.22774753291E+03  0.22862363164E+03  0.00000000000E+00 0.  1.
         14    1    3    3    0    0 -0.62762892908E+02 -0.11021487941E+03 -0.64308518918E+03  0.65547315804E+03  0.00000000000E+00 0. -1.
         13    1    5    5    0    0 -0.89215497978E+02 -0.14827326854E+02  0.14466282291E+04  0.14494524787E+04  0.00000000000E+00 0. -1.
        -14    1    5    5    0    0 -0.76593065062E+01  0.20978088603E+02  0.10714884116E+03  0.10945144741E+03  0.00000000000E+00 0.  1.
          5    1    4    4  501    0  0.99073772021E+02  0.88876221880E+00  0.46333057195E+02  0.10945604958E+03  0.41800000000E+01 0. -1.
         -5    1    4    4    0  501  0.43046691456E+02  0.11281759135E+03  0.33519191876E+02  0.12538674247E+03  0.41800000000E+01 0. -1.
</event>
<event>
11    1  0.8864208E-009  0.1368838E+03  0.7561462E-02  0.1111089E+00
         22   -1    0    0    0    0  0.00000000000E+00  0.00000000000E+00  0.13422060234E+04  0.13422060234E+04  0.00000000000E+00 0. -1.
         22   -1    0    0    0    0 -0.00000000000E+00 -0.00000000000E+00 -0.16065809888E+03  0.16065809888E+03  0.00000000000E+00 0.  1.
         24    2    1    2    0    0  0.47919854683E+02  0.27481823563E+02 -0.10326748787E+03  0.14216409780E+03  0.80590902423E+02 0.  0.
         25    2    1    2    0    0 -0.55681315846E+02 -0.18839431367E+02  0.94044806029E+02  0.16717736778E+03  0.12509401923E+03 0.  0.
        -24    2    1    2    0    0  0.77614611631E+01 -0.86423921962E+01  0.11907706064E+04  0.11935226567E+04  0.80167099671E+02 0.  0.
        -11    1    3    3    0    0  0.46069178493E+02 -0.82201365088E+00 -0.10404298179E+03  0.11378922169E+03  0.00000000000E+00 0.  1.
         12    1    3    3    0    0  0.18506761902E+01  0.28303837214E+02  0.77549391964E+00  0.28374876109E+02  0.00000000000E+00 0. -1.
         13    1    5    5    0    0  0.40082618436E+02  0.51454274742E+01  0.84633400981E+03  0.84729826383E+03  0.00000000000E+00 0. -1.
        -14    1    5    5    0    0 -0.32321157273E+02 -0.13787819670E+02  0.34443659658E+03  0.34622439290E+03  0.00000000000E+00 0.  1.
          5    1    4    4  501    0 -0.49223782810E+02  0.45867223730E+02  0.71394300966E+02  0.98190639153E+02  0.41800000000E+01 0.  1.
         -5    1    4    4    0  501 -0.64575330360E+01 -0.64706655097E+02  0.22650505063E+02  0.68986728625E+02  0.41800000000E+01 0.  1.
</event>
<event>
11    1  0.8864208E-009  0.1324724E+03  0.7561462E-02  0.1116268E+00
         22   -1    0    0    0    0  0.00000000000E+00  0.00000000000E+00  0.10051795304E+04  0.10051795304E+04  0.00000000000E+00 0. -1.
         22   -1    0    0    0    0 -0.00000000000E+00 -0.00000000000E+00 -0.22446814560E+03  0.22446814560E+03  0.00000000000E+00 0. -1.
        -24    2    1    2    0    0  0.98553831365E+01 -0.14660367463E+02 -0.20160766225E+03  0.21769448930E+03  0.80207145821E+02 0.  0.
         25    2    1    2    0    0  0.24584911731E+02 -0.20401691207E+02  0.40317669302E+03  0.42334269976E+03  0.12508776421E+03 0.  0.
         24    2    1    2    0    0 -0.34440294867E+02  0.35062058670E+02  0.57914235408E+03  0.58861048699E+03  0.92956749316E+02 0.  0.
        -11    1    5    5    0    0 -0.35057366916E+02 -0.26256315489E+02  0.24807890462E+03  0.25191577163E+03  0.00000000000E+00 0.  1.
         12    1    5    5    0    0  0.61707204919E+00  0.61318374159E+02  0.33106344946E+03  0.33669471537E+03  0.00000000000E+00 0. -1.
         11    1    3    3    0    0  0.32438756358E+02  0.18819612763E+02 -0.13195772450E+03  0.13718342391E+03  0.00000000000E+00 0. -1.
        -12    1    3    3    0    0 -0.22583373221E+02 -0.33479980226E+02 -0.69649937750E+02  0.80511065392E+02  0.00000000000E+00 0.  1.
          5    1    4    4  501    0 -0.25668244488E+02  0.12362466318E+02  0.19024817295E+02  0.34512395189E+02  0.41800000000E+01 0. -1.
         -5    1    4    4    0  501  0.50253156218E+02 -0.32764157525E+02  0.38415187573E+03  0.38883030457E+03  0.41800000000E+01 0. -1.
</event>
<event>
11    1  0.8864208E-009  0.2065815E+03  0.7561462E-02  0.1049965E+00
         22   -1    0    0    0    0  0.00000000000E+00  0.00000000000E+00  0.33183804487E+03  0.33183804487E+03  0.00000000000E+00 0.  1.
         22   -1    0    0    0    0 -0.00000000000E+00 -0.00000000000E+00 -0.21542825126E+04  0.21542825126E+04  0.00000000000E+00 0. -1.
        -24    2    1    2    0    0  0.14723215828E+03 -0.73746449829E+02 -0.20847144180E+04  0.20927485752E+04  0.80290391869E+02 0.  0.
         25    2    1    2    0    0 -0.14954394613E+03  0.39854466948E+02  0.14191970188E+03  0.24441876482E+03  0.12509020927E+03 0.  0.
         24    2    1    2    0    0  0.23117878532E+01  0.33891982880E+02  0.12035024842E+03  0.14895321744E+03  0.80925075367E+02 0.  0.
        -13    1    5    5    0    0  0.43839098495E+01  0.17986721974E+02  0.12927762685E+03  0.13059649933E+03  0.00000000000E+00 0.  1.
         14    1    5    5    0    0 -0.20721219964E+01  0.15905260906E+02 -0.89273784298E+01  0.18356718107E+02  0.00000000000E+00 0. -1.
         11    1    3    3    0    0  0.15217538956E+03 -0.72580052101E+02 -0.17742199753E+04  0.17822125950E+04  0.00000000000E+00 0. -1.
        -12    1    3    3    0    0 -0.49432312858E+01 -0.11663977274E+01 -0.31049444268E+03  0.31053598013E+03  0.00000000000E+00 0.  1.
          5    1    4    4  501    0 -0.13697537143E+03 -0.18595537627E+02  0.88930646742E+02  0.16442073691E+03  0.41800000000E+01 0. -1.
         -5    1    4    4    0  501 -0.12568574706E+02  0.58450004575E+02  0.52989055141E+02  0.79998027911E+02  0.41800000000E+01 0. -1.
</event>
<event>
11    1  0.8864208E-009  0.1385651E+03  0.7561462E-02  0.1109171E+00
         22   -1    0    0    0    0  0.00000000000E+00  0.00000000000E+00  0.33348531727E+03  0.33348531727E+03  0.00000000000E+00 0.  1.
         22   -1    0    0    0    0 -0.00000000000E+00 -0.00000000000E+00 -0.37028154730E+03  0.37028154730E+03  0.00000000000E+00 0.  1.
         24    2    1    2    0    0  0.13193266947E+02 -0.22670555262E+02 -0.22846212524E+03  0.24417396465E+03  0.82085114207E+02 0.  0.
         25    2    1    2    0    0  0.47378499127E+02  0.21648810717E+02 -0.86967092437E+02  0.16101427405E+03  0.12509567577E+03 0.  0.
        -24    2    1    2    0    0 -0.60571766074E+02  0.10217445454E+01  0.27863298765E+03  0.29857862588E+03  0.88559986540E+02 0.  0.
        -11    1    3    3    0    0  0.55649918580E+01 -0.27563410020E+02 -0.23254155654E+03  0.23423553579E+03  0.00000000000E+00 0.  1.
         12    1    3    3    0    0  0.76282750893E+01  0.48928547584E+01  0.40794313007E+01  0.99384288629E+01  0.00000000000E+00 0. -1.
         13    1    5    5    0    0 -0.16696041837E+02 -0.79823324720E+01  0.23107160587E+01  0.18649794996E+02  0.00000000000E+00 0. -1.
        -14    1    5    5    0    0 -0.43875724237E+02  0.90040770174E+01  0.27632227159E+03  0.27992883088E+03  0.00000000000E+00 0.  1.
          5    1    4    4  501    0  0.41063567706E+02  0.53624519727E+02  0.40033754671E+00  0.67671547779E+02  0.41800000000E+01 0.  1.
         -5    1    4    4    0  501  0.63149314209E+01 -0.31975709010E+02 -0.87367429984E+02  0.93342726270E+02  0.41800000000E+01 0.  1.
</event>
<event>
11    1  0.8864208E-009  0.1284734E+03  0.7561462E-02  0.1121159E+00
         22   -1    0    0    0    0  0.00000000000E+00  0.00000000000E+00  0.15562555360E+04  0.15562555360E+04  0.00000000000E+00 0. -1.
         22   -1    0    0    0    0 -0.00000000000E+00 -0.00000000000E+00 -0.70296859168E+03  0.70296859168E+03  0.00000000000E+00 0. -1.
         24    2    1    2    0    0  0.78957417013E+01  0.27991311719E+02 -0.67752530777E+03  0.68305441763E+03  0.81712535843E+02 0.  0.
         25    2    1    2    0    0  0.68014618271E+01 -0.39954100134E+02  0.18026467884E+03  0.22314015661E+03  0.12511428797E+03 0.  0.
        -24    2    1    2    0    0 -0.14697203528E+02  0.11962788415E+02  0.13505475733E+04  0.13530295535E+04  0.79693843817E+02 0.  0.
        -11    1    3    3    0    0  0.22928093675E+01  0.51709597666E+02 -0.27740730966E+03  0.28219488819E+03  0.00000000000E+00 0.  1.
         12    1    3    3    0    0  0.56029323338E+01 -0.23718285946E+02 -0.40011799811E+03  0.40085952945E+03  0.00000000000E+00 0. -1.
         11    1    5    5    0    0  0.84367077534E+01 -0.19832692146E+02  0.10083439267E+04  0.10085742353E+04  0.00000000000E+00 0. -1.
        -12    1    5    5    0    0 -0.23133911282E+02  0.31795480561E+02  0.34220364661E+03  0.34445531813E+03  0.00000000000E+00 0.  1.
          5    1    4    4  501    0  0.23083800799E+02 -0.82333234683E+02  0.12482567313E+03  0.15136229538E+03  0.41800000000E+01 0. -1.
         -5    1    4    4    0  501 -0.16282338972E+02  0.42379134548E+02  0.55439005716E+02  0.71777861227E+02  0.41800000000E+01 0. -1.
</event>
<event>
11    1  0.8864208E-009  0.1319410E+03  0.7561462E-02  0.1116907E+00
         22   -1    0    0    0    0  0.00000000000E+00  0.00000000000E+00  0.12206575806E+03  0.12206575806E+03  0.00000000000E+00 0. -1.
         22   -1    0    0    0    0 -0.00000000000E+00 -0.00000000000E+00 -0.17576296287E+04  0.17576296287E+04  0.00000000000E+00 0. -1.
        -24    2    1    2    0    0 -0.42427400658E+02 -0.12743883404E+02 -0.13783574668E+04  0.13813995226E+04  0.80205011960E+02 0.  0.
         25    2    1    2    0    0  0.18874025206E+02  0.21309898969E+02 -0.35046423982E+03  0.37320605389E+03  0.12508890695E+03 0.  0.
         24    2    1    2    0    0  0.23553375452E+02 -0.85660155657E+01  0.93257835937E+02  0.12508981029E+03  0.79512882963E+02 0.  0.
        -13    1    5    5    0    0 -0.19030470028E+02 -0.28554693534E+02  0.53181488506E+02  0.63291389873E+02  0.00000000000E+00 0.  1.
         14    1    5    5    0    0  0.42583845479E+02  0.19988677969E+02  0.40076347430E+02  0.61798420418E+02  0.00000000000E+00 0. -1.
         13    1    3    3    0    0  0.13958513155E+02 -0.29177425100E+02 -0.56424081569E+03  0.56516710831E+03  0.00000000000E+00 0. -1.
        -14    1    3    3    0    0 -0.56385913813E+02  0.16433541696E+02 -0.81411665108E+03  0.81623241429E+03  0.00000000000E+00 0.  1.
          5    1    4    4  501    0  0.11444498905E+02  0.26945926739E+02 -0.35880095449E+03  0.36001757855E+03  0.41800000000E+01 0.  1.
         -5    1    4    4    0  501  0.74295263014E+01 -0.56360277694E+01  0.83367146708E+01  0.13188475332E+02  0.41800000000E+01 0.  1.
</event>
<event>
11    1  0.8864208E-009  0.1327800E+03  0.7561462E-02  0.1115900E+00
         22   -1    0    0    0    0  0.00000000000E+00  0.00000000000E+00  0.46885286583E+02  0.46885286583E+02  0.00000000000E+00 0. -1.
         22   -1    0    0    0    0 -0.00000000000E+00 -0.00000000000E+00 -0.32749458474E+04  0.32749458474E+04  0.00000000000E+00 0.  1.
        -24    2    1    2    0    0  0.37538202682E+02  0.22759567125E+02 -0.15340157777E+04  0.15367559399E+04  0.80543763438E+02 0.  0.
         25    2    1    2    0    0 -0.46062946755E+02 -0.10653801722E+02 -0.16940779398E+04  0.16993477230E+04  0.12508924430E+03 0.  0.
         24    2    1    2    0    0  0.85247440733E+01 -0.12105765403E+02  0.33156650199E-01  0.85727471168E+02  0.84439193483E+02 0.  0.
        -13    1    5    5    0    0 -0.13336206737E+02 -0.19062257627E+02 -0.36088073508E+02  0.42936850437E+02  0.00000000000E+00 0.  1.
         14    1    5    5    0    0  0.21860950811E+02  0.69564922247E+01  0.36121230158E+02  0.42790620731E+02  0.00000000000E+00 0. -1.
         13    1    3    3    0    0  0.37034087457E+02  0.48968492123E+02 -0.83767438604E+03  0.83992131410E+03  0.00000000000E+00 0. -1.
        -14    1    3    3    0    0  0.50411522440E+00 -0.26208924999E+02 -0.69634139168E+03  0.69683462575E+03  0.00000000000E+00 0.  1.
          5    1    4    4  501    0 -0.24097482151E+02 -0.67630133355E+02 -0.83425525029E+03  0.83734928113E+03  0.41800000000E+01 0. -1.
         -5    1    4    4    0  501 -0.21965464604E+02  0.56976331633E+02 -0.85982268949E+03  0.86199844186E+03  0.41800000000E+01 0. -1.
</event>
<event>
11    1  0.8864208E-009  0.1317896E+03  0.7561462E-02  0.1117089E+00
         22   -1    0    0    0    0  0.00000000000E+00  0.00000000000E+00  0.41102455824E+03  0.41102455824E+03  0.00000000000E+00 0.  1.
         22   -1    0    0    0    0 -0.00000000000E+00 -0.00000000000E+00 -0.25334021227E+04  0.25334021227E+04  0.00000000000E+00 0.  1.
        -24    2    1    2    0    0  0.30425839043E+02 -0.49778863880E+01 -0.24706212950E+04  0.24721344290E+04  0.80799385210E+02 0.  0.
         25    2    1    2    0    0 -0.30429031060E+00  0.35974730270E+02  0.20476275676E+02  0.13176014179E+03  0.12508870168E+03 0.  0.
         24    2    1    2    0    0 -0.30121548733E+02 -0.30996843882E+02  0.32776745480E+03  0.34053211023E+03  0.81624148664E+02 0.  0.
        -13    1    5    5    0    0 -0.47230480675E+02 -0.48610697490E+02  0.24432377076E+03  0.25355043517E+03  0.00000000000E+00 0.  1.
         14    1    5    5    0    0  0.17108931942E+02  0.17613853607E+02  0.83443684036E+02  0.86981675062E+02  0.00000000000E+00 0. -1.
         11    1    3    3    0    0 -0.14237349361E+02  0.12201790165E+02 -0.17270045431E+03  0.17371537847E+03  0.00000000000E+00 0. -1.
        -12    1    3    3    0    0  0.44663188404E+02 -0.17179676553E+02 -0.22979208407E+04  0.22984190505E+04  0.00000000000E+00 0.  1.
          5    1    4    4  501    0 -0.31986305831E+02  0.68205694610E+02  0.36254694259E+02  0.83707919540E+02  0.41800000000E+01 0.  1.
         -5    1    4    4    0  501  0.31682015520E+02 -0.32230964340E+02 -0.15778418584E+02  0.48052222245E+02  0.41800000000E+01 0.  1.
</event>
<event>
11    1  0.8864208E-009  0.1417505E+03  0.7561462E-02  0.1105619E+00
         22   -1    0    0    0    0  0.00000000000E+00  0.00000000000E+00  0.10485892587E+04  0.10485892587E+04  0.00000000000E+00 0.  1.
         22   -1    0    0    0    0 -0.00000000000E+00 -0.00000000000E+00 -0.18211592133E+04  0.18211592133E+04  0.00000000000E+00 0. -1.
         24    2    1    2    0    0  0.66599191970E+02  0.10995498261E+01 -0.18050357182E+04  0.18080566931E+04  0.80488508959E+02 0.  0.
         25    2    1    2    0    0 -0.93044238572E+02  0.11451234691E+02  0.54661043580E+03  0.56852301478E+03  0.12508832357E+03 0.  0.
        -24    2    1    2    0    0  0.26445046601E+02 -0.12550784517E+02  0.48585532784E+03  0.49316876414E+03  0.79392491155E+02 0.  0.
        -11    1    3    3    0    0 -0.12063462361E+02  0.16865498768E+02 -0.21480081425E+03  0.21579935583E+03  0.00000000000E+00 0.  1.
         12    1    3    3    0    0  0.78662654331E+02 -0.15765948942E+02 -0.15902349039E+04  0.15922573373E+04  0.00000000000E+00 0. -1.
         11    1    5    5    0    0 -0.20430013167E+02 -0.27597242224E+02  0.16258203321E+03  0.16616832050E+03  0.00000000000E+00 0. -1.
        -12    1    5    5    0    0  0.46875059769E+02  0.15046457707E+02  0.32327329463E+03  0.32700044364E+03  0.00000000000E+00 0.  1.
          5    1    4    4  501    0 -0.47570709157E+02  0.94102322358E+01  0.49874588256E+02  0.69688390670E+02  0.41800000000E+01 0.  1.
         -5    1    4    4    0  501 -0.45473529415E+02  0.20410024550E+01  0.49673584755E+03  0.49883462411E+03  0.41800000000E+01 0.  1.
</event>
<event>
11    1  0.8864208E-009  0.1385382E+03  0.7561462E-02  0.1109202E+00
         22   -1    0    0    0    0  0.00000000000E+00  0.00000000000E+00  0.21924971299E+03  0.21924971299E+03  0.00000000000E+00 0.  1.
         22   -1    0    0    0    0 -0.00000000000E+00 -0.00000000000E+00 -0.91456270651E+03  0.91456270651E+03  0.00000000000E+00 0.  1.
        -24    2    1    2    0    0 -0.48360713960E+02 -0.40228894764E+02 -0.68176744910E+03  0.68981746953E+03  0.84167475848E+02 0.  0.
         25    2    1    2    0    0  0.27982244747E+02  0.33359806065E+02 -0.20044762090E+03  0.24025457140E+03  0.12508847937E+03 0.  0.
         24    2    1    2    0    0  0.20378469214E+02  0.68690886985E+01  0.18690207649E+03  0.20374037857E+03  0.78200315066E+02 0.  0.
        -11    1    5    5    0    0  0.37440032451E+02  0.20966408188E+02  0.17147377610E+03  0.17676142734E+03  0.00000000000E+00 0.  1.
         12    1    5    5    0    0 -0.17061563237E+02 -0.14097319490E+02  0.15428300384E+02  0.26978951233E+02  0.00000000000E+00 0. -1.
         13    1    3    3    0    0 -0.31006465601E+01  0.25044376541E+02 -0.19191163320E+03  0.19356370983E+03  0.00000000000E+00 0. -1.
        -14    1    3    3    0    0 -0.45260067400E+02 -0.65273271305E+02 -0.48985581590E+03  0.49625375970E+03  0.00000000000E+00 0.  1.
          5    1    4    4  501    0  0.36983365179E+01  0.68561312304E+02 -0.17994519337E+03  0.19264494868E+03  0.41800000000E+01 0. -1.
         -5    1    4    4    0  501  0.24283908229E+02 -0.35201506238E+02 -0.20502427536E+02  0.47609622716E+02  0.41800000000E+01 0. -1.
</event>
<event>
11    1  0.8864208E-009  0.1533832E+03  0.7561462E-02  0.1093471E+00
         22   -1    0    0    0    0  0.00000000000E+00  0.00000000000E+00  0.16454818515E+04  0.16454818515E+04  0.00000000000E+00 0. -1.
         22   -1    0    0    0    0 -0.00000000000E+00 -0.00000000000E+00 -0.54808959480E+03  0.54808959480E+03  0.00000000000E+00 0. -1.
        -24    2    1    2    0    0  0.39956337428E+02 -0.56738824588E+02 -0.30257956549E+03  0.32084410435E+03  0.81060117973E+02 0.  0.
         25    2    1    2    0    0  0.48696951303E+02  0.46949687110E+02 -0.21251749207E+03  0.25571183817E+03  0.12509673681E+03 0.  0.
         24    2    1    2    0    0 -0.88653288732E+02  0.97891374783E+01  0.16124893142E+04  0.16170155037E+04  0.81621798891E+02 0.  0.
        -13    1    5    5    0    0 -0.21365581671E+02 -0.22603790550E+02  0.18680769670E+03  0.18937934146E+03  0.00000000000E+00 0.  1.
         14    1    5    5    0    0 -0.67287707061E+02  0.32392928028E+02  0.14256816175E+04  0.14276361623E+04  0.00000000000E+00 0. -1.
         11    1    3    3    0    0  0.10788146768E+02 -0.66218114796E+02 -0.25903731011E+03  0.26758466112E+03  0.00000000000E+00 0. -1.
        -12    1    3    3    0    0  0.29168190660E+02  0.94792902078E+01 -0.43542255378E+02  0.53259443225E+02  0.00000000000E+00 0.  1.
          5    1    4    4  501    0  0.89456414719E+02  0.17115060295E+02 -0.14508990794E+03  0.17135906515E+03  0.41800000000E+01 0. -1.
         -5    1    4    4    0  501 -0.40759463416E+02  0.29834626814E+02 -0.67427584128E+02  0.84352773022E+02  0.41800000000E+01 0. -1.
</event>
<event>
11    1  0.8864208E-009  0.1465826E+03  0.7561462E-02  0.1100423E+00
         22   -1    0    0    0    0  0.00000000000E+00  0.00000000000E+00  0.98940442476E+03  0.98940442476E+03  0.00000000000E+00 0.  1.
         22   -1    0    0    0    0 -0.00000000000E+00 -0.00000000000E+00 -0.20044850721E+04  0.20044850721E+04  0.00000000000E+00 0.  1.
        -24    2    1    2    0    0  0.37676662158E+02 -0.69900245290E+02 -0.18590059711E+04  0.18624649279E+04  0.81035992256E+02 0.  0.
         25    2    1    2    0    0 -0.47528278595E+02 -0.21335545478E+01 -0.10881580626E+03  0.17248722751E+03  0.12508986626E+03 0.  0.
         24    2    1    2    0    0  0.98516164374E+01  0.72033799838E+02  0.95274113000E+03  0.95893734143E+03  0.80989143356E+02 0.  0.
        -11    1    5    5    0    0 -0.29003320913E+02  0.62034072708E+02  0.63063476687E+03  0.63434188573E+03  0.00000000000E+00 0.  1.
         12    1    5    5    0    0  0.38854937350E+02  0.99997271297E+01  0.32210636313E+03  0.32459545571E+03  0.00000000000E+00 0. -1.
         11    1    3    3    0    0  0.22697002768E+01 -0.53273663832E+02 -0.15600185801E+04  0.15609295964E+04  0.00000000000E+00 0. -1.
        -12    1    3    3    0    0  0.35406961881E+02 -0.16626581458E+02 -0.29898739098E+03  0.30153533148E+03  0.00000000000E+00 0.  1.
          5    1    4    4  501    0  0.11666147974E+02  0.52027736989E+02 -0.42673846981E+02  0.68421590459E+02  0.41800000000E+01 0. -1.
         -5    1    4    4    0  501 -0.59194426569E+02 -0.54161291537E+02 -0.66141959278E+02  0.10406563705E+03  0.41800000000E+01 0. -1.
</event>
<event>
11    1  0.8864208E-009  0.1423242E+03  0.7561462E-02  0.1104990E+00
         22   -1    0    0    0    0  0.00000000000E+00  0.00000000000E+00  0.17866648361E+03  0.17866648361E+03  0.00000000000E+00 0. -1.
         22   -1    0    0    0    0 -0.00000000000E+00 -0.00000000000E+00 -0.64547050523E+03  0.64547050523E+03  0.00000000000E+00 0.  1.
         24    2    1    2    0    0 -0.19268490913E+02 -0.55166146677E+02 -0.30297574275E+03  0.31765859069E+03  0.75485767288E+02 0.  0.
         25    2    1    2    0    0  0.32264683693E+02  0.85981318459E+02 -0.30484581679E+03  0.34207242129E+03  0.12509505368E+03 0.  0.
        -24    2    1    2    0    0 -0.12996192780E+02 -0.30815171782E+02  0.14101753791E+03  0.16440597687E+03  0.77620251178E+02 0.  0.
        -13    1    3    3    0    0 -0.45725186484E+02 -0.37218644054E+02 -0.23867029580E+03  0.24584452453E+03  0.00000000000E+00 0.  1.
         14    1    3    3    0    0  0.26456695571E+02 -0.17947502623E+02 -0.64305446948E+02  0.71814066158E+02  0.00000000000E+00 0. -1.
         13    1    5    5    0    0 -0.35600232125E+02 -0.22969948997E+02  0.13233656465E+03  0.13895309075E+03  0.00000000000E+00 0. -1.
        -14    1    5    5    0    0  0.22604039345E+02 -0.78452227844E+01  0.86809732602E+01  0.25452886123E+02  0.00000000000E+00 0.  1.
          5    1    4    4  501    0  0.54270918244E+02  0.43749425172E+02 -0.27924428490E+03  0.28784403385E+03  0.41800000000E+01 0.  1.
         -5    1    4    4    0  501 -0.22006234551E+02  0.42231893286E+02 -0.25601531881E+02  0.54228387440E+02  0.41800000000E+01 0.  1.
</event>
<event>
11    1  0.8864208E-009  0.1869799E+03  0.7561462E-02  0.1064133E+00
         22   -1    0    0    0    0  0.00000000000E+00  0.00000000000E+00  0.46991689850E+02  0.46991689850E+02  0.00000000000E+00 0.  1.
         22   -1    0    0    0    0 -0.00000000000E+00 -0.00000000000E+00 -0.28506530021E+04  0.28506530021E+04  0.00000000000E+00 0.  1.
         24    2    1    2    0    0 -0.48978275785E+01 -0.36654852353E+00 -0.18025863358E+04  0.18044787192E+04  0.82473188393E+02 0.  0.
         25    2    1    2    0    0 -0.85180974550E+02  0.10684616197E+03 -0.85634783395E+03  0.87615701221E+03  0.12509035369E+03 0.  0.
        -24    2    1    2    0    0  0.90078802128E+02 -0.10647961345E+03 -0.14472714249E+03  0.21700896057E+03  0.81822029560E+02 0.  0.
        -11    1    3    3    0    0 -0.66719206904E+01 -0.17476368168E+02 -0.17208627483E+04  0.17209644204E+04  0.00000000000E+00 0.  1.
         12    1    3    3    0    0  0.17740931119E+01  0.17109819645E+02 -0.81723587541E+02  0.83514298747E+02  0.00000000000E+00 0. -1.
         11    1    5    5    0    0 -0.59043601003E+01 -0.43867017062E+00 -0.38230567057E+02  0.38686304517E+02  0.00000000000E+00 0. -1.
        -12    1    5    5    0    0  0.95983162228E+02 -0.10604094328E+03 -0.10649657543E+03  0.17832265605E+03  0.00000000000E+00 0.  1.
          5    1    4    4  501    0 -0.81484254381E+02  0.39987332322E+01 -0.41310015134E+03  0.42109960937E+03  0.41800000000E+01 0.  1.
         -5    1    4    4    0  501 -0.36967201689E+01  0.10284742874E+03 -0.44324768261E+03  0.45505740284E+03  0.41800000000E+01 0.  1.
</event>
<event>
11    1  0.8864208E-009  0.1531737E+03  0.7561462E-02  0.1093679E+00
         22   -1    0    0    0    0  0.00000000000E+00  0.00000000000E+00  0.83865739517E+03  0.83865739517E+03  0.00000000000E+00 0. -1.
         22   -1    0    0    0    0 -0.00000000000E+00 -0.00000000000E+00 -0.88895422345E+03  0.88895422345E+03  0.00000000000E+00 0. -1.
         24    2    1    2    0    0  0.78258265481E+02  0.34987519822E+02 -0.77320963275E+03  0.78190850051E+03  0.78608424091E+02 0.  0.
         25    2    1    2    0    0 -0.12557252176E+03 -0.55683958477E+02 -0.28909917610E+02  0.18802266095E+03  0.12509027238E+03 0.  0.
        -24    2    1    2    0    0  0.47314256279E+02  0.20696438655E+02  0.75182272207E+03  0.75768045716E+03  0.78583002735E+02 0.  0.
        -13    1    3    3    0    0  0.23007427684E+02  0.25032046286E+02 -0.87018708922E+02  0.93424840231E+02  0.00000000000E+00 0.  1.
         14    1    3    3    0    0  0.55250837797E+02  0.99554735363E+01 -0.68619092383E+03  0.68848366028E+03  0.00000000000E+00 0. -1.
         11    1    5    5    0    0  0.59419898583E+02  0.23223430230E+02  0.72844514272E+03  0.73123346342E+03  0.00000000000E+00 0. -1.
        -12    1    5    5    0    0 -0.12105642304E+02 -0.25269915751E+01  0.23377579348E+02  0.26446993746E+02  0.00000000000E+00 0.  1.
          5    1    4    4  501    0 -0.41454856182E+02 -0.84012100934E+02  0.24077780702E+01  0.93807291826E+02  0.41800000000E+01 0. -1.
         -5    1    4    4    0  501 -0.84117665578E+02  0.28328142457E+02 -0.31317695680E+02  0.94215369129E+02  0.41800000000E+01 0. -1.
</event>
<event>
11    1  0.8864208E-009  0.1678255E+03  0.7561462E-02  0.1079940E+00
         22   -1    0    0    0    0  0.00000000000E+00  0.00000000000E+00  0.12072628859E+04  0.12072628859E+04  0.00000000000E+00 0.  1.
         22   -1    0    0    0    0 -0.00000000000E+00 -0.00000000000E+00 -0.22451547290E+03  0.22451547290E+03  0.00000000000E+00 0.  1.
        -24    2    1    2    0    0 -0.92822963867E+01  0.72762857456E+01 -0.19283082830E+03  0.20862417168E+03  0.78747770149E+02 0.  0.
         25    2    1    2    0    0  0.22116798728E+02  0.10539138735E+03  0.36357336288E+03  0.39928628223E+03  0.12508975847E+03 0.  0.
         24    2    1    2    0    0 -0.12834502342E+02 -0.11266767309E+03  0.81200487846E+03  0.82386790491E+03  0.80917693313E+02 0.  0.
        -13    1    5    5    0    0 -0.21938974182E+02 -0.12322019380E+03  0.74332244857E+03  0.75378564413E+03  0.00000000000E+00 0.  1.
         14    1    5    5    0    0  0.91044718398E+01  0.10552520707E+02  0.68682429887E+02  0.70082260780E+02  0.00000000000E+00 0. -1.
         13    1    3    3    0    0  0.17897103869E+02  0.35516643860E+01 -0.51639732776E+01  0.18962786367E+02  0.00000000000E+00 0. -1.
        -14    1    3    3    0    0 -0.27179400255E+02  0.37246213596E+01 -0.18766685503E+03  0.18966138531E+03  0.00000000000E+00 0.  1.
          5    1    4    4  501    0 -0.18905548093E+02 -0.34968073722E+01  0.24149020793E+01  0.19823005890E+02  0.41800000000E+01 0. -1.
         -5    1    4    4    0  501  0.41022346821E+02  0.10888819472E+03  0.36115846080E+03  0.37946327634E+03  0.41800000000E+01 0. -1.
</event>
<event>
11    1  0.8864208E-009  0.2061561E+03  0.7561462E-02  0.1050254E+00
         22   -1    0    0    0    0  0.00000000000E+00  0.00000000000E+00  0.18610113829E+04  0.18610113829E+04  0.00000000000E+00 0.  1.
         22   -1    0    0    0    0 -0.00000000000E+00 -0.00000000000E+00 -0.27110088089E+04  0.27110088089E+04  0.00000000000E+00 0.  1.
         24    2    1    2    0    0  0.66943804494E+02  0.72748307768E+01 -0.26363703617E+04  0.26384026026E+04  0.78646128009E+02 0.  0.
         25    2    1    2    0    0 -0.56133449832E+02  0.15696181205E+03  0.89437969377E+02  0.22679110420E+03  0.12508828860E+03 0.  0.
        -24    2    1    2    0    0 -0.10810354662E+02 -0.16423664283E+03  0.16969349663E+04  0.17068264850E+04  0.81103830674E+02 0.  0.
        -13    1    3    3    0    0  0.68451498106E+02  0.32526808891E+02 -0.16966126503E+04  0.16983044739E+04  0.00000000000E+00 0.  1.
         14    1    3    3    0    0 -0.15076936126E+01 -0.25251978114E+02 -0.93975771134E+03  0.94009812869E+03  0.00000000000E+00 0. -1.
         11    1    5    5    0    0 -0.27321726395E+02 -0.49664695589E+02  0.31561123613E+03  0.32066105329E+03  0.00000000000E+00 0. -1.
        -12    1    5    5    0    0  0.16511371733E+02 -0.11457194724E+03  0.13813237302E+04  0.13861654317E+04  0.00000000000E+00 0.  1.
          5    1    4    4  501    0  0.30491702205E+02  0.81693119732E+02  0.11606188181E+02  0.88066371102E+02  0.41800000000E+01 0. -1.
         -5    1    4    4    0  501 -0.86625152037E+02  0.75268692317E+02  0.77831781196E+02  0.13872473310E+03  0.41800000000E+01 0. -1.
</event>
<event>
11    1  0.8864208E-009  0.4055766E+03  0.7561462E-02  0.9633446E-01
         22   -1    0    0    0    0  0.00000000000E+00  0.00000000000E+00  0.26799508037E+04  0.26799508037E+04  0.00000000000E+00 0. -1.
         22   -1    0    0    0    0 -0.00000000000E+00 -0.00000000000E+00 -0.40025039905E+03  0.40025039905E+03  0.00000000000E+00 0. -1.
        -24    2    1    2    0    0 -0.82370969292E+01 -0.25621282170E+02 -0.21760606255E+03  0.23362905424E+03  0.80658766780E+02 0.  0.
         25    2    1    2    0    0  0.38559459966E+03  0.99884959134E+02  0.11643064895E+03  0.43343149883E+03  0.12508624152E+03 0.  0.
         24    2    1    2    0    0 -0.37735750273E+03 -0.74263676965E+02  0.23808758183E+04  0.24131406497E+04  0.82245696289E+02 0.  0.
        -13    1    5    5    0    0  0.39183543916E+01 -0.13365606810E+01  0.12633773185E+02  0.13294815549E+02  0.00000000000E+00 0.  1.
         14    1    5    5    0    0 -0.38127585712E+03 -0.72927116284E+02  0.23682420451E+04  0.23998458341E+04  0.00000000000E+00 0. -1.
         11    1    3    3    0    0  0.69468620700E+01 -0.53101818898E+02 -0.13225238388E+03  0.14268410950E+03  0.00000000000E+00 0. -1.
        -12    1    3    3    0    0 -0.15183958999E+02  0.27480536728E+02 -0.85353678675E+02  0.90944944736E+02  0.00000000000E+00 0.  1.
          5    1    4    4  501    0  0.25673540170E+03  0.11551919772E+03  0.11336448413E+03  0.30352385440E+03  0.41800000000E+01 0.  1.
         -5    1    4    4    0  501  0.12885919796E+03 -0.15634238588E+02  0.30661648221E+01  0.12990764443E+03  0.41800000000E+01 0.  1.
</event>
<event>
11    1  0.8864208E-009  0.1375302E+03  0.7561462E-02  0.1110348E+00
         22   -1    0    0    0    0  0.00000000000E+00  0.00000000000E+00  0.11686397685E+04  0.11686397685E+04  0.00000000000E+00 0.  1.
         22   -1    0    0    0    0 -0.00000000000E+00 -0.00000000000E+00 -0.25622927205E+03  0.25622927205E+03  0.00000000000E+00 0. -1.
        -24    2    1    2    0    0 -0.30868878549E+02 -0.49671557791E+02 -0.22138529792E+03  0.24257353558E+03  0.80064465971E+02 0.  0.
         25    2    1    2    0    0  0.51040534829E+02  0.42966037522E+01  0.18849519521E+03  0.23194670500E+03  0.12508092718E+03 0.  0.
         24    2    1    2    0    0 -0.20171656280E+02  0.45374954039E+02  0.94530059919E+03  0.95034880000E+03  0.84284261099E+02 0.  0.
        -13    1    5    5    0    0 -0.37286253983E+02 -0.79808209898E+01  0.51597717778E+03  0.51738419596E+03  0.00000000000E+00 0.  1.
         14    1    5    5    0    0  0.17114597703E+02  0.53355775029E+02  0.42932342141E+03  0.43296460405E+03  0.00000000000E+00 0. -1.
         11    1    3    3    0    0 -0.31876645308E+01 -0.45519261575E+02 -0.20525827488E+03  0.21026916985E+03  0.00000000000E+00 0. -1.
        -12    1    3    3    0    0 -0.27681214018E+02 -0.41522962162E+01 -0.16127023040E+02  0.32304365735E+02  0.00000000000E+00 0.  1.
          5    1    4    4  501    0  0.71321949841E+01 -0.11153643551E+02 -0.16573526955E+02  0.21620040830E+02  0.41800000000E+01 0. -1.
         -5    1    4    4    0  501  0.43908339845E+02  0.15450247303E+02  0.20506872217E+03  0.21032666417E+03  0.41800000000E+01 0. -1.
</event>
<event>
11    1  0.8864208E-009  0.1882528E+03  0.7561462E-02  0.1063156E+00
         22   -1    0    0    0    0  0.00000000000E+00  0.00000000000E+00  0.47160023248E+03  0.47160023248E+03  0.00000000000E+00 0.  1.
         22   -1    0    0    0    0 -0.00000000000E+00 -0.00000000000E+00 -0.15541770586E+04  0.15541770586E+04  0.00000000000E+00 0. -1.
        -24    2    1    2    0    0 -0.10007907085E+03 -0.98643888369E+02 -0.14808577118E+04  0.14896749128E+04  0.80282913157E+02 0.  0.
         25    2    1    2    0    0  0.93361421204E+02  0.11342876560E+03  0.82660721515E+02  0.20990873074E+03  0.12508573270E+03 0.  0.
         24    2    1    2    0    0  0.67176496414E+01 -0.14784877234E+02  0.31562016416E+03  0.32619364752E+03  0.80761923250E+02 0.  0.
        -11    1    5    5    0    0  0.33336665908E+02 -0.15036456748E+02  0.27630070866E+03  0.27871044101E+03  0.00000000000E+00 0.  1.
         12    1    5    5    0    0 -0.26619016267E+02  0.25157951401E+00  0.39319455507E+02  0.47483206511E+02  0.00000000000E+00 0. -1.
         13    1    3    3    0    0 -0.53584163562E+02 -0.76648679614E+02 -0.12327177296E+04  0.12362602006E+04  0.00000000000E+00 0. -1.
        -14    1    3    3    0    0 -0.46494907283E+02 -0.21995208755E+02 -0.24813998223E+03  0.25341471226E+03  0.00000000000E+00 0.  1.
          5    1    4    4  501    0  0.10946720912E+03  0.38526637929E+02  0.46532292673E+02  0.12510035318E+03  0.41800000000E+01 0.  1.
         -5    1    4    4    0  501 -0.16105787920E+02  0.74902127674E+02  0.36128428842E+02  0.84808377565E+02  0.41800000000E+01 0.  1.
</event>
<event>
11    1  0.8864208E-009  0.1742428E+03  0.7561462E-02  0.1074397E+00
         22   -1    0    0    0    0  0.00000000000E+00  0.00000000000E+00  0.12845815489E+04  0.12845815489E+04  0.00000000000E+00 0. -1.
         22   -1    0    0    0    0 -0.00000000000E+00 -0.00000000000E+00 -0.26681003170E+03  0.26681003170E+03  0.00000000000E+00 0.  1.
        -24    2    1    2    0    0 -0.30604285773E+02  0.63231663562E+02 -0.22131511361E+03  0.24968205729E+03  0.91792617533E+02 0.  0.
         25    2    1    2    0    0  0.13007862970E+02 -0.17244502249E+03  0.41891526747E+03  0.47014978435E+03  0.12507728862E+03 0.  0.
         24    2    1    2    0    0  0.17596422803E+02  0.10921335893E+03  0.82017136336E+03  0.83155973898E+03  0.81076151490E+02 0.  0.
        -11    1    5    5    0    0  0.17331781984E+02 -0.85532190604E+01  0.10750983031E+03  0.10923329088E+03  0.00000000000E+00 0.  1.
         12    1    5    5    0    0  0.26464081852E+00  0.11776657799E+03  0.71266153306E+03  0.72232644810E+03  0.00000000000E+00 0. -1.
         11    1    3    3    0    0 -0.74430982611E+01 -0.22334562371E+02 -0.25326005576E+02  0.34578012471E+02  0.00000000000E+00 0. -1.
        -12    1    3    3    0    0 -0.23161187512E+02  0.85566225933E+02 -0.19598910803E+03  0.21510404481E+03  0.00000000000E+00 0.  1.
          5    1    4    4  501    0 -0.37302144490E+02 -0.98489936444E+01  0.12036883078E+03  0.12646968207E+03  0.41800000000E+01 0. -1.
         -5    1    4    4    0  501  0.50310007461E+02 -0.16259602884E+03  0.29854643669E+03  0.34368010228E+03  0.41800000000E+01 0. -1.
</event>
<event>
11    1  0.8864208E-009  0.2633632E+03  0.7561462E-02  0.1017012E+00
         22   -1    0    0    0    0  0.00000000000E+00  0.00000000000E+00  0.18765488611E+03  0.18765488611E+03  0.00000000000E+00 0. -1.
         22   -1    0    0    0    0 -0.00000000000E+00 -0.00000000000E+00 -0.15762872119E+04  0.15762872119E+04  0.00000000000E+00 0. -1.
        -24    2    1    2    0    0 -0.25333317164E+03 -0.89617194403E+02 -0.10976293598E+04  0.11327672134E+04  0.78501023965E+02 0.  0.
         25    2    1    2    0    0  0.96667489260E+02  0.16956768764E+03 -0.35805985204E+03  0.42656022282E+03  0.12509581080E+03 0.  0.
         24    2    1    2    0    0  0.15666568238E+03 -0.79950493235E+02  0.67056886091E+02  0.20461466179E+03  0.80214191051E+02 0.  0.
        -11    1    5    5    0    0  0.10924712374E+03 -0.19237220284E+02  0.15711346928E+02  0.11203504413E+03  0.00000000000E+00 0.  1.
         12    1    5    5    0    0  0.47418558631E+02 -0.60713272951E+02  0.51345539162E+02  0.92579617665E+02  0.00000000000E+00 0. -1.
         11    1    3    3    0    0 -0.18771941441E+03 -0.30154002085E+02 -0.79732200010E+03  0.81967689624E+03  0.00000000000E+00 0. -1.
        -12    1    3    3    0    0 -0.65613757221E+02 -0.59463192317E+02 -0.30030735974E+03  0.31309031714E+03  0.00000000000E+00 0.  1.
          5    1    4    4  501    0  0.41539310973E+02  0.72974769564E+02 -0.47286380897E+02  0.96458828353E+02  0.41800000000E+01 0. -1.
         -5    1    4    4    0  501  0.55128178287E+02  0.96592918074E+02 -0.31077347115E+03  0.33010139447E+03  0.41800000000E+01 0. -1.
</event>
<event>
11    1  0.8864208E-009  0.1562689E+03  0.7561462E-02  0.1090640E+00
         22   -1    0    0    0    0  0.00000000000E+00  0.00000000000E+00  0.22495758309E+03  0.22495758309E+03  0.00000000000E+00 0. -1.
         22   -1    0    0    0    0 -0.00000000000E+00 -0.00000000000E+00 -0.19889265351E+04  0.19889265351E+04  0.00000000000E+00 0. -1.
        -24    2    1    2    0    0 -0.87758217495E+02  0.50481261832E+01 -0.14336259885E+04  0.14386998103E+04  0.82744673134E+02 0.  0.
         25    2    1    2    0    0  0.12644562646E+03 -0.10083593370E+02 -0.52892317712E+03  0.55811883335E+03  0.12508688797E+03 0.  0.
         24    2    1    2    0    0 -0.38687408964E+02  0.50354671866E+01  0.19858021362E+03  0.21706547452E+03  0.78493614023E+02 0.  0.
        -11    1    5    5    0    0 -0.51358053700E+02  0.17193970416E+02  0.76514066119E+02  0.93742650979E+02  0.00000000000E+00 0.  1.
         12    1    5    5    0    0  0.12670644736E+02 -0.12158503230E+02  0.12206614750E+03  0.12332282354E+03  0.00000000000E+00 0. -1.
         13    1    3    3    0    0 -0.33705152045E+02 -0.36850358513E+02 -0.46863079775E+03  0.47128421446E+03  0.00000000000E+00 0. -1.
        -14    1    3    3    0    0 -0.54053065450E+02  0.41898484696E+02 -0.96499519075E+03  0.96741559584E+03  0.00000000000E+00 0.  1.
          5    1    4    4  501    0  0.64486845973E+02  0.58753611462E+01 -0.72841116549E+02  0.97551903274E+02  0.41800000000E+01 0.  1.
         -5    1    4    4    0  501  0.61958780487E+02 -0.15958954516E+02 -0.45608206057E+03  0.46056693008E+03  0.41800000000E+01 0.  1.
</event>
<event>
11    1  0.8864208E-009  0.1314948E+03  0.7561462E-02  0.1117446E+00
         22   -1    0    0    0    0  0.00000000000E+00  0.00000000000E+00  0.24825977603E+03  0.24825977603E+03  0.00000000000E+00 0. -1.
         22   -1    0    0    0    0 -0.00000000000E+00 -0.00000000000E+00 -0.11738370370E+04  0.11738370370E+04  0.00000000000E+00 0. -1.
        -24    2    1    2    0    0 -0.42592332679E+02 -0.74080927327E+01 -0.10273531050E+04  0.10316396940E+04  0.83409047441E+02 0.  0.
         25    2    1    2    0    0  0.50576799834E+01 -0.56114175421E+01 -0.10590353235E+03  0.16407245679E+03  0.12508854775E+03 0.  0.
         24    2    1    2    0    0  0.37534652696E+02  0.13019510275E+02  0.20767937643E+03  0.22638466222E+03  0.80876041527E+02 0.  0.
        -11    1    5    5    0    0 -0.79159391553E+01  0.70278257526E+01 -0.28170609407E+01  0.10953915275E+02  0.00000000000E+00 0.  1.
         12    1    5    5    0    0  0.45450591851E+02  0.59916845222E+01  0.21049643737E+03  0.21543074695E+03  0.00000000000E+00 0. -1.
         13    1    3    3    0    0 -0.33274368076E+02  0.17811637547E+02 -0.92637741708E+03  0.92714591995E+03  0.00000000000E+00 0. -1.
        -14    1    3    3    0    0 -0.93179646033E+01 -0.25219730280E+02 -0.10097568794E+03  0.10449377404E+03  0.00000000000E+00 0.  1.
          5    1    4    4  501    0  0.39640136653E+02 -0.37605226964E+02 -0.80494108547E+01  0.55387353647E+02  0.41800000000E+01 0.  1.
         -5    1    4    4    0  501 -0.34582456670E+02  0.31993809422E+02 -0.97854121497E+02  0.10868510314E+03  0.41800000000E+01 0.  1.
</event>
<event>
11    1  0.8864208E-009  0.1531305E+03  0.7561462E-02  0.1093722E+00
         22   -1    0    0    0    0  0.00000000000E+00  0.00000000000E+00  0.28114249905E+03  0.28114249905E+03  0.00000000000E+00 0.  1.
         22   -1    0    0    0    0 -0.00000000000E+00 -0.00000000000E+00 -0.10555094649E+04  0.10555094649E+04  0.00000000000E+00 0.  1.
        -24    2    1    2    0    0 -0.35755259454E+02  0.28125779277E+02 -0.94927439973E+03  0.95369809855E+03  0.79678599126E+02 0.  0.
         25    2    1    2    0    0  0.67372795682E+02  0.56598678530E+02 -0.18166816696E+02  0.15399379176E+03  0.12506618513E+03 0.  0.
         24    2    1    2    0    0 -0.31617536228E+02 -0.84724457807E+02  0.19307425058E+03  0.22896007364E+03  0.83469435941E+02 0.  0.
        -13    1    5    5    0    0 -0.36781275711E+02 -0.38842610583E+02  0.16822676038E+03  0.17652720342E+03  0.00000000000E+00 0.  1.
         14    1    5    5    0    0  0.51637394833E+01 -0.45881847224E+02  0.24847490201E+02  0.52432870219E+02  0.00000000000E+00 0. -1.
         13    1    3    3    0    0 -0.46410139341E+02 -0.49334107004E+01 -0.31133118622E+03  0.31481001745E+03  0.00000000000E+00 0. -1.
        -14    1    3    3    0    0  0.10654879887E+02  0.33059189977E+02 -0.63794321351E+03  0.63888808110E+03  0.00000000000E+00 0.  1.
          5    1    4    4  501    0 -0.29674006463E+02  0.18117729515E+02  0.22779736981E+02  0.41775442538E+02  0.41800000000E+01 0. -1.
         -5    1    4    4    0  501  0.97046802145E+02  0.38480949015E+02 -0.40946553677E+02  0.11221834922E+03  0.41800000000E+01 0. -1.
</event>
<event>
11    1  0.8864208E-009  0.2656627E+03  0.7561462E-02  0.1015871E+00
         22   -1    0    0    0    0  0.00000000000E+00  0.00000000000E+00  0.32671709125E+03  0.32671709125E+03  0.00000000000E+00 0.  1.
         22   -1    0    0    0    0 -0.00000000000E+00 -0.00000000000E+00 -0.10263887136E+04  0.10263887136E+04  0.00000000000E+00 0. -1.
        -24    2    1    2    0    0 -0.15416119603E+03  0.17499462261E+03 -0.85831043637E+03  0.89320405945E+03  0.82023742497E+02 0.  0.
         25    2    1    2    0    0  0.12193762117E+03 -0.21672302542E+03  0.52163306219E+01  0.27840229787E+03  0.12507188393E+03 0.  0.
         24    2    1    2    0    0  0.32223574862E+02  0.41728402814E+02  0.15342248339E+03  0.18149944752E+03  0.81387791850E+02 0.  0.
        -11    1    5    5    0    0  0.35758935996E+02  0.64455242558E+02  0.12239827680E+03  0.14287938256E+03  0.00000000000E+00 0.  1.
         12    1    5    5    0    0 -0.35353611339E+01 -0.22726839744E+02  0.31024206596E+02  0.38620064966E+02  0.00000000000E+00 0. -1.
         11    1    3    3    0    0 -0.82829364809E+02  0.57653629822E+02 -0.48621837788E+03  0.49658126797E+03  0.00000000000E+00 0. -1.
        -12    1    3    3    0    0 -0.71331831224E+02  0.11734099278E+03 -0.37209205848E+03  0.39662279148E+03  0.00000000000E+00 0.  1.
          5    1    4    4  501    0  0.11929214741E+03 -0.13888655997E+03 -0.41106798205E+02  0.18768946223E+03  0.41800000000E+01 0. -1.
         -5    1    4    4    0  501  0.26454737592E+01 -0.77836465454E+02  0.46323128827E+02  0.90712835641E+02  0.41800000000E+01 0. -1.
</event>
<event>
11    1  0.8864208E-009  0.1317114E+03  0.7561462E-02  0.1117184E+00
         22   -1    0    0    0    0  0.00000000000E+00  0.00000000000E+00  0.17280793065E+04  0.17280793065E+04  0.00000000000E+00 0. -1.
         22   -1    0    0    0    0 -0.00000000000E+00 -0.00000000000E+00 -0.25065840962E+03  0.25065840962E+03  0.00000000000E+00 0.  1.
        -24    2    1    2    0    0  0.26872299778E+02 -0.35606208948E+02 -0.18674404284E+03  0.20858554399E+03  0.81514839241E+02 0.  0.
         25    2    1    2    0    0  0.35311614591E+01  0.23497811208E+02  0.26310772105E+02  0.13001834425E+03  0.12509155399E+03 0.  0.
         24    2    1    2    0    0 -0.30403461238E+02  0.12108397739E+02  0.16378541677E+04  0.16401338279E+04  0.80010719316E+02 0.  0.
        -11    1    5    5    0    0  0.17912680267E+02 -0.12991240811E+02  0.19477443814E+03  0.19602734045E+03  0.00000000000E+00 0.  1.
         12    1    5    5    0    0 -0.48316141505E+02  0.25099638551E+02  0.14430797295E+04  0.14441064875E+04  0.00000000000E+00 0. -1.
         13    1    3    3    0    0 -0.15651661101E+01 -0.53004565735E+02 -0.74151934643E+02  0.91161631979E+02  0.00000000000E+00 0. -1.
        -14    1    3    3    0    0  0.28437465889E+02  0.17398356787E+02 -0.11259210819E+03  0.11742391201E+03  0.00000000000E+00 0.  1.
          5    1    4    4  501    0 -0.63939970145E+01  0.73819808736E+02  0.52029135269E+01  0.74396169719E+02  0.41800000000E+01 0.  1.
         -5    1    4    4    0  501  0.99251584736E+01 -0.50321997528E+02  0.21107858578E+02  0.55622174532E+02  0.41800000000E+01 0.  1.
</event>
<event>
11    1  0.8864208E-009  0.1319092E+03  0.7561462E-02  0.1116945E+00
         22   -1    0    0    0    0  0.00000000000E+00  0.00000000000E+00  0.14508578913E+04  0.14508578913E+04  0.00000000000E+00 0.  1.
         22   -1    0    0    0    0 -0.00000000000E+00 -0.00000000000E+00 -0.33038233974E+03  0.33038233974E+03  0.00000000000E+00 0. -1.
        -24    2    1    2    0    0 -0.29027383124E+02  0.28405075169E+02 -0.28467689760E+03  0.29956403835E+03  0.83953795487E+02 0.  0.
         25    2    1    2    0    0  0.25092336347E+02 -0.67499055448E+02  0.10535860098E+03  0.17870013654E+03  0.12509019213E+03 0.  0.
         24    2    1    2    0    0  0.39350467773E+01  0.39093980278E+02  0.12997938482E+04  0.13029760562E+04  0.82089775495E+02 0.  0.
        -13    1    5    5    0    0 -0.20431267374E+01 -0.99907353821E+00  0.10429981916E+04  0.10430006712E+04  0.00000000000E+00 0.  1.
         14    1    5    5    0    0  0.59781735147E+01  0.40093053816E+02  0.25679565666E+03  0.25997538499E+03  0.00000000000E+00 0. -1.
         13    1    3    3    0    0 -0.27149964694E+02  0.52193122571E+02 -0.12546425460E+03  0.13857316410E+03  0.00000000000E+00 0. -1.
        -14    1    3    3    0    0 -0.18774184302E+01 -0.23788047402E+02 -0.15921264300E+03  0.16099087425E+03  0.00000000000E+00 0.  1.
          5    1    4    4  501    0 -0.44510529985E+02 -0.20416234706E+02  0.76173721432E+01  0.49734361135E+02  0.41800000000E+01 0. -1.
         -5    1    4    4    0  501  0.69602866332E+02 -0.47082820742E+02  0.97741228837E+02  0.12896577540E+03  0.41800000000E+01 0. -1.
</event>
<event>
11    1  0.8864208E-009  0.1343499E+03  0.7561462E-02  0.1114037E+00
         22   -1    0    0    0    0  0.00000000000E+00  0.00000000000E+00  0.22366632324E+03  0.22366632324E+03  0.00000000000E+00 0. -1.
         22   -1    0    0    0    0 -0.00000000000E+00 -0.00000000000E+00 -0.50576358961E+03  0.50576358961E+03  0.00000000000E+00 0. -1.
        -24    2    1    2    0    0 -0.30390007225E+02 -0.32315348649E+02 -0.31267139104E+03  0.33389625525E+03  0.10842267383E+03 0.  0.
         25    2    1    2    0    0  0.72120269956E+02  0.10681692874E+02 -0.13896271544E+03  0.20067929164E+03  0.12508441113E+03 0.  0.
         24    2    1    2    0    0 -0.41730262731E+02  0.21633655775E+02  0.16953684011E+03  0.19485436596E+03  0.83761888052E+02 0.  0.
        -11    1    5    5    0    0 -0.33611339702E+02  0.23976884673E+02  0.21449783386E+02  0.46526405003E+02  0.00000000000E+00 0.  1.
         12    1    5    5    0    0 -0.81189230285E+01 -0.23432288979E+01  0.14808705673E+03  0.14832796096E+03  0.00000000000E+00 0. -1.
         13    1    3    3    0    0  0.78558299319E+00 -0.56160665927E+02 -0.27056628211E+03  0.27633449035E+03  0.00000000000E+00 0. -1.
        -14    1    3    3    0    0 -0.31175590218E+02  0.23845317278E+02 -0.42105108923E+02  0.57561764905E+02  0.00000000000E+00 0.  1.
          5    1    4    4  501    0  0.47020526339E+02 -0.28446984090E+02 -0.14356254233E+03  0.15377853154E+03  0.41800000000E+01 0.  1.
         -5    1    4    4    0  501  0.25099743617E+02  0.39128676964E+02  0.45998268855E+01  0.46900760100E+02  0.41800000000E+01 0.  1.
</event>
<event>
11    1  0.8864208E-009  0.1473261E+03  0.7561462E-02  0.1099643E+00
         22   -1    0    0    0    0  0.00000000000E+00  0.00000000000E+00  0.81757135542E+03  0.81757135542E+03  0.00000000000E+00 0.  1.
         22   -1    0    0    0    0 -0.00000000000E+00 -0.00000000000E+00 -0.21870499319E+03  0.21870499319E+03  0.00000000000E+00 0. -1.
         24    2    1    2    0    0  0.63596237263E+02  0.10912034508E+02 -0.14838823355E+03  0.18243643621E+03  0.84264058232E+02 0.  0.
         25    2    1    2    0    0  0.18919635559E+02  0.16591346709E+01  0.33819713170E+02  0.13099845418E+03  0.12512440473E+03 0.  0.
        -24    2    1    2    0    0 -0.82515872822E+02 -0.12571169179E+02  0.71343488261E+03  0.72284145822E+03  0.80892140784E+02 0.  0.
        -11    1    3    3    0    0  0.36851913766E+01  0.24656919170E+02 -0.10314026443E+03  0.10611059535E+03  0.00000000000E+00 0.  1.
         12    1    3    3    0    0  0.59911045886E+02 -0.13744884661E+02 -0.45247969114E+02  0.76325840857E+02  0.00000000000E+00 0. -1.
         11    1    5    5    0    0 -0.83238918656E+00 -0.11659009715E+02  0.12315600169E+02  0.16979381226E+02  0.00000000000E+00 0. -1.
        -12    1    5    5    0    0 -0.81683483636E+02 -0.91215946442E+00  0.70111928244E+03  0.70586207700E+03  0.00000000000E+00 0.  1.
          5    1    4    4  501    0  0.46819941916E+02 -0.47042401990E+02  0.34055940458E+02  0.74715286431E+02  0.41800000000E+01 0. -1.
         -5    1    4    4    0  501 -0.27900306357E+02  0.48701536661E+02 -0.23622728751E+00  0.56283167744E+02  0.41800000000E+01 0. -1.
</event>
<event>
11    1  0.8864208E-009  0.1365687E+03  0.7561462E-02  0.1111452E+00
         22   -1    0    0    0    0  0.00000000000E+00  0.00000000000E+00  0.19476047675E+03  0.19476047675E+03  0.00000000000E+00 0.  1.
         22   -1    0    0    0    0 -0.00000000000E+00 -0.00000000000E+00 -0.37483652641E+03  0.37483652641E+03  0.00000000000E+00 0.  1.
        -24    2    1    2    0    0 -0.52309524104E+02 -0.29841890510E+02 -0.26986709349E+03  0.28836353267E+03  0.81844083983E+02 0.  0.
         25    2    1    2    0    0 -0.47501612109E+01 -0.63914472657E+01 -0.23264015531E+02  0.12748244469E+03  0.12508854727E+03 0.  0.
         24    2    1    2    0    0  0.57059685315E+02  0.36233337776E+02  0.11305505936E+03  0.15375102580E+03  0.79304911794E+02 0.  0.
        -13    1    5    5    0    0  0.53561070690E+02  0.42464626350E+02  0.12346584976E+03  0.14112352334E+03  0.00000000000E+00 0.  1.
         14    1    5    5    0    0  0.34986146249E+01 -0.62312885739E+01 -0.10410790401E+02  0.12627502459E+02  0.00000000000E+00 0. -1.
         11    1    3    3    0    0 -0.30029009708E+01  0.25241014472E+02 -0.45344182992E+02  0.51982892927E+02  0.00000000000E+00 0. -1.
        -12    1    3    3    0    0 -0.49306623133E+02 -0.55082904983E+02 -0.22452291050E+03  0.23638063974E+03  0.00000000000E+00 0.  1.
          5    1    4    4  501    0 -0.44501142076E+02 -0.48520745846E+02 -0.21489574059E+02  0.69382192361E+02  0.41800000000E+01 0.  1.
         -5    1    4    4    0  501  0.39750980865E+02  0.42129298581E+02 -0.17744414718E+01  0.58100252333E+02  0.41800000000E+01 0.  1.
</event>
<event>
11    1  0.8864208E-009  0.1475281E+03  0.7561462E-02  0.1099432E+00
         22   -1    0    0    0    0  0.00000000000E+00  0.00000000000E+00  0.18243752751E+03  0.18243752751E+03  0.00000000000E+00 0.  1.
         22   -1    0    0    0    0 -0.00000000000E+00 -0.00000000000E+00 -0.66545833615E+03  0.66545833615E+03  0.00000000000E+00 0. -1.
        -24    2    1    2    0    0 -0.13990175282E+02  0.77563844331E+02 -0.55537440831E+03  0.56640214390E+03  0.78477896596E+02 0.  0.
         25    2    1    2    0    0  0.13043436383E+02 -0.70695115612E+02 -0.33422581659E+02  0.14809825002E+03  0.12509233426E+03 0.  0.
         24    2    1    2    0    0  0.94673889930E+00 -0.68687287196E+01  0.10577618133E+03  0.13339546974E+03  0.80979473089E+02 0.  0.
        -11    1    5    5    0    0  0.35848664911E+02 -0.36531105289E+01  0.21113138435E+02  0.41764058795E+02  0.00000000000E+00 0.  1.
         12    1    5    5    0    0 -0.34901926012E+02 -0.32156181907E+01  0.84663042892E+02  0.91631410943E+02  0.00000000000E+00 0. -1.
         13    1    3    3    0    0  0.13852209338E+02  0.75835772786E+02 -0.30976282728E+03  0.31921146173E+03  0.00000000000E+00 0. -1.
        -14    1    3    3    0    0 -0.27842384620E+02  0.17280715455E+01 -0.24561158103E+03  0.24719068217E+03  0.00000000000E+00 0.  1.
          5    1    4    4  501    0  0.50357565463E+02 -0.86097935542E+02 -0.38908445929E+02  0.10714512807E+03  0.41800000000E+01 0.  1.
         -5    1    4    4    0  501 -0.37314129080E+02  0.15402819930E+02  0.54858642698E+01  0.40953121952E+02  0.41800000000E+01 0.  1.
</event>
<event>
11    1  0.8864208E-009  0.1343472E+03  0.7561462E-02  0.1114040E+00
         22   -1    0    0    0    0  0.00000000000E+00  0.00000000000E+00  0.11430824070E+04  0.11430824070E+04  0.00000000000E+00 0.  1.
         22   -1    0    0    0    0 -0.00000000000E+00 -0.00000000000E+00 -0.51442780741E+03  0.51442780741E+03  0.00000000000E+00 0. -1.
        -24    2    1    2    0    0 -0.16870548273E+02 -0.69960208073E+01 -0.49758874358E+03  0.50263157305E+03  0.68632213883E+02 0.  0.
         25    2    1    2    0    0  0.38704929863E+02 -0.36336205520E+02  0.40601014781E+03  0.42814788427E+03  0.12509188324E+03 0.  0.
         24    2    1    2    0    0 -0.21834381590E+02  0.43332226327E+02  0.72023319533E+03  0.72673075706E+03  0.83948290913E+02 0.  0.
        -11    1    5    5    0    0 -0.26842355877E+02  0.54992019702E+02  0.29362084096E+03  0.29992971267E+03  0.00000000000E+00 0.  1.
         12    1    5    5    0    0  0.50079742869E+01 -0.11659793375E+02  0.42661235437E+03  0.42680104439E+03  0.00000000000E+00 0. -1.
         13    1    3    3    0    0 -0.32909473788E+00 -0.35499176833E+02 -0.19050448013E+03  0.19378404683E+03  0.00000000000E+00 0. -1.
        -14    1    3    3    0    0 -0.16541453535E+02  0.28503156026E+02 -0.30708426346E+03  0.30884752622E+03  0.00000000000E+00 0.  1.
          5    1    4    4  501    0 -0.80538353527E+01 -0.72210538198E+02  0.17137677395E+03  0.18618994909E+03  0.41800000000E+01 0. -1.
         -5    1    4    4    0  501  0.46758765216E+02  0.35874332678E+02  0.23463337385E+03  0.24195793518E+03  0.41800000000E+01 0. -1.
</event>
<event>
11    1  0.8864208E-009  0.1396081E+03  0.7561462E-02  0.1107997E+00
         22   -1    0    0    0    0  0.00000000000E+00  0.00000000000E+00  0.14843187516E+04  0.14843187516E+04  0.00000000000E+00 0. -1.
         22   -1    0    0    0    0 -0.00000000000E+00 -0.00000000000E+00 -0.69079979090E+02  0.69079979090E+02  0.00000000000E+00 0.  1.
        -24    2    1    2    0    0 -0.17471173270E+02 -0.35588281236E+02 -0.20158490556E+02  0.91608062832E+02  0.80086857708E+02 0.  0.
         25    2    1    2    0    0  0.69710565406E+02  0.13196254892E+01  0.46627283676E+03  0.48776894940E+03  0.12508751079E+03 0.  0.
         24    2    1    2    0    0 -0.52239392137E+02  0.34268655747E+02  0.96912442627E+03  0.97402171842E+03  0.74919019713E+02 0.  0.
        -13    1    5    5    0    0 -0.35672123879E+02  0.16607751666E+02  0.16858771330E+03  0.17311884621E+03  0.00000000000E+00 0.  1.
         14    1    5    5    0    0 -0.16567268258E+02  0.17660904081E+02  0.80053671297E+03  0.80090287221E+03  0.00000000000E+00 0. -1.
         11    1    3    3    0    0  0.27198803326E+02 -0.25109859600E+02  0.78662391658E+01  0.37843859081E+02  0.00000000000E+00 0. -1.
        -12    1    3    3    0    0 -0.44669976595E+02 -0.10478421636E+02 -0.28024729722E+02  0.53764203751E+02  0.00000000000E+00 0.  1.
          5    1    4    4  501    0  0.19515616885E+02 -0.59816327950E+02  0.17934496470E+03  0.19010770935E+03  0.41800000000E+01 0.  1.
         -5    1    4    4    0  501  0.50194948522E+02  0.61135953440E+02  0.28692787206E+03  0.29766124004E+03  0.41800000000E+01 0.  1.
</event>
<event>
11    1  0.8864208E-009  0.1131845E+04  0.7561462E-02  0.8562821E-01
         22   -1    0    0    0    0  0.00000000000E+00  0.00000000000E+00  0.19187186500E+04  0.19187186500E+04  0.00000000000E+00 0.  1.
         22   -1    0    0    0    0 -0.00000000000E+00 -0.00000000000E+00 -0.82959686093E+03  0.82959686093E+03  0.00000000000E+00 0.  1.
         24    2    1    2    0    0 -0.23287421487E+03  0.11080434794E+04  0.23101371319E+03  0.11584494641E+04  0.81529583720E+02 0.  0.
         25    2    1    2    0    0  0.18452943734E+03 -0.11008072782E+04  0.51846290089E+03  0.12370453593E+04  0.12509861909E+03 0.  0.
        -24    2    1    2    0    0  0.48344777523E+02 -0.72362012275E+01  0.33964517503E+03  0.35282068750E+03  0.82061029041E+02 0.  0.
        -13    1    3    3    0    0 -0.20570857985E+03  0.87822597132E+03  0.15755702683E+03  0.91565336959E+03  0.00000000000E+00 0.  1.
         14    1    3    3    0    0 -0.27165635013E+02  0.22981750809E+03  0.73456686359E+02  0.24279609454E+03  0.00000000000E+00 0. -1.
         11    1    5    5    0    0  0.54351523569E+02 -0.34180034297E+02  0.27732198640E+03  0.28465742042E+03  0.00000000000E+00 0. -1.
        -12    1    5    5    0    0 -0.60067460460E+01  0.26943833070E+02  0.62323188623E+02  0.68163267077E+02  0.00000000000E+00 0.  1.
          5    1    4    4  501    0  0.82814432808E+02 -0.31037610925E+03  0.20237998763E+03  0.37969289073E+03  0.41800000000E+01 0.  1.
         -5    1    4    4    0  501  0.10171500453E+03 -0.79043116893E+03  0.31608291325E+03  0.85735246860E+03  0.41800000000E+01 0.  1.
</event>
<event>
11    1  0.8864208E-009  0.1399543E+03  0.7561462E-02  0.1107609E+00
         22   -1    0    0    0    0  0.00000000000E+00  0.00000000000E+00  0.10474130158E+04  0.10474130158E+04  0.00000000000E+00 0. -1.
         22   -1    0    0    0    0 -0.00000000000E+00 -0.00000000000E+00 -0.15735490154E+04  0.15735490154E+04  0.00000000000E+00 0. -1.
        -24    2    1    2    0    0 -0.64503756076E+01  0.63986060643E+02 -0.13699844300E+04  0.13737538305E+04  0.78780867233E+02 0.  0.
         25    2    1    2    0    0  0.25386898992E+02 -0.41724826220E+02 -0.17739634250E+03  0.22249077140E+03  0.12508886946E+03 0.  0.
         24    2    1    2    0    0 -0.18936523385E+02 -0.22261234423E+02  0.10212447729E+04  0.10247174292E+04  0.79061804482E+02 0.  0.
        -11    1    5    5    0    0  0.48137367190E+01  0.75499940241E+01  0.13188690775E+02  0.15941017386E+02  0.00000000000E+00 0.  1.
         12    1    5    5    0    0 -0.23750260104E+02 -0.29811228447E+02  0.10080560822E+04  0.10087764118E+04  0.00000000000E+00 0. -1.
         13    1    3    3    0    0  0.35504457865E+02  0.20503921369E+02 -0.50502252951E+03  0.50668405603E+03  0.00000000000E+00 0. -1.
        -14    1    3    3    0    0 -0.41954833472E+02  0.43482139274E+02 -0.86496190053E+03  0.86706977450E+03  0.00000000000E+00 0.  1.
          5    1    4    4  501    0  0.87410233493E+01 -0.10680039443E+02  0.18473167943E+02  0.23434996598E+02  0.41800000000E+01 0.  1.
         -5    1    4    4    0  501  0.16645875643E+02 -0.31044786777E+02 -0.19586951044E+03  0.19905577480E+03  0.41800000000E+01 0.  1.
</event>
<event>
11    1  0.8864208E-009  0.1359909E+03  0.7561462E-02  0.1112120E+00
         22   -1    0    0    0    0  0.00000000000E+00  0.00000000000E+00  0.16552507700E+03  0.16552507700E+03  0.00000000000E+00 0. -1.
         22   -1    0    0    0    0 -0.00000000000E+00 -0.00000000000E+00 -0.21932670381E+04  0.21932670381E+04  0.00000000000E+00 0.  1.
        -24    2    1    2    0    0 -0.55533429381E+02 -0.68986014663E+01 -0.16836987734E+04  0.16865530439E+04  0.80548481700E+02 0.  0.
         25    2    1    2    0    0  0.26803667424E+02  0.51548677425E+02 -0.48391727809E+03  0.50318869465E+03  0.12508887902E+03 0.  0.
         24    2    1    2    0    0  0.28729761958E+02 -0.44650075958E+02  0.13987409043E+03  0.16905037650E+03  0.78703494926E+02 0.  0.
        -13    1    5    5    0    0 -0.25073533345E+01 -0.87893165823E+01 -0.89620916156E+01  0.12800702827E+02  0.00000000000E+00 0.  1.
         14    1    5    5    0    0  0.31237115292E+02 -0.35860759376E+02  0.14883618205E+03  0.15624967367E+03  0.00000000000E+00 0. -1.
         11    1    3    3    0    0  0.36034729368E+01  0.15471852139E+02 -0.77555022838E+02  0.79165300437E+02  0.00000000000E+00 0. -1.
        -12    1    3    3    0    0 -0.59136902318E+02 -0.22370453606E+02 -0.16061437506E+04  0.16073877435E+04  0.00000000000E+00 0.  1.
          5    1    4    4  501    0  0.22700534427E+02 -0.25019799870E+02 -0.39319151335E+02  0.52007429378E+02  0.41800000000E+01 0.  1.
         -5    1    4    4    0  501  0.41031329964E+01  0.76568477294E+02 -0.44459812676E+03  0.45118126527E+03  0.41800000000E+01 0.  1.
</event>
<event>
11    1  0.8864208E-009  0.2015835E+03  0.7561462E-02  0.1053410E+00
         22   -1    0    0    0    0  0.00000000000E+00  0.00000000000E+00  0.71890509986E+03  0.71890509986E+03  0.00000000000E+00 0.  1.
         22   -1    0    0    0    0 -0.00000000000E+00 -0.00000000000E+00 -0.17631312262E+03  0.17631312262E+03  0.00000000000E+00 0.  1.
         24    2    1    2    0    0  0.16202455764E+03  0.31639818131E+02 -0.67817438479E+02  0.19583141561E+03  0.80608330871E+02 0.  0.
         25    2    1    2    0    0 -0.13364083540E+03 -0.20277920216E+02  0.16981014266E+03  0.25050674723E+03  0.12508828451E+03 0.  0.
        -24    2    1    2    0    0 -0.28383722247E+02 -0.11361897915E+02  0.44059927306E+03  0.44888005964E+03  0.80192643756E+02 0.  0.
        -13    1    3    3    0    0  0.17123066401E+03  0.32734293577E+02 -0.65852259680E+02  0.18635448580E+03  0.00000000000E+00 0.  1.
         14    1    3    3    0    0 -0.92061063635E+01 -0.10944754454E+01 -0.19651787985E+01  0.94769298081E+01  0.00000000000E+00 0. -1.
         13    1    5    5    0    0 -0.18507616617E+02  0.34326637929E+02  0.19071711125E+03  0.19466346978E+03  0.00000000000E+00 0. -1.
        -14    1    5    5    0    0 -0.98761056298E+01 -0.45688535845E+02  0.24988216181E+03  0.25421658986E+03  0.00000000000E+00 0.  1.
          5    1    4    4  501    0 -0.15373994772E+03 -0.31184464367E+02  0.16304617218E+03  0.22629619750E+03  0.41800000000E+01 0. -1.
         -5    1    4    4    0  501  0.20099112319E+02  0.10906544151E+02  0.67639704819E+01  0.24210549725E+02  0.41800000000E+01 0. -1.
</event>
<event>
11    1  0.8864208E-009  0.1863045E+03  0.7561462E-02  0.1064654E+00
         22   -1    0    0    0    0  0.00000000000E+00  0.00000000000E+00  0.82278473761E+03  0.82278473761E+03  0.00000000000E+00 0.  1.
         22   -1    0    0    0    0 -0.00000000000E+00 -0.00000000000E+00 -0.27310166076E+03  0.27310166076E+03  0.00000000000E+00 0. -1.
         24    2    1    2    0    0 -0.60980071146E+02 -0.11276795683E+03 -0.16431760555E+03  0.22539788306E+03  0.85841417908E+02 0.  0.
         25    2    1    2    0    0  0.65639430500E+02  0.19284507115E+03  0.12330319675E+03  0.26897777605E+03  0.12509040481E+03 0.  0.
        -24    2    1    2    0    0 -0.46593593541E+01 -0.80077114319E+02  0.59069748564E+03  0.60151073926E+03  0.80359168937E+02 0.  0.
        -11    1    3    3    0    0 -0.38809823788E+02 -0.77450537765E+02 -0.42209766034E+02  0.96366241865E+02  0.00000000000E+00 0.  1.
         12    1    3    3    0    0 -0.22170247358E+02 -0.35317419064E+02 -0.12210783952E+03  0.12903164119E+03  0.00000000000E+00 0. -1.
         13    1    5    5    0    0  0.30766008796E+02 -0.23120651004E+02  0.33341109533E+03  0.33562489522E+03  0.00000000000E+00 0. -1.
        -14    1    5    5    0    0 -0.35425368150E+02 -0.56956463315E+02  0.25728639031E+03  0.26588584404E+03  0.00000000000E+00 0.  1.
          5    1    4    4  501    0 -0.68563540188E+01  0.33404287709E+02 -0.22481212835E+02  0.41057683304E+02  0.41800000000E+01 0. -1.
         -5    1    4    4    0  501  0.72495784519E+02  0.15944078344E+03  0.14578440959E+03  0.22792009274E+03  0.41800000000E+01 0. -1.
</event>
<event>
11    1  0.8864208E-009  0.1349064E+03  0.7561462E-02  0.1113383E+00
         22   -1    0    0    0    0  0.00000000000E+00  0.00000000000E+00  0.21580085883E+04  0.21580085883E+04  0.00000000000E+00 0.  1.
         22   -1    0    0    0    0 -0.00000000000E+00 -0.00000000000E+00 -0.96047104671E+03  0.96047104671E+03  0.00000000000E+00 0. -1.
        -24    2    1    2    0    0  0.13450284193E+02 -0.19420568501E+00 -0.91745264651E+03  0.92108745517E+03  0.80633700339E+02 0.  0.
         25    2    1    2    0    0 -0.63246324580E+02 -0.59431791334E+01  0.82524414843E+02  0.16276658886E+03  0.12508902611E+03 0.  0.
         24    2    1    2    0    0  0.49796040386E+02  0.61373848184E+01  0.20324657733E+04  0.20346255910E+04  0.79163519747E+02 0.  0.
        -11    1    5    5    0    0 -0.77486521500E+00  0.13470671254E+01  0.14359557875E+04  0.14359566284E+04  0.00000000000E+00 0.  1.
         12    1    5    5    0    0  0.50570905601E+02  0.47903176929E+01  0.59650998583E+03  0.59866896264E+03  0.00000000000E+00 0. -1.
         11    1    3    3    0    0 -0.21345700531E+02  0.24857131832E+02 -0.57955620059E+03  0.58048161519E+03  0.00000000000E+00 0. -1.
        -12    1    3    3    0    0  0.34795984725E+02 -0.25051337517E+02 -0.33789644592E+03  0.34060583998E+03  0.00000000000E+00 0.  1.
          5    1    4    4  501    0 -0.95112042566E+02  0.12180228875E+02  0.81405591829E+02  0.12585309451E+03  0.41800000000E+01 0.  1.
         -5    1    4    4    0  501  0.31865717986E+02 -0.18123408008E+02  0.11188230139E+01  0.36913494355E+02  0.41800000000E+01 0.  1.
</event>
<event>
11    1  0.8864208E-009  0.1721498E+03  0.7561462E-02  0.1076176E+00
         22   -1    0    0    0    0  0.00000000000E+00  0.00000000000E+00  0.15719416003E+04  0.15719416003E+04  0.00000000000E+00 0. -1.
         22   -1    0    0    0    0 -0.00000000000E+00 -0.00000000000E+00 -0.93892454401E+02  0.93892454401E+02  0.00000000000E+00 0.  1.
         24    2    1    2    0    0  0.18214956894E+02 -0.11842763166E+03 -0.23326124832E+02  0.14514157158E+03  0.78518017728E+02 0.  0.
         25    2    1    2    0    0 -0.41282327012E+02  0.85936203646E+02  0.10521337399E+04  0.10638241364E+04  0.12508846890E+03 0.  0.
        -24    2    1    2    0    0  0.23067370119E+02  0.32491428010E+02  0.44924153089E+03  0.45686834672E+03  0.72958458713E+02 0.  0.
        -11    1    3    3    0    0 -0.21555916451E+02 -0.92773066872E+02 -0.22216583202E+02  0.97801206741E+02  0.00000000000E+00 0.  1.
         12    1    3    3    0    0  0.39770873345E+02 -0.25654564785E+02 -0.11095416301E+01  0.47340364844E+02  0.00000000000E+00 0. -1.
         11    1    5    5    0    0  0.41853683264E+02 -0.12777877543E+00  0.30222550212E+03  0.30510981836E+03  0.00000000000E+00 0. -1.
        -12    1    5    5    0    0 -0.18786313145E+02  0.32619206786E+02  0.14701602877E+03  0.15175852836E+03  0.00000000000E+00 0.  1.
          5    1    4    4  501    0  0.24401502254E+02 -0.20205808288E+02  0.18434153767E+03  0.18709084134E+03  0.41800000000E+01 0.  1.
         -5    1    4    4    0  501 -0.65683829266E+02  0.10614201193E+03  0.86779220219E+03  0.87673329508E+03  0.41800000000E+01 0.  1.
</event>
<event>
11    1  0.8864208E-009  0.1791669E+03  0.7561462E-02  0.1070319E+00
         22   -1    0    0    0    0  0.00000000000E+00  0.00000000000E+00  0.15232900181E+04  0.15232900181E+04  0.00000000000E+00 0. -1.
         22   -1    0    0    0    0 -0.00000000000E+00 -0.00000000000E+00 -0.96375460397E+03  0.96375460397E+03  0.00000000000E+00 0. -1.
         24    2    1    2    0    0 -0.25106898202E+02 -0.13209525398E+03 -0.75422284380E+03  0.77038795867E+03  0.81030835482E+02 0.  0.
         25    2    1    2    0    0  0.44044876702E+02  0.95648073211E+02 -0.16660737513E+03  0.23343948510E+03  0.12508985043E+03 0.  0.
        -24    2    1    2    0    0 -0.18937978500E+02  0.36447180772E+02  0.14803656330E+04  0.14832171783E+04  0.82241999226E+02 0.  0.
        -13    1    3    3    0    0 -0.19833493018E+02  0.35264686938E+01 -0.13253595229E+03  0.13405812947E+03  0.00000000000E+00 0.  1.
         14    1    3    3    0    0 -0.52734051841E+01 -0.13562172268E+03 -0.62168689151E+03  0.63632982920E+03  0.00000000000E+00 0. -1.
         11    1    5    5    0    0  0.18277477507E+02 -0.88799069213E+01  0.82018077339E+03  0.82043245912E+03  0.00000000000E+00 0. -1.
        -12    1    5    5    0    0 -0.37215456007E+02  0.45327087693E+02  0.66018485963E+03  0.66278471914E+03  0.00000000000E+00 0.  1.
          5    1    4    4  501    0  0.39576267161E+02 -0.87608433641E+00 -0.11931187975E+03  0.12577696727E+03  0.41800000000E+01 0.  1.
         -5    1    4    4    0  501  0.44686095413E+01  0.96524157547E+02 -0.47295495387E+02  0.10766251783E+03  0.41800000000E+01 0.  1.
</event>
<event>
11    1  0.8864208E-009  0.1561351E+03  0.7561462E-02  0.1090770E+00
         22   -1    0    0    0    0  0.00000000000E+00  0.00000000000E+00  0.85307351052E+02  0.85307351052E+02  0.00000000000E+00 0.  1.
         22   -1    0    0    0    0 -0.00000000000E+00 -0.00000000000E+00 -0.17113427094E+04  0.17113427094E+04  0.00000000000E+00 0. -1.
        -24    2    1    2    0    0 -0.33982069371E+02  0.31067113197E+02 -0.11997209174E+04  0.12032903537E+04  0.80358254481E+02 0.  0.
         25    2    1    2    0    0  0.10295329457E+03 -0.86628741150E+02 -0.43722039161E+03  0.47424886562E+03  0.12508555492E+03 0.  0.
         24    2    1    2    0    0 -0.68971225196E+02  0.55561627952E+02  0.10905950667E+02  0.11911084114E+03  0.78894412419E+02 0.  0.
        -13    1    5    5    0    0 -0.83245048358E+02  0.59912092347E+02  0.39293097627E+01  0.10263837665E+03  0.00000000000E+00 0.  1.
         14    1    5    5    0    0  0.14273823162E+02 -0.43504643946E+01  0.69766409042E+01  0.16472464491E+02  0.00000000000E+00 0. -1.
         13    1    3    3    0    0 -0.36909553523E+02  0.17605409489E+02 -0.11678951565E+04  0.11686108686E+04  0.00000000000E+00 0. -1.
        -14    1    3    3    0    0  0.29274841518E+01  0.13461703708E+02 -0.31825760867E+02  0.34679485073E+02  0.00000000000E+00 0.  1.
          5    1    4    4  501    0  0.18097118900E+02  0.16718360636E+02 -0.20283779603E+03  0.20437136099E+03  0.41800000000E+01 0.  1.
         -5    1    4    4    0  501  0.84856175666E+02 -0.10334710179E+03 -0.23438259557E+03  0.26987750463E+03  0.41800000000E+01 0.  1.
</event>
<event>
11    1  0.8864208E-009  0.1304446E+03  0.7561462E-02  0.1118724E+00
         22   -1    0    0    0    0  0.00000000000E+00  0.00000000000E+00  0.76537546136E+02  0.76537546136E+02  0.00000000000E+00 0.  1.
         22   -1    0    0    0    0 -0.00000000000E+00 -0.00000000000E+00 -0.88798688631E+03  0.88798688631E+03  0.00000000000E+00 0.  1.
        -24    2    1    2    0    0 -0.41802493330E+02 -0.35839087012E+01 -0.59927649442E+03  0.60593427378E+03  0.79143758577E+02 0.  0.
         25    2    1    2    0    0  0.97445088094E+01  0.23176065138E+02 -0.23629823541E+03  0.26854742940E+03  0.12509508517E+03 0.  0.
         24    2    1    2    0    0  0.32057984520E+02 -0.19592156437E+02  0.24125389663E+02  0.90042729262E+02  0.78192657592E+02 0.  0.
        -13    1    5    5    0    0  0.16440086248E+02 -0.31388033668E+02  0.47688660182E+02  0.59411222873E+02  0.00000000000E+00 0.  1.
         14    1    5    5    0    0  0.15617898273E+02  0.11795877231E+02 -0.23563270519E+02  0.30631506389E+02  0.00000000000E+00 0. -1.
         11    1    3    3    0    0  0.20173974707E+02 -0.84726829001E+01 -0.79609641819E+02  0.82561920288E+02  0.00000000000E+00 0. -1.
        -12    1    3    3    0    0 -0.61976468037E+02  0.48887741988E+01 -0.51966685260E+03  0.52337235349E+03  0.00000000000E+00 0.  1.
          5    1    4    4  501    0  0.21027021574E+02  0.51803611777E+02 -0.23016435063E+03  0.23689417580E+03  0.41800000000E+01 0.  1.
         -5    1    4    4    0  501 -0.11282512765E+02 -0.28627546639E+02 -0.61338847829E+01  0.31653253599E+02  0.41800000000E+01 0.  1.
</event>
<event>
11    1  0.8864208E-009  0.1270928E+03  0.7561462E-02  0.1122893E+00
         22   -1    0    0    0    0  0.00000000000E+00  0.00000000000E+00  0.14217124402E+03  0.14217124402E+03  0.00000000000E+00 0.  1.
         22   -1    0    0    0    0 -0.00000000000E+00 -0.00000000000E+00 -0.13606451259E+04  0.13606451259E+04  0.00000000000E+00 0.  1.
        -24    2    1    2    0    0  0.31327154371E+02  0.39461887356E+01 -0.96539620257E+03  0.96927277212E+03  0.80640658593E+02 0.  0.
         25    2    1    2    0    0 -0.52287738691E+02 -0.53624008739E+01 -0.36312102984E+03  0.38764473661E+03  0.12509514998E+03 0.  0.
         24    2    1    2    0    0  0.20960584320E+02  0.14162121383E+01  0.11004335055E+03  0.14589886117E+03  0.93464361868E+02 0.  0.
        -11    1    5    5    0    0  0.17288588151E+02 -0.13813233827E+01  0.12707479523E+03  0.12825290218E+03  0.00000000000E+00 0.  1.
         12    1    5    5    0    0  0.36719961694E+01  0.27975355210E+01 -0.17031444681E+02  0.17645958993E+02  0.00000000000E+00 0. -1.
         11    1    3    3    0    0  0.39386243509E+02 -0.61830442448E+01 -0.20916215658E+03  0.21292795485E+03  0.00000000000E+00 0. -1.
        -12    1    3    3    0    0 -0.80590891383E+01  0.10129232980E+02 -0.75623404600E+03  0.75634481727E+03  0.00000000000E+00 0.  1.
          5    1    4    4  501    0  0.11048786014E+02  0.17609051876E+02 -0.27892453958E+03  0.27972937915E+03  0.41800000000E+01 0.  1.
         -5    1    4    4    0  501 -0.63336524705E+02 -0.22971452750E+02 -0.84196490263E+02  0.10791535746E+03  0.41800000000E+01 0.  1.
</event>
<event>
11    1  0.8864208E-009  0.1796141E+03  0.7561462E-02  0.1069955E+00
         22   -1    0    0    0    0  0.00000000000E+00  0.00000000000E+00  0.20339043857E+03  0.20339043857E+03  0.00000000000E+00 0.  1.
         22   -1    0    0    0    0 -0.00000000000E+00 -0.00000000000E+00 -0.10089467480E+04  0.10089467480E+04  0.00000000000E+00 0.  1.
         24    2    1    2    0    0  0.47801002817E+02 -0.22416391733E+02 -0.62703918270E+03  0.63461119040E+03  0.82254457954E+02 0.  0.
         25    2    1    2    0    0  0.78073583291E+02 -0.21870464738E+02 -0.32930413392E+03  0.36147368412E+03  0.12509280579E+03 0.  0.
        -24    2    1    2    0    0 -0.12587458611E+03  0.44286856470E+02  0.15078700719E+03  0.21625231204E+03  0.78883482672E+02 0.  0.
        -11    1    3    3    0    0  0.31532557732E+02  0.28316869246E+02 -0.21457624555E+03  0.21872154085E+03  0.00000000000E+00 0.  1.
         12    1    3    3    0    0  0.16268445085E+02 -0.50733260979E+02 -0.41246293716E+03  0.41588964955E+03  0.00000000000E+00 0. -1.
         11    1    5    5    0    0 -0.73713841983E+02  0.49926061680E+02  0.48715302721E+02  0.10148656489E+03  0.00000000000E+00 0. -1.
        -12    1    5    5    0    0 -0.52160744126E+02 -0.56392052093E+01  0.10207170447E+03  0.11476574714E+03  0.00000000000E+00 0.  1.
          5    1    4    4  501    0  0.78543849953E+02 -0.33577907078E+02 -0.33643489488E+03  0.34713473336E+03  0.41800000000E+01 0.  1.
         -5    1    4    4    0  501 -0.47026666189E+00  0.11707442340E+02  0.71307609672E+01  0.14338950758E+02  0.41800000000E+01 0.  1.
</event>
<event>
11    1  0.8864208E-009  0.1402421E+03  0.7561462E-02  0.1107288E+00
         22   -1    0    0    0    0  0.00000000000E+00  0.00000000000E+00  0.23597944806E+04  0.23597944806E+04  0.00000000000E+00 0.  1.
         22   -1    0    0    0    0 -0.00000000000E+00 -0.00000000000E+00 -0.16705337653E+04  0.16705337653E+04  0.00000000000E+00 0. -1.
         24    2    1    2    0    0  0.73668556042E+01  0.62919971511E+02 -0.16539978667E+04  0.16571301475E+04  0.79738253547E+02 0.  0.
         25    2    1    2    0    0 -0.50008810982E+02 -0.70074016063E+02  0.40053595679E+03  0.42835634936E+03  0.12509540541E+03 0.  0.
        -24    2    1    2    0    0  0.42641955378E+02  0.71540445517E+01  0.19427226252E+04  0.19448417491E+04  0.79804222215E+02 0.  0.
        -13    1    3    3    0    0  0.67180032393E+01  0.37164122402E+01 -0.13244118963E+02  0.15308493543E+02  0.00000000000E+00 0.  1.
         14    1    3    3    0    0  0.64885236491E+00  0.59203559271E+02 -0.16407537478E+04  0.16418216539E+04  0.00000000000E+00 0. -1.
         11    1    5    5    0    0 -0.16668067719E+02  0.23859412374E+02  0.65119576401E+03  0.65184585532E+03  0.00000000000E+00 0. -1.
        -12    1    5    5    0    0  0.59310023097E+02 -0.16705367823E+02  0.12915268612E+04  0.12929958938E+04  0.00000000000E+00 0.  1.
          5    1    4    4  501    0 -0.44298052862E+02 -0.45399575699E+02  0.39745088539E+03  0.40250232006E+03  0.41800000000E+01 0.  1.
         -5    1    4    4    0  501 -0.57107581198E+01 -0.24674440364E+02  0.30850714042E+01  0.25854029302E+02  0.41800000000E+01 0.  1.
</event>
<event>
11    1  0.8864208E-009  0.1611313E+03  0.7561462E-02  0.1086018E+00
         22   -1    0    0    0    0  0.00000000000E+00  0.00000000000E+00  0.90732134089E+03  0.90732134089E+03  0.00000000000E+00 0.  1.
         22   -1    0    0    0    0 -0.00000000000E+00 -0.00000000000E+00 -0.59728092070E+03  0.59728092070E+03  0.00000000000E+00 0.  1.
         24    2    1    2    0    0 -0.79858738205E+02 -0.63323285756E+02 -0.57458256872E+03  0.58914592772E+03  0.80997156053E+02 0.  0.
         25    2    1    2    0    0  0.44841940479E+02  0.67221695718E+02  0.51103246269E+03  0.53228725300E+03  0.12508391498E+03 0.  0.
        -24    2    1    2    0    0  0.35016797726E+02 -0.38984099617E+01  0.37359052622E+03  0.38316908086E+03  0.77506706316E+02 0.  0.
        -11    1    3    3    0    0 -0.80108264452E+02 -0.17684085502E+02 -0.31083032574E+03  0.32147403055E+03  0.00000000000E+00 0.  1.
         12    1    3    3    0    0  0.24952624655E+00 -0.45639200254E+02 -0.26375224297E+03  0.26767189717E+03  0.00000000000E+00 0. -1.
         11    1    5    5    0    0  0.31834604058E+02  0.24476035985E+02  0.95260023409E+02  0.10337790099E+03  0.00000000000E+00 0. -1.
        -12    1    5    5    0    0  0.31821936677E+01 -0.28374445947E+02  0.27833050281E+03  0.27979117988E+03  0.00000000000E+00 0.  1.
          5    1    4    4  501    0 -0.14486739985E+02 -0.12965524124E+02  0.27874809674E+03  0.27945651592E+03  0.41800000000E+01 0.  1.
         -5    1    4    4    0  501  0.59328680464E+02  0.80187219842E+02  0.23228436594E+03  0.25283073708E+03  0.41800000000E+01 0.  1.
</event>
<event>
11    1  0.8864208E-009  0.1875964E+03  0.7561462E-02  0.1063659E+00
         22   -1    0    0    0    0  0.00000000000E+00  0.00000000000E+00  0.22515288284E+03  0.22515288284E+03  0.00000000000E+00 0.  1.
         22   -1    0    0    0    0 -0.00000000000E+00 -0.00000000000E+00 -0.28089816625E+03  0.28089816625E+03  0.00000000000E+00 0. -1.
         24    2    1    2    0    0 -0.14577062079E+03  0.61204226435E+02 -0.14698681141E+03  0.23002006869E+03  0.79429705098E+02 0.  0.
         25    2    1    2    0    0  0.88257914309E+02 -0.25160110471E+02  0.55637362557E+02  0.16481853114E+03  0.12508853464E+03 0.  0.
        -24    2    1    2    0    0  0.57512706484E+02 -0.36044115964E+02  0.35604165447E+02  0.11121244925E+03  0.80583264811E+02 0.  0.
        -11    1    3    3    0    0 -0.87763862593E+01  0.36218094434E+02 -0.24839303870E+02  0.44785782755E+02  0.00000000000E+00 0.  1.
         12    1    3    3    0    0 -0.13699423453E+03  0.24986132001E+02 -0.12214750754E+03  0.18523428594E+03  0.00000000000E+00 0. -1.
         13    1    5    5    0    0 -0.12386922008E+02  0.13931245172E+02  0.12877976439E+01  0.18686194145E+02  0.00000000000E+00 0. -1.
        -14    1    5    5    0    0  0.69899628492E+02 -0.49975361136E+02  0.34316367803E+02  0.92526255102E+02  0.00000000000E+00 0.  1.
          5    1    4    4  501    0  0.71843492404E+02  0.28625007163E+02 -0.10217581637E+02  0.78120098632E+02  0.41800000000E+01 0.  1.
         -5    1    4    4    0  501  0.16414421905E+02 -0.53785117634E+02  0.65854944193E+02  0.86698432512E+02  0.41800000000E+01 0.  1.
</event>
<event>
11    1  0.1101774E-008  0.1583313E+03  0.7561462E-02  0.1088657E+00
         22   -1    0    0    0    0  0.00000000000E+00  0.00000000000E+00  0.70915185178E+03  0.70915185178E+03  0.00000000000E+00 0. -1.
         22   -1    0    0    0    0 -0.00000000000E+00 -0.00000000000E+00 -0.62487760439E+03  0.62487760439E+03  0.00000000000E+00 0.  1.
        -24    2    1    2    0    0  0.21300577211E+02 -0.90699724848E+02 -0.51289056891E+03  0.52727217745E+03  0.79240512084E+02 0.  0.
         25    2    1    2    0    0  0.86668997893E+01  0.15739169257E+03  0.13496690071E+01  0.20123860769E+03  0.12509154878E+03 0.  0.
         24    2    1    2    0    0 -0.29967477001E+02 -0.66691967726E+02  0.59581514728E+03  0.60551867103E+03  0.79443709638E+02 0.  0.
        -11    1    5    5    0    0 -0.27209324215E+01 -0.27805951027E+02  0.47173291751E+02  0.54826032506E+02  0.00000000000E+00 0.  1.
         12    1    5    5    0    0 -0.27246544579E+02 -0.38886016699E+02  0.54864185553E+03  0.55069263853E+03  0.00000000000E+00 0. -1.
         11    1    3    3    0    0  0.10010599438E+02 -0.32432898720E+02 -0.49044690732E+02  0.59644670420E+02  0.00000000000E+00 0. -1.
        -12    1    3    3    0    0  0.11289977773E+02 -0.58266826128E+02 -0.46384587818E+03  0.46762750702E+03  0.00000000000E+00 0.  1.
          5    1    4    4  501    0  0.43645284851E+02  0.15997550128E+03 -0.35780099402E+00  0.16587547233E+03  0.41800000000E+01 0. -1.
         -5    1    4    4    0  501 -0.34978385062E+02 -0.25838087039E+01  0.17074700012E+01  0.35363135364E+02  0.41800000000E+01 0. -1.
</event>
<event>
11    1  0.8864208E-009  0.1692134E+03  0.7561462E-02  0.1078718E+00
         22   -1    0    0    0    0  0.00000000000E+00  0.00000000000E+00  0.10788206403E+04  0.10788206403E+04  0.00000000000E+00 0.  1.
         22   -1    0    0    0    0 -0.00000000000E+00 -0.00000000000E+00 -0.81088496422E+03  0.81088496422E+03  0.00000000000E+00 0. -1.
         24    2    1    2    0    0  0.18111351511E+00  0.40901135542E+02 -0.67736339610E+03  0.68319819741E+03  0.79155990813E+02 0.  0.
         25    2    1    2    0    0 -0.38832931805E+02 -0.14661586656E+03 -0.49091857386E+02  0.20263568683E+03  0.12508797782E+03 0.  0.
        -24    2    1    2    0    0  0.38651818290E+02  0.10571473102E+03  0.99439092954E+03  0.10038717203E+04  0.79218322120E+02 0.  0.
        -13    1    3    3    0    0  0.47415664876E+01  0.31554177238E+02 -0.85764820349E+02  0.91508212546E+02  0.00000000000E+00 0.  1.
         14    1    3    3    0    0 -0.45604529725E+01  0.93469583040E+01 -0.59159857575E+03  0.59168998486E+03  0.00000000000E+00 0. -1.
         11    1    5    5    0    0  0.78306761874E+01 -0.77829777096E+01  0.24456385596E+02  0.26832983956E+02  0.00000000000E+00 0. -1.
        -12    1    5    5    0    0  0.30821142103E+02  0.11349770873E+03  0.96993454394E+03  0.97703873630E+03  0.00000000000E+00 0.  1.
          5    1    4    4  501    0 -0.62122330547E+02 -0.46682090969E+02  0.18118328846E+02  0.79900862385E+02  0.41800000000E+01 0. -1.
         -5    1    4    4    0  501  0.23289398741E+02 -0.99933775592E+02 -0.67210186232E+02  0.12273482444E+03  0.41800000000E+01 0. -1.
</event>
<event>
11    1  0.8864208E-009  0.1450969E+03  0.7561462E-02  0.1101997E+00
         22   -1    0    0    0    0  0.00000000000E+00  0.00000000000E+00  0.89721050292E+03  0.89721050292E+03  0.00000000000E+00 0.  1.
         22   -1    0    0    0    0 -0.00000000000E+00 -0.00000000000E+00 -0.91164625924E+02  0.91164625924E+02  0.00000000000E+00 0.  1.
        -24    2    1    2    0    0  0.14663376508E+02  0.43218604640E+02 -0.26195925546E+02  0.96482970384E+02  0.80869491535E+02 0.  0.
         25    2    1    2    0    0  0.51929305840E+02 -0.11865766662E+01  0.15580554220E+03  0.20644911411E+03  0.12509120259E+03 0.  0.
         24    2    1    2    0    0 -0.66592682348E+02 -0.42032027974E+02  0.67643626034E+03  0.68544304435E+03  0.77877313984E+02 0.  0.
        -13    1    5    5    0    0 -0.23912527626E+02 -0.31951607040E+02  0.55317630954E+03  0.55461404924E+03  0.00000000000E+00 0.  1.
         14    1    5    5    0    0 -0.42680154723E+02 -0.10080420934E+02  0.12325995079E+03  0.13082899512E+03  0.00000000000E+00 0. -1.
         13    1    3    3    0    0 -0.26020361119E+01 -0.22620986464E+02  0.18940511087E+01  0.22848786622E+02  0.00000000000E+00 0. -1.
        -14    1    3    3    0    0  0.17265412620E+02  0.65839591104E+02 -0.28089976655E+02  0.73634183761E+02  0.00000000000E+00 0.  1.
          5    1    4    4  501    0  0.50954660715E+02 -0.10246906208E+02  0.17618401763E+03  0.18373801186E+03  0.41800000000E+01 0.  1.
         -5    1    4    4    0  501  0.97464512503E+00  0.90603295421E+01 -0.20378475425E+02  0.22711102245E+02  0.41800000000E+01 0.  1.
</event>
<event>
11    1  0.8864208E-009  0.1595962E+03  0.7561462E-02  0.1087458E+00
         22   -1    0    0    0    0  0.00000000000E+00  0.00000000000E+00  0.86681852705E+03  0.86681852705E+03  0.00000000000E+00 0. -1.
         22   -1    0    0    0    0 -0.00000000000E+00 -0.00000000000E+00 -0.49329087285E+03  0.49329087285E+03  0.00000000000E+00 0. -1.
        -24    2    1    2    0    0 -0.34700086319E+02 -0.12144486516E+03 -0.35087763678E+03  0.38151621233E+03  0.80539139655E+02 0.  0.
         25    2    1    2    0    0  0.28223454628E+02  0.29269845895E+02 -0.87172886403E+02  0.15779372820E+03  0.12508581560E+03 0.  0.
         24    2    1    2    0    0  0.64766316915E+01  0.92175019264E+02  0.81157817738E+03  0.82079945937E+03  0.80712041058E+02 0.  0.
        -11    1    5    5    0    0  0.32421060956E+02  0.79867354279E+01  0.27795577733E+03  0.27995415212E+03  0.00000000000E+00 0.  1.
         12    1    5    5    0    0 -0.25944429264E+02  0.84188283836E+02  0.53362240005E+03  0.54084530726E+03  0.00000000000E+00 0. -1.
         11    1    3    3    0    0 -0.14113130946E+02 -0.12754632045E+03 -0.30000945269E+03  0.32630187868E+03  0.00000000000E+00 0. -1.
        -12    1    3    3    0    0 -0.20586955373E+02  0.61014552930E+01 -0.50868184086E+02  0.55214333650E+02  0.00000000000E+00 0.  1.
          5    1    4    4  501    0  0.17596775446E+02  0.61896290557E+02 -0.50494473153E+00  0.64486623884E+02  0.41800000000E+01 0.  1.
         -5    1    4    4    0  501  0.10626679182E+02 -0.32626444661E+02 -0.86667941671E+02  0.93307104313E+02  0.41800000000E+01 0.  1.
</event>
<event>
11    1  0.8864208E-009  0.1302964E+03  0.7561462E-02  0.1118905E+00
         22   -1    0    0    0    0  0.00000000000E+00  0.00000000000E+00  0.75419854186E+03  0.75419854186E+03  0.00000000000E+00 0. -1.
         22   -1    0    0    0    0 -0.00000000000E+00 -0.00000000000E+00 -0.12184848158E+03  0.12184848158E+03  0.00000000000E+00 0.  1.
        -24    2    1    2    0    0 -0.73448825446E+01  0.20191648719E+01 -0.84733492400E+02  0.11807650692E+03  0.81879621548E+02 0.  0.
         25    2    1    2    0    0 -0.29406207068E+02  0.74696778163E+01  0.23523653937E+03  0.26814882773E+03  0.12508814194E+03 0.  0.
         24    2    1    2    0    0  0.36751089613E+02 -0.94888426883E+01  0.48184701330E+03  0.48982168880E+03  0.79423308081E+02 0.  0.
        -13    1    5    5    0    0 -0.10316230318E+01 -0.31249674480E+02  0.84669709920E+02  0.90258330248E+02  0.00000000000E+00 0.  1.
         14    1    5    5    0    0  0.37782712644E+02  0.21760831791E+02  0.39717730338E+03  0.39956335855E+03  0.00000000000E+00 0. -1.
         13    1    3    3    0    0  0.16247237882E+02  0.32028856495E+02 -0.15708365373E+02  0.39199147056E+02  0.00000000000E+00 0. -1.
        -14    1    3    3    0    0 -0.23592120427E+02 -0.30009691623E+02 -0.69025127027E+02  0.78877359861E+02  0.00000000000E+00 0.  1.
          5    1    4    4  501    0  0.49094496721E+02  0.81982299079E+01  0.85140592730E+02  0.98711060740E+02  0.41800000000E+01 0. -1.
         -5    1    4    4    0  501 -0.78500703789E+02 -0.72855209159E+00  0.15009594664E+03  0.16943776699E+03  0.41800000000E+01 0. -1.
</event>
<event>
11    1  0.8864208E-009  0.1797249E+03  0.7561462E-02  0.1069866E+00
         22   -1    0    0    0    0  0.00000000000E+00  0.00000000000E+00  0.62596325937E+03  0.62596325937E+03  0.00000000000E+00 0.  1.
         22   -1    0    0    0    0 -0.00000000000E+00 -0.00000000000E+00 -0.11285901401E+04  0.11285901401E+04  0.00000000000E+00 0.  1.
         24    2    1    2    0    0  0.91946094750E+02  0.66376692649E+02 -0.91342737211E+03  0.92396315748E+03  0.80612670141E+02 0.  0.
         25    2    1    2    0    0 -0.16993828647E+03 -0.16238112539E+03 -0.11086909441E+03  0.28842085688E+03  0.12509190020E+03 0.  0.
        -24    2    1    2    0    0  0.77992191719E+02  0.96004432736E+02  0.52166958579E+03  0.54216938512E+03  0.80677458703E+02 0.  0.
        -11    1    3    3    0    0  0.81801029718E+02  0.12220372770E+02 -0.60887187991E+03  0.61446375980E+03  0.00000000000E+00 0.  1.
         12    1    3    3    0    0  0.10145065033E+02  0.54156319879E+02 -0.30455549221E+03  0.30949939767E+03  0.00000000000E+00 0. -1.
         13    1    5    5    0    0  0.68139024527E+02  0.25661752313E+02  0.20251532624E+03  0.21520666708E+03  0.00000000000E+00 0. -1.
        -14    1    5    5    0    0  0.98531671917E+01  0.70342680423E+02  0.31915425955E+03  0.32696271803E+03  0.00000000000E+00 0.  1.
          5    1    4    4  501    0 -0.16483162008E+03 -0.83703854717E+02 -0.59600616473E+02  0.19428202221E+03  0.41800000000E+01 0.  1.
         -5    1    4    4    0  501 -0.51066663922E+01 -0.78677270668E+02 -0.51268477941E+02  0.94138834664E+02  0.41800000000E+01 0.  1.
</event>
<event>
11    1  0.8864208E-009  0.2595408E+03  0.7561462E-02  0.1018936E+00
         22   -1    0    0    0    0  0.00000000000E+00  0.00000000000E+00  0.21121231063E+04  0.21121231063E+04  0.00000000000E+00 0. -1.
         22   -1    0    0    0    0 -0.00000000000E+00 -0.00000000000E+00 -0.71474477631E+03  0.71474477631E+03  0.00000000000E+00 0. -1.
        -24    2    1    2    0    0  0.22961634139E+03 -0.99296689769E+01 -0.64858420311E+03  0.69204134944E+03  0.73739394150E+02 0.  0.
         25    2    1    2    0    0 -0.17763420774E+03  0.12593174730E+03  0.34322429862E+03  0.42527977597E+03  0.12508897612E+03 0.  0.
         24    2    1    2    0    0 -0.51982133649E+02 -0.11600207832E+03  0.17027382345E+04  0.17095467572E+04  0.84107047788E+02 0.  0.
        -11    1    5    5    0    0 -0.37936943096E+02 -0.48962745064E+02  0.37818942298E+03  0.38322813272E+03  0.00000000000E+00 0.  1.
         12    1    5    5    0    0 -0.14045190553E+02 -0.67039333255E+02  0.13245488116E+04  0.13263186245E+04  0.00000000000E+00 0. -1.
         11    1    3    3    0    0  0.19318697167E+03  0.19953695068E+02 -0.52674587902E+03  0.56140945577E+03  0.00000000000E+00 0. -1.
        -12    1    3    3    0    0  0.36429369716E+02 -0.29883364045E+02 -0.12183832410E+03  0.13063189367E+03  0.00000000000E+00 0.  1.
          5    1    4    4  501    0 -0.62705436173E+02 -0.12643549326E+02  0.13855205873E+03  0.15266295046E+03  0.41800000000E+01 0.  1.
         -5    1    4    4    0  501 -0.11492877157E+03  0.13857529662E+03  0.20467223989E+03  0.27261682550E+03  0.41800000000E+01 0.  1.
</event>
<event>
11    1  0.8864208E-009  0.1446960E+03  0.7561462E-02  0.1102425E+00
         22   -1    0    0    0    0  0.00000000000E+00  0.00000000000E+00  0.95648194351E+03  0.95648194351E+03  0.00000000000E+00 0. -1.
         22   -1    0    0    0    0 -0.00000000000E+00 -0.00000000000E+00 -0.61616855079E+03  0.61616855079E+03  0.00000000000E+00 0. -1.
        -24    2    1    2    0    0  0.20876320326E+02 -0.71983405001E+02 -0.56347813509E+03  0.57434280823E+03  0.82125643405E+02 0.  0.
         25    2    1    2    0    0  0.35243257626E+02  0.40803144785E+02  0.60823123660E+02  0.14917121851E+03  0.12508243773E+03 0.  0.
         24    2    1    2    0    0 -0.56119577952E+02  0.31180260216E+02  0.84296840415E+03  0.84913646756E+03  0.79469456354E+02 0.  0.
        -11    1    5    5    0    0 -0.25890184751E+02  0.41228345991E+02  0.21857752835E+03  0.22393350370E+03  0.00000000000E+00 0.  1.
         12    1    5    5    0    0 -0.30229393201E+02 -0.10048085775E+02  0.62439087580E+03  0.62520296386E+03  0.00000000000E+00 0. -1.
         13    1    3    3    0    0 -0.24533237561E+02 -0.56184889870E+02 -0.26364879304E+03  0.27068303912E+03  0.00000000000E+00 0. -1.
        -14    1    3    3    0    0  0.45409557887E+02 -0.15798515131E+02 -0.29982934204E+03  0.30365976911E+03  0.00000000000E+00 0.  1.
          5    1    4    4  501    0  0.43578553328E+02  0.82544891270E+02  0.41378835604E+02  0.10218820784E+03  0.41800000000E+01 0.  1.
         -5    1    4    4    0  501 -0.83352957012E+01 -0.41741746484E+02  0.19444288056E+02  0.46983010674E+02  0.41800000000E+01 0.  1.
</event>
<event>
11    1  0.8864208E-009  0.1972142E+03  0.7561462E-02  0.1056511E+00
         22   -1    0    0    0    0  0.00000000000E+00  0.00000000000E+00  0.41723385861E+03  0.41723385861E+03  0.00000000000E+00 0.  1.
         22   -1    0    0    0    0 -0.00000000000E+00 -0.00000000000E+00 -0.20514389492E+04  0.20514389492E+04  0.00000000000E+00 0.  1.
        -24    2    1    2    0    0 -0.10340852968E+03 -0.10916718528E+03 -0.18927174459E+04  0.19004041278E+04  0.80905627209E+02 0.  0.
         25    2    1    2    0    0  0.16982168853E+03  0.12687740700E+03 -0.40237021349E+02  0.24941756823E+03  0.12511124312E+03 0.  0.
         24    2    1    2    0    0 -0.66413158858E+02 -0.17710221717E+02  0.29874937667E+03  0.31885111179E+03  0.87695392163E+02 0.  0.
        -13    1    5    5    0    0 -0.79467383499E+02 -0.19200027182E+02  0.29354849801E+03  0.30472024345E+03  0.00000000000E+00 0.  1.
         14    1    5    5    0    0  0.13054224641E+02  0.14898054643E+01  0.52008786642E+01  0.14130868345E+02  0.00000000000E+00 0. -1.
         11    1    3    3    0    0 -0.62007266937E+02 -0.10687146116E+02 -0.80379988073E+03  0.80625886941E+03  0.00000000000E+00 0. -1.
        -12    1    3    3    0    0 -0.41401262739E+02 -0.98480039163E+02 -0.10889175652E+04  0.10941452584E+04  0.00000000000E+00 0.  1.
          5    1    4    4  501    0  0.11487566666E+03  0.98599871391E+02 -0.84374233647E+02  0.17336330965E+03  0.41800000000E+01 0.  1.
         -5    1    4    4    0  501  0.54946021875E+02  0.28277535605E+02  0.44137212297E+02  0.76054258587E+02  0.41800000000E+01 0.  1.
</event>
<event>
11    1  0.8864208E-009  0.1556552E+03  0.7561462E-02  0.1091236E+00
         22   -1    0    0    0    0  0.00000000000E+00  0.00000000000E+00  0.98371301819E+03  0.98371301819E+03  0.00000000000E+00 0. -1.
         22   -1    0    0    0    0 -0.00000000000E+00 -0.00000000000E+00 -0.11366993848E+04  0.11366993848E+04  0.00000000000E+00 0. -1.
        -24    2    1    2    0    0  0.40153240132E+02 -0.52627259910E+02 -0.10698353502E+04  0.10753703358E+04  0.86555019826E+02 0.  0.
         25    2    1    2    0    0  0.55163487723E+02  0.46034659739E+02  0.27347733967E+02  0.14682408200E+03  0.12508881735E+03 0.  0.
         24    2    1    2    0    0 -0.95316727855E+02  0.65926001710E+01  0.88950124957E+03  0.89821798522E+03  0.80338876054E+02 0.  0.
        -11    1    5    5    0    0 -0.93416091192E+02  0.29581108864E+02  0.61589794531E+03  0.62364403880E+03  0.00000000000E+00 0.  1.
         12    1    5    5    0    0 -0.19006366625E+01 -0.22988508693E+02  0.27360330425E+03  0.27457394642E+03  0.00000000000E+00 0. -1.
         11    1    3    3    0    0 -0.11886935786E+02  0.53493999335E+01 -0.50712653477E+03  0.50729403465E+03  0.00000000000E+00 0. -1.
        -12    1    3    3    0    0  0.52040175918E+02 -0.57976659843E+02 -0.56270881539E+03  0.56807630114E+03  0.00000000000E+00 0.  1.
          5    1    4    4  501    0  0.42427583763E+02  0.84475324578E+02 -0.51048240771E+01  0.94761342094E+02  0.41800000000E+01 0. -1.
         -5    1    4    4    0  501  0.12735903960E+02 -0.38440664839E+02  0.32452558045E+02  0.52062739907E+02  0.41800000000E+01 0. -1.
</event>
<event>
11    1  0.8864208E-009  0.1596613E+03  0.7561462E-02  0.1087396E+00
         22   -1    0    0    0    0  0.00000000000E+00  0.00000000000E+00  0.55835618774E+02  0.55835618774E+02  0.00000000000E+00 0. -1.
         22   -1    0    0    0    0 -0.00000000000E+00 -0.00000000000E+00 -0.12125276706E+04  0.12125276706E+04  0.00000000000E+00 0. -1.
        -24    2    1    2    0    0  0.63965406746E+01 -0.10719922067E+03 -0.71826414568E+03  0.73048991099E+03  0.78610040403E+02 0.  0.
         25    2    1    2    0    0 -0.21533880830E+02  0.80395256566E+02 -0.42521586011E+03  0.45098078668E+03  0.12509211393E+03 0.  0.
         24    2    1    2    0    0  0.15137340156E+02  0.26803964101E+02 -0.13212046006E+02  0.86892591663E+02  0.80175886448E+02 0.  0.
        -11    1    5    5    0    0  0.43405388641E+01  0.29697200945E+02 -0.44495966065E+02  0.53671733880E+02  0.00000000000E+00 0.  1.
         12    1    5    5    0    0  0.10796801291E+02 -0.28932368443E+01  0.31283920059E+02  0.33220857783E+02  0.00000000000E+00 0. -1.
         11    1    3    3    0    0  0.39887079013E+02 -0.41263886847E+02 -0.25656286262E+03  0.26290338512E+03  0.00000000000E+00 0. -1.
        -12    1    3    3    0    0 -0.33490538338E+02 -0.65935333820E+02 -0.46170128306E+03  0.46758652588E+03  0.00000000000E+00 0.  1.
          5    1    4    4  501    0  0.26002141567E+02  0.35845630078E+02 -0.34360332594E+03  0.34647040070E+03  0.41800000000E+01 0. -1.
         -5    1    4    4    0  501 -0.47536022398E+02  0.44549626488E+02 -0.81612534164E+02  0.10451038598E+03  0.41800000000E+01 0. -1.
</event>
<event>
11    1  0.8864208E-009  0.2503245E+03  0.7561462E-02  0.1023727E+00
         22   -1    0    0    0    0  0.00000000000E+00  0.00000000000E+00  0.71350816216E+03  0.71350816216E+03  0.00000000000E+00 0.  1.
         22   -1    0    0    0    0 -0.00000000000E+00 -0.00000000000E+00 -0.34049581040E+04  0.34049581040E+04  0.00000000000E+00 0. -1.
        -24    2    1    2    0    0  0.13879369111E+03  0.29106644604E+01 -0.31221228739E+04  0.31262294767E+04  0.79920838636E+02 0.  0.
         25    2    1    2    0    0 -0.27619702765E+03 -0.16140227730E+03 -0.14633851430E+03  0.37335469652E+03  0.12507308042E+03 0.  0.
         24    2    1    2    0    0  0.13740333655E+03  0.15849161284E+03  0.57701144641E+03  0.61888209290E+03  0.77933095551E+02 0.  0.
        -13    1    5    5    0    0  0.10515360741E+03  0.95758171759E+02  0.46719977716E+03  0.48836721879E+03  0.00000000000E+00 0.  1.
         14    1    5    5    0    0  0.32249729136E+02  0.62733441082E+02  0.10981166926E+03  0.13051487411E+03  0.00000000000E+00 0. -1.
         13    1    3    3    0    0  0.12915555320E+03 -0.24091872518E+02 -0.25126213785E+04  0.25160540072E+04  0.00000000000E+00 0. -1.
        -14    1    3    3    0    0  0.96381379058E+01  0.27002536978E+02 -0.60950149545E+03  0.61017546957E+03  0.00000000000E+00 0.  1.
          5    1    4    4  501    0 -0.26458171169E+03 -0.16889157085E+03 -0.16098226822E+03  0.35278975034E+03  0.41800000000E+01 0. -1.
         -5    1    4    4    0  501 -0.11615315960E+02  0.74892935503E+01  0.14643753914E+02  0.20564946181E+02  0.41800000000E+01 0. -1.
</event>
<event>
11    1  0.8864208E-009  0.1353584E+03  0.7561462E-02  0.1112855E+00
         22   -1    0    0    0    0  0.00000000000E+00  0.00000000000E+00  0.37807024839E+03  0.37807024839E+03  0.00000000000E+00 0. -1.
         22   -1    0    0    0    0 -0.00000000000E+00 -0.00000000000E+00 -0.12413078676E+04  0.12413078676E+04  0.00000000000E+00 0.  1.
        -24    2    1    2    0    0  0.81198399761E+01  0.44013784438E+02 -0.11777200582E+04  0.11813660587E+04  0.81228591543E+02 0.  0.
         25    2    1    2    0    0  0.11954754990E+02  0.99111495033E+01  0.20466969584E+02  0.12769364633E+03  0.12508246647E+03 0.  0.
         24    2    1    2    0    0 -0.20074594966E+02 -0.53924933941E+02  0.29401546947E+03  0.31031841092E+03  0.80879737920E+02 0.  0.
        -13    1    5    5    0    0 -0.44993252335E+02 -0.64954967431E+01  0.14536552413E+03  0.15230797693E+03  0.00000000000E+00 0.  1.
         14    1    5    5    0    0  0.24918657369E+02 -0.47429437198E+02  0.14864994534E+03  0.15801043399E+03  0.00000000000E+00 0. -1.
         13    1    3    3    0    0  0.21812445464E+02  0.83254683563E+01 -0.90142022278E+02  0.93116488233E+02  0.00000000000E+00 0. -1.
        -14    1    3    3    0    0 -0.13692605488E+02  0.35688316081E+02 -0.10875780360E+04  0.10882495705E+04  0.00000000000E+00 0.  1.
          5    1    4    4  501    0 -0.22396475781E+02  0.54044930280E+02  0.36850576550E+02  0.69266831951E+02  0.41800000000E+01 0. -1.
         -5    1    4    4    0  501  0.34351230772E+02 -0.44133780777E+02 -0.16383606966E+02  0.58426814378E+02  0.41800000000E+01 0. -1.
</event>
<event>
11    1  0.8864208E-009  0.1633551E+03  0.7561462E-02  0.1083963E+00
         22   -1    0    0    0    0  0.00000000000E+00  0.00000000000E+00  0.20324797613E+03  0.20324797613E+03  0.00000000000E+00 0.  1.
         22   -1    0    0    0    0 -0.00000000000E+00 -0.00000000000E+00 -0.11285204967E+04  0.11285204967E+04  0.00000000000E+00 0.  1.
         24    2    1    2    0    0 -0.56652283836E+02 -0.83375754330E+02 -0.90080299492E+03  0.90987668835E+03  0.79174204498E+02 0.  0.
         25    2    1    2    0    0  0.66666401014E+02  0.13360752621E+03 -0.16067986367E+03  0.25250903764E+03  0.12508962954E+03 0.  0.
        -24    2    1    2    0    0 -0.10014117179E+02 -0.50231771878E+02  0.13621033799E+03  0.16938274687E+03  0.86681862661E+02 0.  0.
        -11    1    3    3    0    0 -0.61548334912E+02 -0.85950314350E+02 -0.61497118844E+03  0.62399135945E+03  0.00000000000E+00 0.  1.
         12    1    3    3    0    0  0.48960510762E+01  0.25745600198E+01 -0.28583180649E+03  0.28588532889E+03  0.00000000000E+00 0. -1.
         13    1    5    5    0    0  0.31294528569E+01  0.32507160824E+00 -0.11911287197E+02  0.12319817752E+02  0.00000000000E+00 0. -1.
        -14    1    5    5    0    0 -0.13143570036E+02 -0.50556843486E+02  0.14812162518E+03  0.15706292912E+03  0.00000000000E+00 0.  1.
          5    1    4    4  501    0  0.37779288316E+01  0.27275435660E+02 -0.11876623119E+03  0.12198816421E+03  0.41800000000E+01 0. -1.
         -5    1    4    4    0  501  0.62888472183E+02  0.10633209055E+03 -0.41913632483E+02  0.13052087343E+03  0.41800000000E+01 0. -1.
</event>
<event>
11    1  0.8864208E-009  0.1286562E+03  0.7561462E-02  0.1120931E+00
         22   -1    0    0    0    0  0.00000000000E+00  0.00000000000E+00  0.47174960297E+03  0.47174960297E+03  0.00000000000E+00 0.  1.
         22   -1    0    0    0    0 -0.00000000000E+00 -0.00000000000E+00 -0.19196447742E+03  0.19196447742E+03  0.00000000000E+00 0. -1.
         24    2    1    2    0    0  0.20290314524E+02  0.51946352653E+01 -0.93498680740E+02  0.12386443457E+03  0.78496584329E+02 0.  0.
         25    2    1    2    0    0  0.50502840601E+01  0.12353471194E+02 -0.29042533366E+02  0.12916488545E+03  0.12514785364E+03 0.  0.
        -24    2    1    2    0    0 -0.25340598584E+02 -0.17548106459E+02  0.40232633966E+03  0.41068476037E+03  0.76455260401E+02 0.  0.
        -13    1    3    3    0    0  0.11473348038E+01 -0.33432914697E+02 -0.20943531114E+02  0.39467805333E+02  0.00000000000E+00 0.  1.
         14    1    3    3    0    0  0.19142979720E+02  0.38627549963E+02 -0.72555149626E+02  0.84396629233E+02  0.00000000000E+00 0. -1.
         13    1    5    5    0    0 -0.21575723169E+02 -0.25347528461E+01  0.25325917067E+02  0.33366733097E+02  0.00000000000E+00 0. -1.
        -14    1    5    5    0    0 -0.37648754149E+01 -0.15013353613E+02  0.37700042259E+03  0.37731802727E+03  0.00000000000E+00 0.  1.
          5    1    4    4  501    0  0.10337837769E+02  0.65873865268E+02 -0.34054402612E+02  0.74989410935E+02  0.41800000000E+01 0.  1.
         -5    1    4    4    0  501 -0.52875537086E+01 -0.53520394074E+02  0.50118692459E+01  0.54175474519E+02  0.41800000000E+01 0.  1.
</event>
<event>
11    1  0.8864208E-009  0.1342400E+03  0.7561462E-02  0.1114166E+00
         22   -1    0    0    0    0  0.00000000000E+00  0.00000000000E+00  0.15172077693E+04  0.15172077693E+04  0.00000000000E+00 0. -1.
         22   -1    0    0    0    0 -0.00000000000E+00 -0.00000000000E+00 -0.38871556877E+03  0.38871556877E+03  0.00000000000E+00 0. -1.
         24    2    1    2    0    0 -0.48094985938E+02  0.17647791445E+01 -0.36195024466E+03  0.37409395843E+03  0.81376089892E+02 0.  0.
         25    2    1    2    0    0  0.75994880475E+02 -0.49848581330E+01  0.25877226981E+03  0.29733709126E+03  0.12508472149E+03 0.  0.
        -24    2    1    2    0    0 -0.27899894537E+02  0.32200789885E+01  0.12316701754E+04  0.12344922884E+04  0.78555815144E+02 0.  0.
        -13    1    3    3    0    0 -0.22879143773E+02  0.40569206993E+02 -0.14633739746E+03  0.15357066670E+03  0.00000000000E+00 0.  1.
         14    1    3    3    0    0 -0.25215842165E+02 -0.38804427848E+02 -0.21561284720E+03  0.22052329173E+03  0.00000000000E+00 0. -1.
         11    1    5    5    0    0 -0.45493085852E+02 -0.14669400062E+02  0.10512063481E+04  0.10522925441E+04  0.00000000000E+00 0. -1.
        -12    1    5    5    0    0  0.17593191315E+02  0.17889479050E+02  0.18046382732E+03  0.18219974427E+03  0.00000000000E+00 0.  1.
          5    1    4    4  501    0  0.62166603434E+02 -0.45668866409E+02  0.71870490042E+02  0.10551384592E+03  0.41800000000E+01 0.  1.
         -5    1    4    4    0  501  0.13828277040E+02  0.40684008276E+02  0.18690177976E+03  0.19182324534E+03  0.41800000000E+01 0.  1.
</event>
<event>
11    1  0.8864208E-009  0.2946847E+03  0.7561462E-02  0.1002466E+00
         22   -1    0    0    0    0  0.00000000000E+00  0.00000000000E+00  0.15716718727E+03  0.15716718727E+03  0.00000000000E+00 0.  1.
         22   -1    0    0    0    0 -0.00000000000E+00 -0.00000000000E+00 -0.12757583925E+04  0.12757583925E+04  0.00000000000E+00 0.  1.
        -24    2    1    2    0    0  0.96689381049E+02 -0.27053488582E+03 -0.96255766962E+03  0.10078863322E+04  0.82338511286E+02 0.  0.
         25    2    1    2    0    0 -0.56181700131E+02  0.20443764964E+03 -0.18645163385E+03  0.30880791728E+03  0.12508789705E+03 0.  0.
         24    2    1    2    0    0 -0.40507680919E+02  0.66097236181E+02  0.30418098231E+02  0.11623133030E+03  0.81084798815E+02 0.  0.
        -11    1    5    5    0    0  0.20843671073E+02  0.28836964960E+02  0.26462281335E+02  0.44342772865E+02  0.00000000000E+00 0.  1.
         12    1    5    5    0    0 -0.61351351991E+02  0.37260271221E+02  0.39558168953E+01  0.71888557434E+02  0.00000000000E+00 0. -1.
         11    1    3    3    0    0  0.21765623383E+02 -0.89205280435E+02 -0.19326784643E+03  0.21397145810E+03  0.00000000000E+00 0. -1.
        -12    1    3    3    0    0  0.74923757666E+02 -0.18132960538E+03 -0.76928982319E+03  0.79391487410E+03  0.00000000000E+00 0.  1.
          5    1    4    4  501    0 -0.15701673534E+02  0.20026936704E+03 -0.13084752362E+03  0.23977678946E+03  0.41800000000E+01 0.  1.
         -5    1    4    4    0  501 -0.40480026597E+02  0.41682825954E+01 -0.55604110231E+02  0.69031127817E+02  0.41800000000E+01 0.  1.
</event>
<event>
11    1  0.8864208E-009  0.2944973E+03  0.7561462E-02  0.1002547E+00
         22   -1    0    0    0    0  0.00000000000E+00  0.00000000000E+00  0.24944528855E+04  0.24944528855E+04  0.00000000000E+00 0. -1.
         22   -1    0    0    0    0 -0.00000000000E+00 -0.00000000000E+00 -0.42226491983E+03  0.42226491983E+03  0.00000000000E+00 0. -1.
         24    2    1    2    0    0  0.48266638551E+02  0.39180288819E+02 -0.36275793440E+03  0.37770831303E+03  0.84885142031E+02 0.  0.
         25    2    1    2    0    0 -0.28598994082E+03  0.68957081718E+02  0.56328558114E+03  0.64767587797E+03  0.12509225242E+03 0.  0.
        -24    2    1    2    0    0  0.23772330227E+03 -0.10813737054E+03  0.18716603189E+04  0.18913336143E+04  0.76317965905E+02 0.  0.
        -13    1    3    3    0    0  0.33965828610E+02 -0.22328955589E+02 -0.11293092940E+03  0.12002355846E+03  0.00000000000E+00 0.  1.
         14    1    3    3    0    0  0.14300809942E+02  0.61509244408E+02 -0.24982700499E+03  0.25768475457E+03  0.00000000000E+00 0. -1.
         11    1    5    5    0    0  0.17171662723E+03 -0.61979847600E+02  0.14985138711E+04  0.15095932973E+04  0.00000000000E+00 0. -1.
        -12    1    5    5    0    0  0.66006675040E+02 -0.46157522937E+02  0.37314644784E+03  0.38174031699E+03  0.00000000000E+00 0.  1.
          5    1    4    4  501    0 -0.90024449319E+02  0.71853671341E+02  0.28364391249E+03  0.30616775313E+03  0.41800000000E+01 0.  1.
         -5    1    4    4    0  501 -0.19596549150E+03 -0.28965896234E+01  0.27964166864E+03  0.34150812484E+03  0.41800000000E+01 0.  1.
</event>
<event>
11    1  0.8864208E-009  0.1323956E+03  0.7561462E-02  0.1116360E+00
         22   -1    0    0    0    0  0.00000000000E+00  0.00000000000E+00  0.14476545288E+03  0.14476545288E+03  0.00000000000E+00 0.  1.
         22   -1    0    0    0    0 -0.00000000000E+00 -0.00000000000E+00 -0.30570545744E+03  0.30570545744E+03  0.00000000000E+00 0.  1.
         24    2    1    2    0    0 -0.17043201743E+02  0.19438539217E+02 -0.17512401794E+03  0.19547880860E+03  0.82916918774E+02 0.  0.
         25    2    1    2    0    0  0.55184345069E+02 -0.28407687770E+02 -0.46758379510E+02  0.14726329442E+03  0.12509125934E+03 0.  0.
        -24    2    1    2    0    0 -0.38141143326E+02  0.89691485532E+01  0.60942392893E+02  0.10772880729E+03  0.79726584203E+02 0.  0.
        -11    1    3    3    0    0 -0.41482952215E+02  0.26404794976E+02 -0.15630136388E+03  0.16385409629E+03  0.00000000000E+00 0.  1.
         12    1    3    3    0    0  0.24439750472E+02 -0.69662557589E+01 -0.18822654066E+02  0.31624712308E+02  0.00000000000E+00 0. -1.
         13    1    5    5    0    0 -0.89111316204E+01  0.13600352826E+01 -0.19673527792E+02  0.21640371034E+02  0.00000000000E+00 0. -1.
        -14    1    5    5    0    0 -0.29230011705E+02  0.76091132706E+01  0.80615920685E+02  0.86088436255E+02  0.00000000000E+00 0.  1.
          5    1    4    4  501    0 -0.20666550717E+02 -0.53419504131E+02 -0.67156756153E+01  0.57821470399E+02  0.41800000000E+01 0. -1.
         -5    1    4    4    0  501  0.75850895786E+02  0.25011816360E+02 -0.40042703895E+02  0.89441824022E+02  0.41800000000E+01 0. -1.
</event>
<event>
11    1  0.8864208E-009  0.1353541E+03  0.7561462E-02  0.1112860E+00
         22   -1    0    0    0    0  0.00000000000E+00  0.00000000000E+00  0.41632009928E+02  0.41632009928E+02  0.00000000000E+00 0. -1.
         22   -1    0    0    0    0 -0.00000000000E+00 -0.00000000000E+00 -0.14896514635E+04  0.14896514635E+04  0.00000000000E+00 0. -1.
         24    2    1    2    0    0 -0.52585256920E+01  0.15298122919E+02 -0.98734719564E+03  0.99079575583E+03  0.80994199667E+02 0.  0.
         25    2    1    2    0    0  0.42443206323E+02 -0.47900873744E+02 -0.40917827699E+03  0.43263173238E+03  0.12508970396E+03 0.  0.
        -24    2    1    2    0    0 -0.37184680631E+02  0.32602750825E+02 -0.51493980901E+02  0.10785598517E+03  0.80843327695E+02 0.  0.
        -13    1    3    3    0    0 -0.18940671582E+02  0.26360900208E+02 -0.15989663795E+03  0.16315814699E+03  0.00000000000E+00 0.  1.
         14    1    3    3    0    0  0.13682145890E+02 -0.11062777289E+02 -0.82745055769E+03  0.82763760885E+03  0.00000000000E+00 0. -1.
         11    1    5    5    0    0  0.22336642211E+01 -0.16986445633E+02  0.97762966920E+01  0.19725733652E+02  0.00000000000E+00 0. -1.
        -12    1    5    5    0    0 -0.39418344852E+02  0.49589196458E+02 -0.61270277593E+02  0.88130251517E+02  0.00000000000E+00 0.  1.
          5    1    4    4  501    0 -0.15749233847E+01 -0.40856888476E+01  0.84473465848E+01  0.10392463680E+02  0.41800000000E+01 0. -1.
         -5    1    4    4    0  501  0.44018129708E+02 -0.43815184896E+02 -0.41762562357E+03  0.42223926870E+03  0.41800000000E+01 0. -1.
</event>
<event>
11    1  0.8864208E-009  0.1445990E+03  0.7561462E-02  0.1102529E+00
         22   -1    0    0    0    0  0.00000000000E+00  0.00000000000E+00  0.49192124068E+03  0.49192124068E+03  0.00000000000E+00 0.  1.
         22   -1    0    0    0    0 -0.00000000000E+00 -0.00000000000E+00 -0.23192114894E+03  0.23192114894E+03  0.00000000000E+00 0. -1.
         24    2    1    2    0    0  0.80092591212E+02  0.15779380725E+02 -0.17104205879E+03  0.20996775372E+03  0.90372892546E+02 0.  0.
         25    2    1    2    0    0 -0.18328012854E+02  0.18353366358E+01  0.83376207969E+02  0.15145417857E+03  0.12508993419E+03 0.  0.
        -24    2    1    2    0    0 -0.61764578358E+02 -0.17614717361E+02  0.34766594256E+03  0.36242045732E+03  0.79698424440E+02 0.  0.
        -11    1    3    3    0    0 -0.20157875487E+02  0.27247778320E+01 -0.23062352682E+02  0.30751202734E+02  0.00000000000E+00 0.  1.
         12    1    3    3    0    0  0.10025046670E+03  0.13054602893E+02 -0.14797970611E+03  0.17921655099E+03  0.00000000000E+00 0. -1.
         13    1    5    5    0    0 -0.34106357850E+02  0.30375173152E+02  0.12892346333E+03  0.13677409911E+03  0.00000000000E+00 0. -1.
        -14    1    5    5    0    0 -0.27658220507E+02 -0.47989890513E+02  0.21874247924E+03  0.22564635822E+03  0.00000000000E+00 0.  1.
          5    1    4    4  501    0 -0.54034933924E+02  0.27072630005E+02  0.39738258272E+01  0.60712149289E+02  0.41800000000E+01 0. -1.
         -5    1    4    4    0  501  0.35706921070E+02 -0.25237293369E+02  0.79402382142E+02  0.90742029285E+02  0.41800000000E+01 0. -1.
</event>
<event>
11    1  0.8864208E-009  0.1635631E+03  0.7561462E-02  0.1083773E+00
         22   -1    0    0    0    0  0.00000000000E+00  0.00000000000E+00  0.24615053380E+04  0.24615053380E+04  0.00000000000E+00 0. -1.
         22   -1    0    0    0    0 -0.00000000000E+00 -0.00000000000E+00 -0.35682394497E+02  0.35682394497E+02  0.00000000000E+00 0.  1.
        -24    2    1    2    0    0 -0.52206940361E+02  0.49277223315E+02  0.10735158204E+03  0.15209800170E+03  0.80346938927E+02 0.  0.
         25    2    1    2    0    0  0.12078023627E+03 -0.10866329721E+03  0.98221887168E+03  0.10033921530E+04  0.12508526359E+03 0.  0.
         24    2    1    2    0    0 -0.68573295913E+02  0.59386073894E+02  0.13362524897E+04  0.13416975778E+04  0.79703645831E+02 0.  0.
        -11    1    5    5    0    0  0.85881954056E+01  0.31162227074E+01  0.20031060344E+02  0.22016160492E+02  0.00000000000E+00 0.  1.
         12    1    5    5    0    0 -0.77161491319E+02  0.56269851187E+02  0.13162214294E+04  0.13196814173E+04  0.00000000000E+00 0. -1.
         13    1    3    3    0    0  0.20285244734E+02  0.83250407765E+01  0.37397184608E+02  0.43351434514E+02  0.00000000000E+00 0. -1.
        -14    1    3    3    0    0 -0.72492185095E+02  0.40952182538E+02  0.69954397437E+02  0.10874656719E+03  0.00000000000E+00 0.  1.
          5    1    4    4  501    0 -0.21401470468E+02  0.54027386238E+01  0.12405554103E+03  0.12607324135E+03  0.41800000000E+01 0. -1.
         -5    1    4    4    0  501  0.14218170674E+03 -0.11406603583E+03  0.85816333065E+03  0.87731891164E+03  0.41800000000E+01 0. -1.
</event>
<event>
11    1  0.8864208E-009  0.1292367E+03  0.7561462E-02  0.1120210E+00
         22   -1    0    0    0    0  0.00000000000E+00  0.00000000000E+00  0.69748756632E+02  0.69748756632E+02  0.00000000000E+00 0.  1.
         22   -1    0    0    0    0 -0.00000000000E+00 -0.00000000000E+00 -0.14081449492E+04  0.14081449492E+04  0.00000000000E+00 0.  1.
        -24    2    1    2    0    0  0.68776170572E+01  0.19012491208E+02 -0.81014112901E+03  0.81438916966E+03  0.80574774647E+02 0.  0.
         25    2    1    2    0    0  0.25893305011E+02 -0.19774887800E+02 -0.55884377144E+03  0.57359869825E+03  0.12509035263E+03 0.  0.
         24    2    1    2    0    0 -0.32770922068E+02  0.76239659218E+00  0.30588707849E+02  0.89905837957E+02  0.77928660127E+02 0.  0.
        -13    1    5    5    0    0 -0.46368905897E+02  0.27927948653E+02  0.18374458751E+02  0.57163506580E+02  0.00000000000E+00 0.  1.
         14    1    5    5    0    0  0.13597983829E+02 -0.27165552061E+02  0.12214249098E+02  0.32742331377E+02  0.00000000000E+00 0. -1.
         11    1    3    3    0    0 -0.35731740134E+02  0.12471282023E+02 -0.28887249494E+03  0.29134105180E+03  0.00000000000E+00 0. -1.
        -12    1    3    3    0    0  0.42609357191E+02  0.65412091845E+01 -0.52126863407E+03  0.52304811786E+03  0.00000000000E+00 0.  1.
          5    1    4    4  501    0  0.23563018594E+01 -0.44343398262E+02 -0.66556997754E+02  0.80119881913E+02  0.41800000000E+01 0. -1.
         -5    1    4    4    0  501  0.23537003151E+02  0.24568510462E+02 -0.49228677369E+03  0.49347881634E+03  0.41800000000E+01 0. -1.
</event>
<event>
11    1  0.8864208E-009  0.1326982E+03  0.7561462E-02  0.1115997E+00
         22   -1    0    0    0    0  0.00000000000E+00  0.00000000000E+00  0.13555621167E+04  0.13555621167E+04  0.00000000000E+00 0. -1.
         22   -1    0    0    0    0 -0.00000000000E+00 -0.00000000000E+00 -0.63387856833E+02  0.63387856833E+02  0.00000000000E+00 0.  1.
        -24    2    1    2    0    0 -0.43171335567E+02  0.10953094445E+02  0.32893669168E+01  0.91283105906E+02  0.79611877234E+02 0.  0.
         25    2    1    2    0    0  0.38808383149E+02 -0.20922239395E+02  0.22732073058E+03  0.26318459005E+03  0.12509030012E+03 0.  0.
         24    2    1    2    0    0  0.43629524182E+01  0.99691449501E+01  0.10615641623E+04  0.10644822775E+04  0.78010443192E+02 0.  0.
        -11    1    5    5    0    0 -0.33267738538E+01 -0.13364214695E+01  0.85593365768E+00  0.36859285187E+01  0.00000000000E+00 0.  1.
         12    1    5    5    0    0  0.76897262720E+01  0.11305566420E+02  0.10607082287E+04  0.10607963490E+04  0.00000000000E+00 0. -1.
         13    1    3    3    0    0  0.30887852694E+01  0.14510840168E+02  0.33005018409E+02  0.36186134320E+02  0.00000000000E+00 0. -1.
        -14    1    3    3    0    0 -0.46260120836E+02 -0.35577457237E+01 -0.29715651492E+02  0.55096971587E+02  0.00000000000E+00 0.  1.
          5    1    4    4  501    0  0.14653915452E+02  0.48781139650E+02  0.13862002598E+03  0.14774072162E+03  0.41800000000E+01 0. -1.
         -5    1    4    4    0  501  0.24154467696E+02 -0.69703379044E+02  0.88700704604E+02  0.11544386843E+03  0.41800000000E+01 0. -1.
</event>
<event>
11    1  0.8864208E-009  0.1653411E+03  0.7561462E-02  0.1082159E+00
         22   -1    0    0    0    0  0.00000000000E+00  0.00000000000E+00  0.12425560295E+04  0.12425560295E+04  0.00000000000E+00 0. -1.
         22   -1    0    0    0    0 -0.00000000000E+00 -0.00000000000E+00 -0.54909558644E+03  0.54909558644E+03  0.00000000000E+00 0. -1.
         24    2    1    2    0    0 -0.11189590593E+00  0.10549370985E+03 -0.45092732157E+03  0.46970129567E+03  0.78453313981E+02 0.  0.
         25    2    1    2    0    0 -0.18644330273E+02 -0.13560753743E+03  0.11492594376E+02  0.18578639270E+03  0.12508992257E+03 0.  0.
        -24    2    1    2    0    0  0.18756226179E+02  0.30113827573E+02  0.11328951703E+04  0.11361639276E+04  0.78475250120E+02 0.  0.
        -13    1    3    3    0    0  0.22006434512E+02  0.98089443639E+02 -0.28643618771E+03  0.30356467473E+03  0.00000000000E+00 0.  1.
         14    1    3    3    0    0 -0.22118330418E+02  0.74042662142E+01 -0.16449113386E+03  0.16613662094E+03  0.00000000000E+00 0. -1.
         11    1    5    5    0    0  0.34225736553E+02  0.42610574850E+02  0.10246897108E+04  0.10261462203E+04  0.00000000000E+00 0. -1.
        -12    1    5    5    0    0 -0.15469510374E+02 -0.12496747278E+02  0.10820545948E+03  0.11001770723E+03  0.00000000000E+00 0.  1.
          5    1    4    4  501    0 -0.73784088447E+01 -0.85598873332E+02  0.67799423159E+02  0.10952553224E+03  0.41800000000E+01 0.  1.
         -5    1    4    4    0  501 -0.11265921428E+02 -0.50008664094E+02 -0.56306828783E+02  0.76260860457E+02  0.41800000000E+01 0.  1.
</event>
<event>
11    1  0.8864208E-009  0.3645663E+03  0.7561462E-02  0.9760510E-01
         22   -1    0    0    0    0  0.00000000000E+00  0.00000000000E+00  0.52194115802E+03  0.52194115802E+03  0.00000000000E+00 0. -1.
         22   -1    0    0    0    0 -0.00000000000E+00 -0.00000000000E+00 -0.17214821658E+04  0.17214821658E+04  0.00000000000E+00 0. -1.
         24    2    1    2    0    0  0.34562117351E+03  0.97053937552E+01 -0.15459082077E+04  0.15860483035E+04  0.78541990637E+02 0.  0.
         25    2    1    2    0    0 -0.31130701433E+03 -0.78293585147E+01  0.36895418380E+02  0.33761466526E+03  0.12509610018E+03 0.  0.
        -24    2    1    2    0    0 -0.34314159188E+02 -0.18760352404E+01  0.30947178150E+03  0.31976035505E+03  0.72752457622E+02 0.  0.
        -13    1    3    3    0    0  0.63176770894E+02  0.48766018540E+01 -0.16962758042E+03  0.18107623164E+03  0.00000000000E+00 0.  1.
         14    1    3    3    0    0  0.28244440262E+03  0.48287919011E+01 -0.13762806273E+04  0.14049720719E+04  0.00000000000E+00 0. -1.
         11    1    5    5    0    0 -0.96924737484E+01 -0.25029992033E+02  0.24934298044E+03  0.25078350513E+03  0.00000000000E+00 0. -1.
        -12    1    5    5    0    0 -0.24621685439E+02  0.23153956792E+02  0.60128801061E+02  0.68976849929E+02  0.00000000000E+00 0.  1.
          5    1    4    4  501    0 -0.75217702737E+02 -0.24621483497E+02  0.60514573130E+02  0.99716629585E+02  0.41800000000E+01 0. -1.
         -5    1    4    4    0  501 -0.23608931159E+03  0.16792124983E+02 -0.23619154750E+02  0.23789803568E+03  0.41800000000E+01 0. -1.
</event>
<event>
11    1  0.8864208E-009  0.1451653E+03  0.7561462E-02  0.1101924E+00
         22   -1    0    0    0    0  0.00000000000E+00  0.00000000000E+00  0.54396563014E+03  0.54396563014E+03  0.00000000000E+00 0.  1.
         22   -1    0    0    0    0 -0.00000000000E+00 -0.00000000000E+00 -0.15962221394E+04  0.15962221394E+04  0.00000000000E+00 0.  1.
         24    2    1    2    0    0 -0.36973051539E+02  0.63113399973E+02 -0.15285535289E+04  0.15323095596E+04  0.78398901741E+02 0.  0.
         25    2    1    2    0    0  0.57846649883E+02 -0.85365855243E+02  0.45086537921E+02  0.16826598205E+03  0.12508829149E+03 0.  0.
        -24    2    1    2    0    0 -0.20873598344E+02  0.22252455270E+02  0.43121048174E+03  0.43961222790E+03  0.79909652005E+02 0.  0.
        -11    1    3    3    0    0  0.66171457480E+01  0.38796520071E+02 -0.11239446807E+04  0.11246335411E+04  0.00000000000E+00 0.  1.
         12    1    3    3    0    0 -0.43590197287E+02  0.24316879902E+02 -0.40460884827E+03  0.40767601849E+03  0.00000000000E+00 0. -1.
         11    1    5    5    0    0 -0.10531723346E+02  0.43997401370E+02  0.13405924285E+03  0.14148699275E+03  0.00000000000E+00 0. -1.
        -12    1    5    5    0    0 -0.10341874997E+02 -0.21744946101E+02  0.29715123889E+03  0.29812523515E+03  0.00000000000E+00 0.  1.
          5    1    4    4  501    0  0.55804990138E+02 -0.97522558403E+01  0.68485828933E+02  0.88978000556E+02  0.41800000000E+01 0.  1.
         -5    1    4    4    0  501  0.20416597452E+01 -0.75613599403E+02 -0.23399291012E+02  0.79287981491E+02  0.41800000000E+01 0.  1.
</event>
<event>
11    1  0.8864208E-009  0.1461002E+03  0.7561462E-02  0.1100931E+00
         22   -1    0    0    0    0  0.00000000000E+00  0.00000000000E+00  0.12368287893E+03  0.12368287893E+03  0.00000000000E+00 0.  1.
         22   -1    0    0    0    0 -0.00000000000E+00 -0.00000000000E+00 -0.75113525689E+03  0.75113525689E+03  0.00000000000E+00 0. -1.
         24    2    1    2    0    0  0.23166546069E+02 -0.32060578131E+02 -0.57203688375E+03  0.57857067287E+03  0.77157356133E+02 0.  0.
         25    2    1    2    0    0  0.46621404823E+02  0.63874927861E+02 -0.96792052779E+02  0.17684125890E+03  0.12510222848E+03 0.  0.
        -24    2    1    2    0    0 -0.69787950891E+02 -0.31814349730E+02  0.41376558562E+02  0.11940620406E+03  0.81629106519E+02 0.  0.
        -11    1    3    3    0    0  0.35128450369E+02 -0.58887860831E+01 -0.10966827655E+03  0.11530748765E+03  0.00000000000E+00 0.  1.
         12    1    3    3    0    0 -0.11961904300E+02 -0.26171792048E+02 -0.46236860720E+03  0.46326318522E+03  0.00000000000E+00 0. -1.
         13    1    5    5    0    0 -0.53110064947E+02  0.13908250594E+02 -0.94559258019E+00  0.54909130194E+02  0.00000000000E+00 0. -1.
        -14    1    5    5    0    0 -0.16677885944E+02 -0.45722600323E+02  0.42322151142E+02  0.64497073865E+02  0.00000000000E+00 0.  1.
          5    1    4    4  501    0  0.68808426748E+02  0.21866315176E+02 -0.10594922947E+03  0.12827878607E+03  0.41800000000E+01 0. -1.
         -5    1    4    4    0  501 -0.22187021925E+02  0.42008612685E+02  0.91571766930E+01  0.48562472822E+02  0.41800000000E+01 0. -1.
</event>
<event>
11    1  0.8864208E-009  0.1988434E+03  0.7561462E-02  0.1055345E+00
         22   -1    0    0    0    0  0.00000000000E+00  0.00000000000E+00  0.51970684795E+03  0.51970684795E+03  0.00000000000E+00 0.  1.
         22   -1    0    0    0    0 -0.00000000000E+00 -0.00000000000E+00 -0.93974615674E+03  0.93974615674E+03  0.00000000000E+00 0.  1.
        -24    2    1    2    0    0 -0.29998204758E+02 -0.68691909744E+02 -0.85828414304E+03  0.86501103335E+03  0.77291311725E+02 0.  0.
         25    2    1    2    0    0 -0.13371519006E+03  0.46052372884E+02  0.10996772348E+03  0.21849715075E+03  0.12509009385E+03 0.  0.
         24    2    1    2    0    0  0.16371339482E+03  0.22639536859E+02  0.32827711078E+03  0.37594482058E+03  0.79082377242E+02 0.  0.
        -11    1    5    5    0    0  0.15514951810E+03  0.65073385926E+00  0.25039774034E+03  0.29456887953E+03  0.00000000000E+00 0.  1.
         12    1    5    5    0    0  0.85638767147E+01  0.21988803000E+02  0.77879370444E+02  0.81375941054E+02  0.00000000000E+00 0. -1.
         13    1    3    3    0    0 -0.41545635350E+02 -0.65955342019E+02 -0.46056144324E+03  0.46711132501E+03  0.00000000000E+00 0. -1.
        -14    1    3    3    0    0  0.11547430592E+02 -0.27365677249E+01 -0.39772269980E+03  0.39789970834E+03  0.00000000000E+00 0.  1.
          5    1    4    4  501    0 -0.89277687400E+01  0.29505934488E+02  0.84438457101E+02  0.89986836050E+02  0.41800000000E+01 0.  1.
         -5    1    4    4    0  501 -0.12478742132E+03  0.16546438397E+02  0.25529266376E+02  0.12851031470E+03  0.41800000000E+01 0.  1.
</event>
<event>
11    1  0.8864208E-009  0.1487292E+03  0.7561462E-02  0.1098184E+00
         22   -1    0    0    0    0  0.00000000000E+00  0.00000000000E+00  0.93345696564E+02  0.93345696564E+02  0.00000000000E+00 0. -1.
         22   -1    0    0    0    0 -0.00000000000E+00 -0.00000000000E+00 -0.82587575198E+03  0.82587575198E+03  0.00000000000E+00 0.  1.
         24    2    1    2    0    0  0.28378048919E+02  0.35104057986E+02 -0.54584174944E+03  0.55541799888E+03  0.92240606553E+02 0.  0.
         25    2    1    2    0    0 -0.99635407780E+02 -0.53009368141E+02 -0.19136578078E+03  0.25495907771E+03  0.12508421827E+03 0.  0.
        -24    2    1    2    0    0  0.71257358861E+02  0.17905310154E+02  0.46774748089E+01  0.10884437195E+03  0.80168617368E+02 0.  0.
        -11    1    3    3    0    0  0.52240709909E+02  0.15383720734E+02 -0.47494964830E+03  0.47806162684E+03  0.00000000000E+00 0.  1.
         12    1    3    3    0    0 -0.23862660990E+02  0.19720337252E+02 -0.70892101141E+02  0.77356372040E+02  0.00000000000E+00 0. -1.
         13    1    5    5    0    0  0.78574119139E+02  0.32084799874E+02  0.19480319535E+02  0.87079328377E+02  0.00000000000E+00 0. -1.
        -14    1    5    5    0    0 -0.73167602776E+01 -0.14179489720E+02 -0.14802844726E+02  0.21765043571E+02  0.00000000000E+00 0.  1.
          5    1    4    4  501    0 -0.31504790360E+02 -0.85166897936E+02 -0.84292598987E+02  0.12397042778E+03  0.41800000000E+01 0. -1.
         -5    1    4    4    0  501 -0.68130617420E+02  0.32157529795E+02 -0.10707318179E+03  0.13098864993E+03  0.41800000000E+01 0. -1.
</event>
<event>
11    1  0.8864208E-009  0.1437464E+03  0.7561462E-02  0.1103446E+00
         22   -1    0    0    0    0  0.00000000000E+00  0.00000000000E+00  0.10094908389E+04  0.10094908389E+04  0.00000000000E+00 0. -1.
         22   -1    0    0    0    0 -0.00000000000E+00 -0.00000000000E+00 -0.87969042026E+03  0.87969042026E+03  0.00000000000E+00 0. -1.
        -24    2    1    2    0    0 -0.52691218172E+02  0.48560261633E+02 -0.68416780804E+03  0.69284975852E+03  0.82587740271E+02 0.  0.
         25    2    1    2    0    0  0.69996395315E+02 -0.19162184151E+02 -0.16156783215E+03  0.21683631423E+03  0.12508852116E+03 0.  0.
         24    2    1    2    0    0 -0.17305177143E+02 -0.29398077481E+02  0.97553605877E+03  0.97949518636E+03  0.81095635044E+02 0.  0.
        -11    1    5    5    0    0  0.12540501913E+02 -0.86823894073E+01  0.34070489469E+02  0.37328893992E+02  0.00000000000E+00 0.  1.
         12    1    5    5    0    0 -0.29845679056E+02 -0.20715688074E+02  0.94146556931E+03  0.94216629237E+03  0.00000000000E+00 0. -1.
         11    1    3    3    0    0 -0.14010904642E+02  0.41750105072E+02 -0.57757508539E+03  0.57925154811E+03  0.00000000000E+00 0. -1.
        -12    1    3    3    0    0 -0.38680313531E+02  0.68101565601E+01 -0.10659272265E+03  0.11359821041E+03  0.00000000000E+00 0.  1.
          5    1    4    4  501    0  0.23687772871E+02  0.53320098866E+02 -0.66434096359E+02  0.88516128958E+02  0.41800000000E+01 0. -1.
         -5    1    4    4    0  501  0.46308622445E+02 -0.72482283018E+02 -0.95133735787E+02  0.12832018527E+03  0.41800000000E+01 0. -1.
</event>
<event>
11    1  0.8864208E-009  0.1520786E+03  0.7561462E-02  0.1094774E+00
         22   -1    0    0    0    0  0.00000000000E+00  0.00000000000E+00  0.18139846786E+03  0.18139846786E+03  0.00000000000E+00 0.  1.
         22   -1    0    0    0    0 -0.00000000000E+00 -0.00000000000E+00 -0.10785429309E+04  0.10785429309E+04  0.00000000000E+00 0. -1.
        -24    2    1    2    0    0  0.83199835571E+02 -0.25559487193E+02 -0.90788504148E+03  0.91550803640E+03  0.79524940360E+02 0.  0.
         25    2    1    2    0    0 -0.88037798951E+02 -0.15670592053E+02 -0.11286703323E+03  0.19076163033E+03  0.12511918685E+03 0.  0.
         24    2    1    2    0    0  0.48379633803E+01  0.41230079245E+02  0.12360761171E+03  0.15367173199E+03  0.81319334825E+02 0.  0.
        -13    1    5    5    0    0 -0.35304879939E+02  0.32037508265E+02  0.48458246528E+02  0.67978218128E+02  0.00000000000E+00 0.  1.
         14    1    5    5    0    0  0.40142843319E+02  0.91925709808E+01  0.75149365184E+02  0.85693513865E+02  0.00000000000E+00 0. -1.
         11    1    3    3    0    0  0.93830262688E+02 -0.27685789387E+02 -0.88248803361E+03  0.88789399739E+03  0.00000000000E+00 0. -1.
        -12    1    3    3    0    0 -0.10630427118E+02  0.21263021943E+01 -0.25397007873E+02  0.27614039013E+02  0.00000000000E+00 0.  1.
          5    1    4    4  501    0 -0.51453004036E+02 -0.58749044448E+02 -0.10873588044E+03  0.13393963545E+03  0.41800000000E+01 0. -1.
         -5    1    4    4    0  501 -0.36584794915E+02  0.43078452395E+02 -0.41311527897E+01  0.56821994888E+02  0.41800000000E+01 0. -1.
</event>
<event>
11    1  0.8864208E-009  0.1562153E+03  0.7561462E-02  0.1090692E+00
         22   -1    0    0    0    0  0.00000000000E+00  0.00000000000E+00  0.14330429236E+03  0.14330429236E+03  0.00000000000E+00 0. -1.
         22   -1    0    0    0    0 -0.00000000000E+00 -0.00000000000E+00 -0.79988650430E+03  0.79988650430E+03  0.00000000000E+00 0. -1.
        -24    2    1    2    0    0  0.77703910563E+02 -0.29535425416E+02 -0.44522599406E+03  0.46022033422E+03  0.81647603580E+02 0.  0.
         25    2    1    2    0    0 -0.13071121400E+03  0.16330187694E+02 -0.29732057934E+03  0.34842394095E+03  0.12509044421E+03 0.  0.
         24    2    1    2    0    0  0.53007303440E+02  0.13205237721E+02  0.85964361463E+02  0.13454652149E+03  0.87913266822E+02 0.  0.
        -13    1    5    5    0    0  0.27697626959E+02 -0.35225938419E+02  0.20515693708E+02  0.49284064007E+02  0.00000000000E+00 0.  1.
         14    1    5    5    0    0  0.25309676481E+02  0.48431176141E+02  0.65448667755E+02  0.85262457488E+02  0.00000000000E+00 0. -1.
         11    1    3    3    0    0  0.57976990871E+02 -0.37072690580E+02 -0.15946594349E+03  0.17368103809E+03  0.00000000000E+00 0. -1.
        -12    1    3    3    0    0  0.19726919692E+02  0.75372651642E+01 -0.28576005057E+03  0.28653929614E+03  0.00000000000E+00 0.  1.
          5    1    4    4  501    0 -0.44396468669E+02  0.63205826362E+02 -0.17616247205E+03  0.19239727616E+03  0.41800000000E+01 0. -1.
         -5    1    4    4    0  501 -0.86314745334E+02 -0.46875638667E+02 -0.12115810730E+03  0.15602666479E+03  0.41800000000E+01 0. -1.
</event>
<event>
11    1  0.8864208E-009  0.1362287E+03  0.7561462E-02  0.1111844E+00
         22   -1    0    0    0    0  0.00000000000E+00  0.00000000000E+00  0.18432018010E+03  0.18432018010E+03  0.00000000000E+00 0. -1.
         22   -1    0    0    0    0 -0.00000000000E+00 -0.00000000000E+00 -0.10252362920E+04  0.10252362920E+04  0.00000000000E+00 0.  1.
        -24    2    1    2    0    0  0.55300073017E+02  0.62228212757E+01 -0.87399954212E+03  0.87945655772E+03  0.80447596010E+02 0.  0.
         25    2    1    2    0    0  0.45957984221E+01 -0.56173303047E+01 -0.10286400309E+03  0.16212113792E+03  0.12509829921E+03 0.  0.
         24    2    1    2    0    0 -0.59895871439E+02 -0.60549097102E+00  0.13594743333E+03  0.16797877645E+03  0.78404608756E+02 0.  0.
        -13    1    5    5    0    0 -0.23926114900E+01 -0.12802003577E+02 -0.60015302510E+01  0.14339952952E+02  0.00000000000E+00 0.  1.
         14    1    5    5    0    0 -0.57503259949E+02  0.12196512606E+02  0.14194896358E+03  0.15363882350E+03  0.00000000000E+00 0. -1.
         13    1    3    3    0    0 -0.13432758253E+02  0.18540616258E+02 -0.11535025620E+03  0.11760048916E+03  0.00000000000E+00 0. -1.
        -14    1    3    3    0    0  0.68732831270E+02 -0.12317794982E+02 -0.75864928592E+03  0.76185606856E+03  0.00000000000E+00 0.  1.
          5    1    4    4  501    0 -0.15238946133E+02 -0.21975344530E+02 -0.12502539216E+03  0.12792170391E+03  0.41800000000E+01 0. -1.
         -5    1    4    4    0  501  0.19834744555E+02  0.16358014225E+02  0.22161389068E+02  0.34199434006E+02  0.41800000000E+01 0. -1.
</event>
<event>
11    1  0.8864208E-009  0.1555267E+03  0.7561462E-02  0.1091362E+00
         22   -1    0    0    0    0  0.00000000000E+00  0.00000000000E+00  0.56881642548E+03  0.56881642548E+03  0.00000000000E+00 0.  1.
         22   -1    0    0    0    0 -0.00000000000E+00 -0.00000000000E+00 -0.18383507263E+03  0.18383507263E+03  0.00000000000E+00 0.  1.
        -24    2    1    2    0    0  0.72270801161E+02 -0.47280849285E+02 -0.11117407679E+03  0.16086558843E+03  0.77842885225E+02 0.  0.
         25    2    1    2    0    0  0.37446085265E+01  0.10713626565E+03  0.14588955596E+03  0.22005348023E+03  0.12509024788E+03 0.  0.
         24    2    1    2    0    0 -0.76015409687E+02 -0.59855416362E+02  0.35026587368E+03  0.37173242945E+03  0.78344134815E+02 0.  0.
        -13    1    5    5    0    0 -0.54181672375E+02 -0.78197253927E+02  0.24995189604E+03  0.26744422685E+03  0.00000000000E+00 0.  1.
         14    1    5    5    0    0 -0.21833737312E+02  0.18341837565E+02  0.10031397764E+03  0.10428820260E+03  0.00000000000E+00 0. -1.
         11    1    3    3    0    0  0.13300152025E+02 -0.35465541339E+02 -0.41548312889E+01  0.38104609818E+02  0.00000000000E+00 0. -1.
        -12    1    3    3    0    0  0.58970649136E+02 -0.11815307946E+02 -0.10701924550E+03  0.12276097861E+03  0.00000000000E+00 0.  1.
          5    1    4    4  501    0 -0.13227353893E+02  0.11552049081E+03  0.57913582305E+02  0.12996692696E+03  0.41800000000E+01 0.  1.
         -5    1    4    4    0  501  0.16971962420E+02 -0.83842251644E+01  0.87975973652E+02  0.90086553269E+02  0.41800000000E+01 0.  1.
</event>
<event>
11    1  0.8864208E-009  0.1371608E+03  0.7561462E-02  0.1110771E+00
         22   -1    0    0    0    0  0.00000000000E+00  0.00000000000E+00  0.14939035252E+04  0.14939035252E+04  0.00000000000E+00 0.  1.
         22   -1    0    0    0    0 -0.00000000000E+00 -0.00000000000E+00 -0.35364711323E+03  0.35364711323E+03  0.00000000000E+00 0.  1.
         24    2    1    2    0    0  0.19423038442E+00  0.48368626718E+02 -0.33132821025E+03  0.34408407492E+03  0.79220615600E+02 0.  0.
         25    2    1    2    0    0 -0.51594664766E+02 -0.18793662055E+02  0.32522371268E+03  0.35274224449E+03  0.12506564915E+03 0.  0.
        -24    2    1    2    0    0  0.51400434381E+02 -0.29574964663E+02  0.11463609095E+04  0.11507243190E+04  0.80662508321E+02 0.  0.
        -11    1    3    3    0    0 -0.26039288242E+02  0.41348951713E+01 -0.21853666401E+03  0.22012136517E+03  0.00000000000E+00 0.  1.
         12    1    3    3    0    0  0.26233518627E+02  0.44233731546E+02 -0.11279154624E+03  0.12396270975E+03  0.00000000000E+00 0. -1.
         13    1    5    5    0    0  0.13333746540E+02 -0.35253588090E+02  0.19639150873E+03  0.19997557093E+03  0.00000000000E+00 0. -1.
        -14    1    5    5    0    0  0.38066687841E+02  0.56786234264E+01  0.94996940081E+03  0.95074874807E+03  0.00000000000E+00 0.  1.
          5    1    4    4  501    0 -0.75730789453E+02 -0.51601181719E+02  0.18245082523E+03  0.20421461861E+03  0.41800000000E+01 0. -1.
         -5    1    4    4    0  501  0.24136124687E+02  0.32807519664E+02  0.14277288744E+03  0.14852762588E+03  0.41800000000E+01 0. -1.
</event>
<event>
11    1  0.8864208E-009  0.1386294E+03  0.7561462E-02  0.1109099E+00
         22   -1    0    0    0    0  0.00000000000E+00  0.00000000000E+00  0.26428920997E+03  0.26428920997E+03  0.00000000000E+00 0. -1.
         22   -1    0    0    0    0 -0.00000000000E+00 -0.00000000000E+00 -0.14556574235E+04  0.14556574235E+04  0.00000000000E+00 0.  1.
         24    2    1    2    0    0 -0.37895749828E+02  0.47214594527E+02 -0.11734361857E+04  0.11777244444E+04  0.80106672748E+02 0.  0.
         25    2    1    2    0    0  0.16933583916E+02 -0.55491743741E+02 -0.25554040903E+03  0.29034843548E+03  0.12504092710E+03 0.  0.
        -24    2    1    2    0    0  0.20962165911E+02  0.82771492143E+01  0.23760838128E+03  0.25187375360E+03  0.80465652923E+02 0.  0.
        -13    1    3    3    0    0 -0.64368571573E+01  0.58616184390E+02 -0.94644071423E+03  0.94827597025E+03  0.00000000000E+00 0.  1.
         14    1    3    3    0    0 -0.31458892671E+02 -0.11401589863E+02 -0.22699547151E+03  0.22944847410E+03  0.00000000000E+00 0. -1.
         13    1    5    5    0    0  0.96521562708E+01  0.11994309176E+01  0.23831462023E+03  0.23851302054E+03  0.00000000000E+00 0. -1.
        -14    1    5    5    0    0  0.11310009641E+02  0.70777182966E+01 -0.70623894835E+00  0.13360733057E+02  0.00000000000E+00 0.  1.
          5    1    4    4  501    0 -0.13746653500E+02  0.30913047230E+02 -0.25193677337E+02  0.42388450659E+02  0.41800000000E+01 0. -1.
         -5    1    4    4    0  501  0.30680237417E+02 -0.86404790971E+02 -0.23034673170E+03  0.24795998482E+03  0.41800000000E+01 0. -1.
</event>
<event>
11    1  0.8864208E-009  0.2347871E+03  0.7561462E-02  0.1032331E+00
         22   -1    0    0    0    0  0.00000000000E+00  0.00000000000E+00  0.12411778601E+04  0.12411778601E+04  0.00000000000E+00 0. -1.
         22   -1    0    0    0    0 -0.00000000000E+00 -0.00000000000E+00 -0.79762792481E+03  0.79762792481E+03  0.00000000000E+00 0. -1.
        -24    2    1    2    0    0  0.34047130585E+02 -0.80138530624E+02 -0.31404146682E+03  0.33568554338E+03  0.80506831753E+02 0.  0.
         25    2    1    2    0    0 -0.64019174602E+02 -0.11779595219E+03 -0.44502262533E+03  0.48131833774E+03  0.12509142305E+03 0.  0.
         24    2    1    2    0    0  0.29972044017E+02  0.19793448281E+03  0.12026140274E+04  0.12218019038E+04  0.80268363646E+02 0.  0.
        -13    1    5    5    0    0 -0.13694642991E+02  0.74130688307E+01  0.40998039166E+02  0.43855855386E+02  0.00000000000E+00 0.  1.
         14    1    5    5    0    0  0.43666687008E+02  0.19052141398E+03  0.11616159883E+04  0.11779460484E+04  0.00000000000E+00 0. -1.
         11    1    3    3    0    0  0.60362530045E+02 -0.48663814461E+02 -0.20211988490E+03  0.21648152287E+03  0.00000000000E+00 0. -1.
        -12    1    3    3    0    0 -0.26315399460E+02 -0.31474716163E+02 -0.11192158192E+03  0.11920402051E+03  0.00000000000E+00 0.  1.
          5    1    4    4  501    0 -0.15670727154E+02 -0.12135023025E+03 -0.38529716982E+03  0.40428063464E+03  0.41800000000E+01 0.  1.
         -5    1    4    4    0  501 -0.48348447448E+02  0.35542780651E+01 -0.59725455505E+02  0.77037703097E+02  0.41800000000E+01 0.  1.
</event>
<event>
11    1  0.8864208E-009  0.1947164E+03  0.7561462E-02  0.1058324E+00
         22   -1    0    0    0    0  0.00000000000E+00  0.00000000000E+00  0.75119695600E+03  0.75119695600E+03  0.00000000000E+00 0.  1.
         22   -1    0    0    0    0 -0.00000000000E+00 -0.00000000000E+00 -0.62177384557E+03  0.62177384557E+03  0.00000000000E+00 0.  1.
         24    2    1    2    0    0  0.31808662369E+02 -0.77887801503E+02 -0.52571987476E+03  0.53858300487E+03  0.81313995054E+02 0.  0.
         25    2    1    2    0    0 -0.86344172309E+02 -0.69904341468E+02  0.13148186776E+02  0.16781217472E+03  0.12508444396E+03 0.  0.
        -24    2    1    2    0    0  0.54535509940E+02  0.14779214297E+03  0.64199479841E+03  0.66657562198E+03  0.85726887638E+02 0.  0.
        -13    1    3    3    0    0 -0.65713159567E+01 -0.47024807016E+02 -0.41106287690E+03  0.41379608920E+03  0.00000000000E+00 0.  1.
         14    1    3    3    0    0  0.38379978326E+02 -0.30862994487E+02 -0.11465699786E+03  0.12478691567E+03  0.00000000000E+00 0. -1.
         13    1    5    5    0    0  0.21942104315E+02  0.14473766886E+03  0.51138818166E+03  0.53192886843E+03  0.00000000000E+00 0. -1.
        -14    1    5    5    0    0  0.32593405625E+02  0.30544741102E+01  0.13060661675E+03  0.13464675355E+03  0.00000000000E+00 0.  1.
          5    1    4    4  501    0  0.29621221536E+02 -0.33787807274E+02  0.10092780146E+02  0.46242505304E+02  0.41800000000E+01 0.  1.
         -5    1    4    4    0  501 -0.11596539384E+03 -0.36116534194E+02  0.30554066298E+01  0.12156966941E+03  0.41800000000E+01 0.  1.
</event>
<event>
11    1  0.8864208E-009  0.2795978E+03  0.7561462E-02  0.1009216E+00
         22   -1    0    0    0    0  0.00000000000E+00  0.00000000000E+00  0.78894399799E+03  0.78894399799E+03  0.00000000000E+00 0.  1.
         22   -1    0    0    0    0 -0.00000000000E+00 -0.00000000000E+00 -0.12562542848E+04  0.12562542848E+04  0.00000000000E+00 0. -1.
         24    2    1    2    0    0 -0.13109291533E+03 -0.21661931639E+03 -0.11151538003E+04  0.11463318680E+04  0.79996702972E+02 0.  0.
         25    2    1    2    0    0  0.14682749210E+03  0.17092060773E+03  0.14234606515E+02  0.25811947623E+03  0.12510345081E+03 0.  0.
        -24    2    1    2    0    0 -0.15734576770E+02  0.45698708659E+02  0.63360890699E+03  0.64074693858E+03  0.82221915585E+02 0.  0.
        -13    1    3    3    0    0  0.55992601716E+01  0.23772544861E+01 -0.13069744394E+02  0.14416007487E+02  0.00000000000E+00 0.  1.
         14    1    3    3    0    0 -0.13669217550E+03 -0.21899657088E+03 -0.11020840559E+04  0.11319158605E+04  0.00000000000E+00 0. -1.
         13    1    5    5    0    0 -0.21871530763E+02 -0.19733846421E+02  0.17756742837E+03  0.17999438927E+03  0.00000000000E+00 0. -1.
        -14    1    5    5    0    0  0.61369539934E+01  0.65432555080E+02  0.45604147862E+03  0.46075254931E+03  0.00000000000E+00 0.  1.
          5    1    4    4  501    0  0.14707411085E+02  0.59112939051E+02  0.52827843971E+02  0.80739711435E+02  0.41800000000E+01 0.  1.
         -5    1    4    4    0  501  0.13212008101E+03  0.11180766868E+03 -0.38593237456E+02  0.17737976480E+03  0.41800000000E+01 0.  1.
</event>
<event>
11    1  0.8864208E-009  0.1836840E+03  0.7561462E-02  0.1066701E+00
         22   -1    0    0    0    0  0.00000000000E+00  0.00000000000E+00  0.25127148868E+03  0.25127148868E+03  0.00000000000E+00 0.  1.
         22   -1    0    0    0    0 -0.00000000000E+00 -0.00000000000E+00 -0.24352588579E+04  0.24352588579E+04  0.00000000000E+00 0.  1.
         24    2    1    2    0    0 -0.20848315700E+02  0.67421521397E+02 -0.22135646039E+04  0.22162196975E+04  0.82347908852E+02 0.  0.
         25    2    1    2    0    0 -0.11593961471E+03 -0.45106063771E+02 -0.14873459337E+03  0.23074679499E+03  0.12508218453E+03 0.  0.
        -24    2    1    2    0    0  0.13678793041E+03 -0.22315457626E+02  0.17831182814E+03  0.23956385400E+03  0.79917548345E+02 0.  0.
        -13    1    3    3    0    0 -0.21320075231E+02  0.85693033367E+02 -0.16527957360E+04  0.16551530403E+04  0.00000000000E+00 0.  1.
         14    1    3    3    0    0  0.47175953170E+00 -0.18271511971E+02 -0.56076886791E+03  0.56106665729E+03  0.00000000000E+00 0. -1.
         11    1    5    5    0    0  0.74944914267E+02  0.23343222046E+02  0.11860727198E+03  0.14222985325E+03  0.00000000000E+00 0. -1.
        -12    1    5    5    0    0  0.61843016142E+02 -0.45658679672E+02  0.59704556162E+02  0.97334000747E+02  0.00000000000E+00 0.  1.
          5    1    4    4  501    0  0.10330462487E+02  0.26362299118E+02 -0.11047471036E+02  0.30679118082E+02  0.41800000000E+01 0.  1.
         -5    1    4    4    0  501 -0.12627007720E+03 -0.71468362889E+02 -0.13768712233E+03  0.20006767691E+03  0.41800000000E+01 0.  1.
</event>
<event>
11    1  0.8864208E-009  0.1563657E+03  0.7561462E-02  0.1090546E+00
         22   -1    0    0    0    0  0.00000000000E+00  0.00000000000E+00  0.11120918460E+04  0.11120918460E+04  0.00000000000E+00 0. -1.
         22   -1    0    0    0    0 -0.00000000000E+00 -0.00000000000E+00 -0.16992171913E+03  0.16992171913E+03  0.00000000000E+00 0. -1.
         24    2    1    2    0    0 -0.18001978018E+02  0.23086113951E+02 -0.70341683295E+02  0.10923276810E+03  0.78273912306E+02 0.  0.
         25    2    1    2    0    0 -0.65674515155E+02 -0.66070286890E+02  0.33041072624E+01  0.15600260202E+03  0.12508984755E+03 0.  0.
        -24    2    1    2    0    0  0.83676493172E+02  0.42984172939E+02  0.10092077029E+04  0.10167781950E+04  0.80550081455E+02 0.  0.
        -11    1    3    3    0    0  0.16146840954E+02 -0.92812576000E+01  0.59910077214E+01  0.19564109715E+02  0.00000000000E+00 0.  1.
         12    1    3    3    0    0 -0.34148818972E+02  0.32367371551E+02 -0.76332691017E+02  0.89668658383E+02  0.00000000000E+00 0. -1.
         13    1    5    5    0    0  0.84880013545E+02  0.60546297914E+02  0.91673875994E+03  0.92264859229E+03  0.00000000000E+00 0. -1.
        -14    1    5    5    0    0 -0.12035203725E+01 -0.17562124975E+02  0.92468942996E+02  0.94129602750E+02  0.00000000000E+00 0.  1.
          5    1    4    4  501    0 -0.62117473895E+02 -0.69502836187E+02  0.52038852355E+02  0.10683978358E+03  0.41800000000E+01 0.  1.
         -5    1    4    4    0  501 -0.35570412599E+01  0.34325492973E+01 -0.48734745093E+02  0.49162818435E+02  0.41800000000E+01 0.  1.
</event>
<event>
11    1  0.8864208E-009  0.2117703E+03  0.7561462E-02  0.1046499E+00
         22   -1    0    0    0    0  0.00000000000E+00  0.00000000000E+00  0.14437900390E+03  0.14437900390E+03  0.00000000000E+00 0.  1.
         22   -1    0    0    0    0 -0.00000000000E+00 -0.00000000000E+00 -0.13585071356E+04  0.13585071356E+04  0.00000000000E+00 0.  1.
         24    2    1    2    0    0 -0.44868704048E+02 -0.48149908167E+02 -0.97867588223E+03  0.98408269565E+03  0.79250584562E+02 0.  0.
         25    2    1    2    0    0 -0.92978692421E+02  0.15081793555E+03 -0.24831331724E+03  0.32969432705E+03  0.12509100224E+03 0.  0.
        -24    2    1    2    0    0  0.13784739647E+03 -0.10266802739E+03  0.12861067752E+02  0.18910911682E+03  0.77808884069E+02 0.  0.
        -11    1    3    3    0    0 -0.52992612534E+02 -0.43700697001E+02 -0.96570214630E+03  0.96814183014E+03  0.00000000000E+00 0.  1.
         12    1    3    3    0    0  0.81239084863E+01 -0.44492111663E+01 -0.12973735934E+02  0.15940865509E+02  0.00000000000E+00 0. -1.
         13    1    5    5    0    0  0.87288449757E+02 -0.23645504921E+02 -0.14035634641E+02  0.91517115360E+02  0.00000000000E+00 0. -1.
        -14    1    5    5    0    0  0.50558946712E+02 -0.79022522466E+02  0.26896702392E+02  0.97592001461E+02  0.00000000000E+00 0.  1.
          5    1    4    4  501    0 -0.27088209489E+02 -0.30801968547E+01  0.29505349594E+01  0.27738723160E+02  0.41800000000E+01 0. -1.
         -5    1    4    4    0  501 -0.65890482932E+02  0.15389813241E+03 -0.25126385220E+03  0.30195560389E+03  0.41800000000E+01 0. -1.
</event>
<event>
11    1  0.8864208E-009  0.2253433E+03  0.7561462E-02  0.1037921E+00
         22   -1    0    0    0    0  0.00000000000E+00  0.00000000000E+00  0.63421425987E+03  0.63421425987E+03  0.00000000000E+00 0.  1.
         22   -1    0    0    0    0 -0.00000000000E+00 -0.00000000000E+00 -0.45873885662E+03  0.45873885662E+03  0.00000000000E+00 0. -1.
        -24    2    1    2    0    0 -0.16098549002E+03  0.94131341684E+02 -0.38109952750E+03  0.43179973477E+03  0.80231687012E+02 0.  0.
         25    2    1    2    0    0  0.16477271762E+03 -0.11134084554E+03  0.24790049339E+03  0.34153902116E+03  0.12508963184E+03 0.  0.
         24    2    1    2    0    0 -0.37872275982E+01  0.17209503856E+02  0.30867443736E+03  0.31961436057E+03  0.81011857693E+02 0.  0.
        -13    1    5    5    0    0 -0.31245684103E+02  0.29044233091E+02  0.98740782868E+02  0.10756208650E+03  0.00000000000E+00 0.  1.
         14    1    5    5    0    0  0.27458456504E+02 -0.11834729235E+02  0.20993365449E+03  0.21205227407E+03  0.00000000000E+00 0. -1.
         13    1    3    3    0    0 -0.12183726005E+03  0.10149586682E+03 -0.33655460070E+03  0.37204129902E+03  0.00000000000E+00 0. -1.
        -14    1    3    3    0    0 -0.39148229967E+02 -0.73645251387E+01 -0.44544926793E+02  0.59758435749E+02  0.00000000000E+00 0.  1.
          5    1    4    4  501    0  0.15087925097E+03 -0.11910237784E+03  0.15436796424E+03  0.24657020413E+03  0.41800000000E+01 0. -1.
         -5    1    4    4    0  501  0.13893466647E+02  0.77615322953E+01  0.93532529148E+02  0.94968817029E+02  0.41800000000E+01 0. -1.
</event>
<event>
11    1  0.8864208E-009  0.2058356E+03  0.7561462E-02  0.1050472E+00
         22   -1    0    0    0    0  0.00000000000E+00  0.00000000000E+00  0.32815996685E+03  0.32815996685E+03  0.00000000000E+00 0.  1.
         22   -1    0    0    0    0 -0.00000000000E+00 -0.00000000000E+00 -0.78308510618E+03  0.78308510618E+03  0.00000000000E+00 0.  1.
        -24    2    1    2    0    0  0.11419160432E+03 -0.34175848689E+02 -0.20197453821E+03  0.24780826663E+03  0.80046934944E+02 0.  0.
         25    2    1    2    0    0 -0.22391242050E+03  0.17274597790E+02 -0.51052195019E+03  0.57158941996E+03  0.12508644852E+03 0.  0.
         24    2    1    2    0    0  0.10972081618E+03  0.16901250898E+02  0.25757134907E+03  0.29184738644E+03  0.80669618323E+02 0.  0.
        -13    1    5    5    0    0  0.89685113852E+02  0.35846622216E+02  0.24110448879E+03  0.25973019556E+03  0.00000000000E+00 0.  1.
         14    1    5    5    0    0  0.20035702332E+02 -0.18945371318E+02  0.16466860287E+02  0.32117190880E+02  0.00000000000E+00 0. -1.
         11    1    3    3    0    0 -0.42854754108E+00 -0.24715072544E+02 -0.17020801749E+02  0.30012100160E+02  0.00000000000E+00 0. -1.
        -12    1    3    3    0    0  0.11462015186E+03 -0.94607761452E+01 -0.18495373646E+03  0.21779616647E+03  0.00000000000E+00 0.  1.
          5    1    4    4  501    0 -0.21258839337E+03  0.53115406747E+02 -0.44038059396E+03  0.49190203432E+03  0.41800000000E+01 0. -1.
         -5    1    4    4    0  501 -0.11324027135E+02 -0.35840808957E+02 -0.70141356226E+02  0.79687385642E+02  0.41800000000E+01 0. -1.
</event>
<event>
11    1  0.8864208E-009  0.1446065E+03  0.7561462E-02  0.1102521E+00
         22   -1    0    0    0    0  0.00000000000E+00  0.00000000000E+00  0.19304805139E+03  0.19304805139E+03  0.00000000000E+00 0. -1.
         22   -1    0    0    0    0 -0.00000000000E+00 -0.00000000000E+00 -0.69350038581E+03  0.69350038581E+03  0.00000000000E+00 0. -1.
         24    2    1    2    0    0 -0.27011404481E+02  0.66531502881E+02 -0.57005288558E+03  0.58017804558E+03  0.80561872921E+02 0.  0.
         25    2    1    2    0    0  0.43502027968E+02 -0.69049496616E+02 -0.49869003842E+02  0.15746317793E+03  0.12508986946E+03 0.  0.
        -24    2    1    2    0    0 -0.16490623487E+02  0.25179937352E+01  0.11946955500E+03  0.14890721369E+03  0.87304654867E+02 0.  0.
        -13    1    3    3    0    0 -0.30475882064E+02  0.33046291707E+02 -0.10911331553E+03  0.11801081479E+03  0.00000000000E+00 0.  1.
         14    1    3    3    0    0  0.34644775829E+01  0.33485211173E+02 -0.46093957005E+03  0.46216723079E+03  0.00000000000E+00 0. -1.
         11    1    5    5    0    0  0.21408938522E+02  0.29500109235E+02  0.79940846380E+02  0.87858625151E+02  0.00000000000E+00 0. -1.
        -12    1    5    5    0    0 -0.37899562009E+02 -0.26982115500E+02  0.39528708618E+02  0.61048588537E+02  0.00000000000E+00 0.  1.
          5    1    4    4  501    0  0.57469621500E+02 -0.17735273130E+02  0.25222204202E+02  0.65352347266E+02  0.41800000000E+01 0.  1.
         -5    1    4    4    0  501 -0.13967593533E+02 -0.51314223486E+02 -0.75091208043E+02  0.92110830669E+02  0.41800000000E+01 0.  1.
</event>
<event>
11    1  0.8864208E-009  0.1416492E+03  0.7561462E-02  0.1105731E+00
         22   -1    0    0    0    0  0.00000000000E+00  0.00000000000E+00  0.36743642524E+03  0.36743642524E+03  0.00000000000E+00 0. -1.
         22   -1    0    0    0    0 -0.00000000000E+00 -0.00000000000E+00 -0.23336667065E+04  0.23336667065E+04  0.00000000000E+00 0. -1.
         24    2    1    2    0    0  0.10460815804E+02  0.68103444731E+02 -0.20284435338E+04  0.20312270774E+04  0.80949135055E+02 0.  0.
         25    2    1    2    0    0 -0.21159228158E+02 -0.37792618921E+02 -0.28383919871E+03  0.31319027661E+03  0.12508982235E+03 0.  0.
        -24    2    1    2    0    0  0.10698412354E+02 -0.30310825809E+02  0.34605245121E+03  0.35668577774E+03  0.80244893060E+02 0.  0.
        -13    1    3    3    0    0  0.44364170553E+02  0.28218445701E+02 -0.85344395162E+03  0.85506200878E+03  0.00000000000E+00 0.  1.
         14    1    3    3    0    0 -0.33903354749E+02  0.39884999029E+02 -0.11749995822E+04  0.11761650686E+04  0.00000000000E+00 0. -1.
         11    1    5    5    0    0  0.24434379239E+02 -0.34041450969E+02  0.33747707582E+03  0.34006857540E+03  0.00000000000E+00 0. -1.
        -12    1    5    5    0    0 -0.13735966885E+02  0.37306251592E+01  0.85753753952E+01  0.16617202337E+02  0.00000000000E+00 0.  1.
          5    1    4    4  501    0 -0.22639939656E+02 -0.69993014556E+02 -0.26619808620E+03  0.27620731788E+03  0.41800000000E+01 0.  1.
         -5    1    4    4    0  501  0.14807114973E+01  0.32200395634E+02 -0.17641112512E+02  0.36982958727E+02  0.41800000000E+01 0.  1.
</event>
<event>
11    1  0.8864208E-009  0.1311537E+03  0.7561462E-02  0.1117860E+00
         22   -1    0    0    0    0  0.00000000000E+00  0.00000000000E+00  0.99821189759E+03  0.99821189759E+03  0.00000000000E+00 0.  1.
         22   -1    0    0    0    0 -0.00000000000E+00 -0.00000000000E+00 -0.17967314398E+04  0.17967314398E+04  0.00000000000E+00 0.  1.
         24    2    1    2    0    0  0.38348588323E+02  0.10529065362E+02 -0.15552382354E+04  0.15579323585E+04  0.82497207863E+02 0.  0.
         25    2    1    2    0    0 -0.56045026556E+02 -0.45473333476E+02 -0.21604151240E+03  0.25986649480E+03  0.12509113071E+03 0.  0.
        -24    2    1    2    0    0  0.17696438233E+02  0.34944268114E+02  0.97276020568E+03  0.97714448403E+03  0.83753561788E+02 0.  0.
        -11    1    3    3    0    0  0.17251713494E+01  0.36587284055E+02 -0.10672806548E+04  0.10679089857E+04  0.00000000000E+00 0.  1.
         12    1    3    3    0    0  0.36623416974E+02 -0.26058218693E+02 -0.48795758063E+03  0.49002337284E+03  0.00000000000E+00 0. -1.
         13    1    5    5    0    0 -0.23119763338E+02  0.38832323838E+02  0.33032974268E+03  0.33340697613E+03  0.00000000000E+00 0. -1.
        -14    1    5    5    0    0  0.40816201571E+02 -0.38880557239E+01  0.64243046299E+03  0.64373750790E+03  0.00000000000E+00 0.  1.
          5    1    4    4  501    0 -0.34111377416E+02 -0.73750514488E+02 -0.20743681746E+03  0.22282331587E+03  0.41800000000E+01 0. -1.
         -5    1    4    4    0  501 -0.21933649140E+02  0.28277181012E+02 -0.86046949387E+01  0.37043178935E+02  0.41800000000E+01 0. -1.
</event>
<event>
11    1  0.8864208E-009  0.1858831E+03  0.7561462E-02  0.1064981E+00
         22   -1    0    0    0    0  0.00000000000E+00  0.00000000000E+00  0.53858736073E+03  0.53858736073E+03  0.00000000000E+00 0.  1.
         22   -1    0    0    0    0 -0.00000000000E+00 -0.00000000000E+00 -0.11548283945E+04  0.11548283945E+04  0.00000000000E+00 0. -1.
         24    2    1    2    0    0  0.50068271527E+02 -0.14113334318E+03 -0.98779210648E+03  0.10025005670E+04  0.82756805422E+02 0.  0.
         25    2    1    2    0    0 -0.71326204922E+02  0.51073275522E+02 -0.11340856349E+03  0.19027531646E+03  0.12508911543E+03 0.  0.
        -24    2    1    2    0    0  0.21257933395E+02  0.90060067660E+02  0.48495963620E+03  0.50063987178E+03  0.83016365545E+02 0.  0.
        -11    1    3    3    0    0  0.80880019410E+01 -0.86805479863E+02 -0.33690140933E+03  0.34799880275E+03  0.00000000000E+00 0.  1.
         12    1    3    3    0    0  0.41980269586E+02 -0.54327863320E+02 -0.65089069716E+03  0.65450176425E+03  0.00000000000E+00 0. -1.
         13    1    5    5    0    0  0.45724815180E+00 -0.11458836340E+02  0.12561121581E+02  0.17008697231E+02  0.00000000000E+00 0. -1.
        -14    1    5    5    0    0  0.20800685243E+02  0.10151890400E+03  0.47239851462E+03  0.48363117455E+03  0.00000000000E+00 0.  1.
          5    1    4    4  501    0 -0.67806833774E+02  0.86767938338E+02 -0.10700137804E+03  0.15360081097E+03  0.41800000000E+01 0.  1.
         -5    1    4    4    0  501 -0.35193711480E+01 -0.35694662816E+02 -0.64071854532E+01  0.36674505481E+02  0.41800000000E+01 0.  1.
</event>
<event>
11    1  0.8864208E-009  0.1919604E+03  0.7561462E-02  0.1060359E+00
         22   -1    0    0    0    0  0.00000000000E+00  0.00000000000E+00  0.12046484187E+03  0.12046484187E+03  0.00000000000E+00 0. -1.
         22   -1    0    0    0    0 -0.00000000000E+00 -0.00000000000E+00 -0.68710183050E+03  0.68710183050E+03  0.00000000000E+00 0.  1.
        -24    2    1    2    0    0  0.11382472221E+02  0.12632843934E+03 -0.27545344609E+03  0.31351622507E+03  0.79557445642E+02 0.  0.
         25    2    1    2    0    0 -0.91611154673E+02  0.31455972708E+02 -0.24968693252E+03  0.29557440600E+03  0.12505432153E+03 0.  0.
         24    2    1    2    0    0  0.80228682452E+02 -0.15778441205E+03 -0.41496610020E+02  0.19847604130E+03  0.79612864239E+02 0.  0.
        -13    1    5    5    0    0  0.70659109791E+02 -0.11586244422E+03 -0.63888132460E+02  0.14999503074E+03  0.00000000000E+00 0.  1.
         14    1    5    5    0    0  0.95695726611E+01 -0.41921967830E+02  0.22391522441E+02  0.48481010560E+02  0.00000000000E+00 0. -1.
         11    1    3    3    0    0  0.17619641927E+02  0.26283605260E+02 -0.16178706485E+02  0.35539136605E+02  0.00000000000E+00 0. -1.
        -12    1    3    3    0    0 -0.62371697060E+01  0.10004483408E+03 -0.25927473961E+03  0.27797708846E+03  0.00000000000E+00 0.  1.
          5    1    4    4  501    0 -0.89030655589E+02 -0.30665554768E+02 -0.17037776475E+03  0.19471232371E+03  0.41800000000E+01 0.  1.
         -5    1    4    4    0  501 -0.25804990843E+01  0.62121527477E+02 -0.79309167764E+02  0.10086208229E+03  0.41800000000E+01 0.  1.
</event>
<event>
11    1  0.8864208E-009  0.2259917E+03  0.7561462E-02  0.1037528E+00
         22   -1    0    0    0    0  0.00000000000E+00  0.00000000000E+00  0.21093557498E+04  0.21093557498E+04  0.00000000000E+00 0.  1.
         22   -1    0    0    0    0 -0.00000000000E+00 -0.00000000000E+00 -0.27363789968E+03  0.27363789968E+03  0.00000000000E+00 0. -1.
        -24    2    1    2    0    0  0.66897545390E+02 -0.16894950339E+03 -0.18831846427E+03  0.27422777881E+03  0.81962274303E+02 0.  0.
         25    2    1    2    0    0 -0.59554270660E+02  0.28188395491E+03  0.59655000370E+03  0.67418438259E+03  0.12508956645E+03 0.  0.
         24    2    1    2    0    0 -0.73432747294E+01 -0.11293445152E+03  0.14274863107E+04  0.14345814881E+04  0.86595407913E+02 0.  0.
        -13    1    5    5    0    0 -0.10506092820E+02 -0.28250300258E+02  0.88526213735E+03  0.88577508956E+03  0.00000000000E+00 0.  1.
         14    1    5    5    0    0  0.31628180909E+01 -0.84684151259E+02  0.54222417339E+03  0.54880639856E+03  0.00000000000E+00 0. -1.
         11    1    3    3    0    0  0.31810182247E+00 -0.32555407871E+02 -0.83916297480E+02  0.90010559120E+02  0.00000000000E+00 0. -1.
        -12    1    3    3    0    0  0.66579443567E+02 -0.13639409552E+03 -0.10440216679E+03  0.18421721969E+03  0.00000000000E+00 0.  1.
          5    1    4    4  501    0 -0.81105807963E+02  0.17929418753E+03  0.29264141172E+03  0.35267694285E+03  0.41800000000E+01 0.  1.
         -5    1    4    4    0  501  0.21551537302E+02  0.10258976738E+03  0.30390859198E+03  0.32150743974E+03  0.41800000000E+01 0.  1.
</event>
<event>
11    1  0.8864208E-009  0.2909714E+03  0.7561462E-02  0.1004086E+00
         22   -1    0    0    0    0  0.00000000000E+00  0.00000000000E+00  0.71654746893E+02  0.71654746893E+02  0.00000000000E+00 0.  1.
         22   -1    0    0    0    0 -0.00000000000E+00 -0.00000000000E+00 -0.23214484465E+04  0.23214484465E+04  0.00000000000E+00 0.  1.
        -24    2    1    2    0    0 -0.31440004562E+03 -0.16497158798E+02 -0.11160926527E+04  0.11628900646E+04  0.86781033971E+02 0.  0.
         25    2    1    2    0    0  0.20361392356E+03 -0.12101836339E+03 -0.80493743862E+03  0.84833721318E+03  0.12509065919E+03 0.  0.
         24    2    1    2    0    0  0.11078612206E+03  0.13751552219E+03 -0.32876360825E+03  0.38187591564E+03  0.80991488175E+02 0.  0.
        -13    1    5    5    0    0  0.26921285778E+02 -0.63351020001E+01 -0.51422873378E+02  0.58388364010E+02  0.00000000000E+00 0.  1.
         14    1    5    5    0    0  0.83864836283E+02  0.14385062419E+03 -0.27734073487E+03  0.32348755163E+03  0.00000000000E+00 0. -1.
         13    1    3    3    0    0 -0.11420063889E+03 -0.19667524683E+02 -0.27746452742E+03  0.30069113959E+03  0.00000000000E+00 0. -1.
        -14    1    3    3    0    0 -0.20019940673E+03  0.31703658856E+01 -0.83862812533E+03  0.86219892500E+03  0.00000000000E+00 0.  1.
          5    1    4    4  501    0  0.72041322009E+02 -0.93516693335E+02 -0.23842052915E+03  0.26607732923E+03  0.41800000000E+01 0. -1.
         -5    1    4    4    0  501  0.13157260155E+03 -0.27501670054E+02 -0.56651690948E+03  0.58225988395E+03  0.41800000000E+01 0. -1.
</event>
<event>
11    1  0.8864208E-009  0.1443285E+03  0.7561462E-02  0.1102819E+00
         22   -1    0    0    0    0  0.00000000000E+00  0.00000000000E+00  0.11315854542E+04  0.11315854542E+04  0.00000000000E+00 0. -1.
         22   -1    0    0    0    0 -0.00000000000E+00 -0.00000000000E+00 -0.70479187756E+03  0.70479187756E+03  0.00000000000E+00 0. -1.
         24    2    1    2    0    0  0.26673233295E+02 -0.68500342576E+01 -0.61028400226E+03  0.61658151440E+03  0.83473445772E+02 0.  0.
         25    2    1    2    0    0  0.22712704962E+02 -0.46641109768E+02 -0.36267097569E+02  0.14018420540E+03  0.12508017025E+03 0.  0.
        -24    2    1    2    0    0 -0.49385938257E+02  0.53491144026E+02  0.10733446764E+04  0.10796116119E+04  0.90510578187E+02 0.  0.
        -11    1    3    3    0    0  0.18186562174E+02 -0.36627681265E+02 -0.15691058523E+03  0.16215199609E+03  0.00000000000E+00 0.  1.
         12    1    3    3    0    0  0.84866711211E+01  0.29777647008E+02 -0.45337341703E+03  0.45442951831E+03  0.00000000000E+00 0. -1.
         13    1    5    5    0    0 -0.57435047785E+02  0.56550854071E+02  0.10634270996E+04  0.10664773696E+04  0.00000000000E+00 0. -1.
        -14    1    5    5    0    0  0.80491095281E+01 -0.30597100452E+01  0.99175768564E+01  0.13134242287E+02  0.00000000000E+00 0.  1.
          5    1    4    4  501    0  0.21286154569E+02 -0.82746902516E+02  0.43580519848E+01  0.85654044092E+02  0.41800000000E+01 0.  1.
         -5    1    4    4    0  501  0.14265503927E+01  0.36105792747E+02 -0.40625149554E+02  0.54530161308E+02  0.41800000000E+01 0.  1.
</event>
<event>
11    1  0.8864208E-009  0.1376404E+03  0.7561462E-02  0.1110222E+00
         22   -1    0    0    0    0  0.00000000000E+00  0.00000000000E+00  0.16307001197E+04  0.16307001197E+04  0.00000000000E+00 0.  1.
         22   -1    0    0    0    0 -0.00000000000E+00 -0.00000000000E+00 -0.53252084798E+03  0.53252084798E+03  0.00000000000E+00 0.  1.
        -24    2    1    2    0    0  0.19559535955E+02 -0.15652756152E+02 -0.32509554347E+03  0.33467973032E+03  0.75470691551E+02 0.  0.
         25    2    1    2    0    0  0.12868252697E+02  0.63021621641E+02 -0.17601650893E+03  0.22531421809E+03  0.12508944294E+03 0.  0.
         24    2    1    2    0    0 -0.32427788653E+02 -0.47368865490E+02  0.15992913241E+04  0.16032270192E+04  0.96481941210E+02 0.  0.
        -11    1    5    5    0    0 -0.36758447379E+02 -0.37892298200E+02  0.15830555157E+04  0.15839355339E+04  0.00000000000E+00 0.  1.
         12    1    5    5    0    0  0.43306587261E+01 -0.94765672903E+01  0.16235808381E+02  0.19291485334E+02  0.00000000000E+00 0. -1.
         13    1    3    3    0    0  0.19699362299E+02 -0.13075575558E+01 -0.16441182250E+02  0.25692159418E+02  0.00000000000E+00 0. -1.
        -14    1    3    3    0    0 -0.13982634378E+00 -0.14345198596E+02 -0.30865436122E+03  0.30898757091E+03  0.00000000000E+00 0.  1.
          5    1    4    4  501    0  0.43758704533E+02  0.81405779645E+02 -0.78613182880E+02  0.12140523096E+03  0.41800000000E+01 0.  1.
         -5    1    4    4    0  501 -0.30890451835E+02 -0.18384158003E+02 -0.97403326053E+02  0.10390898713E+03  0.41800000000E+01 0.  1.
</event>
<event>
11    1  0.8864208E-009  0.1456970E+03  0.7561462E-02  0.1101359E+00
         22   -1    0    0    0    0  0.00000000000E+00  0.00000000000E+00  0.20727174071E+03  0.20727174071E+03  0.00000000000E+00 0. -1.
         22   -1    0    0    0    0 -0.00000000000E+00 -0.00000000000E+00 -0.13380585221E+04  0.13380585221E+04  0.00000000000E+00 0. -1.
         24    2    1    2    0    0  0.51818483974E+02 -0.49658986434E+02 -0.91667899018E+03  0.92276809024E+03  0.77777934589E+02 0.  0.
         25    2    1    2    0    0 -0.12234614503E+03  0.65857966733E+02 -0.38079092354E+03  0.42420947433E+03  0.12508437025E+03 0.  0.
        -24    2    1    2    0    0  0.70527661055E+02 -0.16198980299E+02  0.16668313234E+03  0.19835269822E+03  0.79523382386E+02 0.  0.
        -13    1    3    3    0    0  0.32837439703E+02 -0.55941741065E+02 -0.36448322391E+03  0.37021047575E+03  0.00000000000E+00 0.  1.
         14    1    3    3    0    0  0.18981044270E+02  0.62827546307E+01 -0.55219576627E+03  0.55255761449E+03  0.00000000000E+00 0. -1.
         13    1    5    5    0    0  0.65200576261E+02 -0.10368357271E+02  0.17490616141E+03  0.18695128584E+03  0.00000000000E+00 0. -1.
        -14    1    5    5    0    0  0.53270847945E+01 -0.58306230282E+01 -0.82230290649E+01  0.11401412382E+02  0.00000000000E+00 0.  1.
          5    1    4    4  501    0 -0.10625465632E+03 -0.11446461862E+02 -0.19773852819E+03  0.22480896648E+03  0.41800000000E+01 0.  1.
         -5    1    4    4    0  501 -0.16091488705E+02  0.77304428595E+02 -0.18305239535E+03  0.19940050785E+03  0.41800000000E+01 0.  1.
</event>
<event>
11    1  0.8864208E-009  0.1387068E+03  0.7561462E-02  0.1109011E+00
         22   -1    0    0    0    0  0.00000000000E+00  0.00000000000E+00  0.92403555098E+02  0.92403555098E+02  0.00000000000E+00 0.  1.
         22   -1    0    0    0    0 -0.00000000000E+00 -0.00000000000E+00 -0.30337315541E+04  0.30337315541E+04  0.00000000000E+00 0.  1.
         24    2    1    2    0    0  0.35906676208E+02  0.46545779397E+02 -0.27200230577E+04  0.27217419439E+04  0.76798279813E+02 0.  0.
         25    2    1    2    0    0 -0.88803251290E+02 -0.44840607856E+02 -0.25799692993E+03  0.30349077095E+03  0.12509010609E+03 0.  0.
        -24    2    1    2    0    0  0.52896575081E+02 -0.17051715408E+01  0.36691988604E+02  0.10090239438E+03  0.77679057015E+02 0.  0.
        -11    1    3    3    0    0  0.16605872818E+02 -0.11666326412E+02 -0.15340678725E+04  0.15342021039E+04  0.00000000000E+00 0.  1.
         12    1    3    3    0    0  0.19300803390E+02  0.58212105809E+02 -0.11859551852E+04  0.11875398400E+04  0.00000000000E+00 0. -1.
         11    1    5    5    0    0  0.17360067267E+02 -0.26410010526E+02 -0.13725253755E+02  0.34456395374E+02  0.00000000000E+00 0. -1.
        -12    1    5    5    0    0  0.35536507814E+02  0.24704838986E+02  0.50417242359E+02  0.66445999007E+02  0.00000000000E+00 0.  1.
          5    1    4    4  501    0 -0.12691699822E+02 -0.69765247823E+02 -0.17100941520E+03  0.18517548849E+03  0.41800000000E+01 0. -1.
         -5    1    4    4    0  501 -0.76111551468E+02  0.24924639967E+02 -0.86987514731E+02  0.11831528246E+03  0.41800000000E+01 0. -1.
</event>
<event>
11    1  0.8864208E-009  0.2456651E+03  0.7561462E-02  0.1026234E+00
         22   -1    0    0    0    0  0.00000000000E+00  0.00000000000E+00  0.61220115004E+03  0.61220115004E+03  0.00000000000E+00 0. -1.
         22   -1    0    0    0    0 -0.00000000000E+00 -0.00000000000E+00 -0.59380514439E+03  0.59380514439E+03  0.00000000000E+00 0.  1.
        -24    2    1    2    0    0 -0.50492237724E+02  0.30537195352E+02 -0.45421661286E+03  0.46500259517E+03  0.80204088121E+02 0.  0.
         25    2    1    2    0    0 -0.14866921692E+03  0.71372070712E+02 -0.53136856024E+01  0.20705318740E+03  0.12508508553E+03 0.  0.
         24    2    1    2    0    0  0.19916145464E+03 -0.10190926606E+03  0.47792630411E+03  0.53395051186E+03  0.81478913998E+02 0.  0.
        -13    1    5    5    0    0  0.83180942917E+02 -0.74981698329E+02  0.16764720585E+03  0.20161078834E+03  0.00000000000E+00 0.  1.
         14    1    5    5    0    0  0.11598051172E+03 -0.26927567735E+02  0.31027909827E+03  0.33233972351E+03  0.00000000000E+00 0. -1.
         11    1    3    3    0    0  0.14690010671E+02 -0.14055499808E+02 -0.79999453379E+02  0.82542510438E+02  0.00000000000E+00 0. -1.
        -12    1    3    3    0    0 -0.65182248395E+02  0.44592695161E+02 -0.37421715948E+03  0.38246008474E+03  0.00000000000E+00 0.  1.
          5    1    4    4  501    0 -0.10350268542E+03  0.99156363822E+02  0.25403703764E+02  0.14562833151E+03  0.41800000000E+01 0.  1.
         -5    1    4    4    0  501 -0.45166531499E+02 -0.27784293110E+02 -0.30717389367E+02  0.61424855887E+02  0.41800000000E+01 0.  1.
</event>
<event>
11    1  0.8864208E-009  0.1415363E+03  0.7561462E-02  0.1105855E+00
         22   -1    0    0    0    0  0.00000000000E+00  0.00000000000E+00  0.36549776079E+04  0.36549776079E+04  0.00000000000E+00 0. -1.
         22   -1    0    0    0    0 -0.00000000000E+00 -0.00000000000E+00 -0.19871440372E+03  0.19871440372E+03  0.00000000000E+00 0.  1.
        -24    2    1    2    0    0 -0.76089670309E+01  0.65509056110E+02 -0.16834642603E+03  0.19790486830E+03  0.80476611059E+02 0.  0.
         25    2    1    2    0    0  0.56277596944E+02 -0.66382205978E+02  0.37441485503E+03  0.40423880799E+03  0.12509502401E+03 0.  0.
         24    2    1    2    0    0 -0.48668629913E+02  0.87314986853E+00  0.32501947752E+04  0.32515483353E+04  0.80194154678E+02 0.  0.
        -13    1    5    5    0    0 -0.14238319840E+02 -0.97517570356E+01  0.12941977296E+03  0.13056532522E+03  0.00000000000E+00 0.  1.
         14    1    5    5    0    0 -0.34430310073E+02  0.10624906904E+02  0.31207750022E+04  0.31209830101E+04  0.00000000000E+00 0. -1.
         11    1    3    3    0    0  0.19360982929E+00 -0.19005044132E+02 -0.26626291878E+02  0.32713737273E+02  0.00000000000E+00 0. -1.
        -12    1    3    3    0    0 -0.78025768602E+01  0.84514100242E+02 -0.14172013415E+03  0.16519113103E+03  0.00000000000E+00 0.  1.
          5    1    4    4  501    0  0.66452831473E+02  0.82841391953E+01  0.24885483371E+03  0.25774174368E+03  0.41800000000E+01 0. -1.
         -5    1    4    4    0  501 -0.10175234529E+02 -0.74666345174E+02  0.12556002131E+03  0.14649706431E+03  0.41800000000E+01 0. -1.
</event>
<event>
11    1  0.8864208E-009  0.1385881E+03  0.7561462E-02  0.1109145E+00
         22   -1    0    0    0    0  0.00000000000E+00  0.00000000000E+00  0.56117696350E+03  0.56117696350E+03  0.00000000000E+00 0. -1.
         22   -1    0    0    0    0 -0.00000000000E+00 -0.00000000000E+00 -0.16362487433E+04  0.16362487433E+04  0.00000000000E+00 0.  1.
        -24    2    1    2    0    0  0.12862934504E+02 -0.58391362745E+02 -0.16003279135E+04  0.16032539659E+04  0.76150129198E+02 0.  0.
         25    2    1    2    0    0 -0.13744781892E+02  0.43811913941E+02  0.11604455792E+03  0.17670029932E+03  0.12509297951E+03 0.  0.
         24    2    1    2    0    0  0.88184738798E+00  0.14579448803E+02  0.40921157575E+03  0.41747144159E+03  0.81332360296E+02 0.  0.
        -13    1    5    5    0    0 -0.72605768866E+01  0.11807699147E+02  0.76780947520E+01  0.15845847244E+02  0.00000000000E+00 0.  1.
         14    1    5    5    0    0  0.81424242746E+01  0.27717496562E+01  0.40153348100E+03  0.40162559435E+03  0.00000000000E+00 0. -1.
         11    1    3    3    0    0  0.35511895255E+02 -0.14849122893E+01 -0.60626721551E+03  0.60730818888E+03  0.00000000000E+00 0. -1.
        -12    1    3    3    0    0 -0.22648960751E+02 -0.56906450455E+02 -0.99406069794E+03  0.99594577700E+03  0.00000000000E+00 0.  1.
          5    1    4    4  501    0 -0.53703196304E+02  0.47587860808E+02  0.23301449242E+02  0.75558372973E+02  0.41800000000E+01 0. -1.
         -5    1    4    4    0  501  0.39958414412E+02 -0.37759468668E+01  0.92743108679E+02  0.10114192634E+03  0.41800000000E+01 0. -1.
</event>
<event>
11    1  0.8864208E-009  0.1798872E+03  0.7561462E-02  0.1069734E+00
         22   -1    0    0    0    0  0.00000000000E+00  0.00000000000E+00  0.32455289992E+03  0.32455289992E+03  0.00000000000E+00 0.  1.
         22   -1    0    0    0    0 -0.00000000000E+00 -0.00000000000E+00 -0.60609532697E+03  0.60609532697E+03  0.00000000000E+00 0. -1.
        -24    2    1    2    0    0 -0.13090641774E+03 -0.71980424783E+02 -0.18953027122E+03  0.26433309541E+03  0.10785448466E+03 0.  0.
         25    2    1    2    0    0  0.77716836413E+02 -0.64848393498E+02 -0.33648634962E+03  0.37298293107E+03  0.12509189656E+03 0.  0.
         24    2    1    2    0    0  0.53189581328E+02  0.13682881828E+03  0.24447419379E+03  0.29333220041E+03  0.68737844703E+02 0.  0.
        -11    1    5    5    0    0  0.68208500065E+02  0.11226964442E+03  0.18111583110E+03  0.22374051223E+03  0.00000000000E+00 0.  1.
         12    1    5    5    0    0 -0.15018918737E+02  0.24559173865E+02  0.63358362686E+02  0.69591688176E+02  0.00000000000E+00 0. -1.
         11    1    3    3    0    0 -0.82353038530E+01 -0.84653682672E+01  0.14022193281E+02  0.18333155589E+02  0.00000000000E+00 0. -1.
        -12    1    3    3    0    0 -0.12267111389E+03 -0.63515056516E+02 -0.20355246450E+03  0.24599993982E+03  0.00000000000E+00 0.  1.
          5    1    4    4  501    0  0.21697616996E+01 -0.42239410514E+02 -0.20329367599E+02  0.47112962690E+02  0.41800000000E+01 0.  1.
         -5    1    4    4    0  501  0.75547074714E+02 -0.22608982984E+02 -0.31615698202E+03  0.32586996838E+03  0.41800000000E+01 0.  1.
</event>
<event>
11    1  0.8864208E-009  0.2086836E+03  0.7561462E-02  0.1048547E+00
         22   -1    0    0    0    0  0.00000000000E+00  0.00000000000E+00  0.17943877426E+04  0.17943877426E+04  0.00000000000E+00 0.  1.
         22   -1    0    0    0    0 -0.00000000000E+00 -0.00000000000E+00 -0.49044381053E+03  0.49044381053E+03  0.00000000000E+00 0. -1.
         24    2    1    2    0    0 -0.11065699747E+03  0.12530998908E+03 -0.45413320582E+03  0.49088299886E+03  0.82350382457E+02 0.  0.
         25    2    1    2    0    0  0.93423071833E+02 -0.13389464627E+03  0.62651299668E+03  0.65940987071E+03  0.12508875223E+03 0.  0.
        -24    2    1    2    0    0  0.17233925642E+02  0.85846571918E+01  0.11315641412E+04  0.11345386836E+04  0.79811742800E+02 0.  0.
        -13    1    3    3    0    0 -0.16124703116E+02 -0.57817667546E+01 -0.14364546253E+02  0.22355649542E+02  0.00000000000E+00 0.  1.
         14    1    3    3    0    0 -0.94532294359E+02  0.13109175583E+03 -0.43976865957E+03  0.46852734932E+03  0.00000000000E+00 0. -1.
         13    1    5    5    0    0  0.41999011795E+02 -0.89606807148E+01  0.39068436330E+03  0.39303750778E+03  0.00000000000E+00 0. -1.
        -14    1    5    5    0    0 -0.24765086154E+02  0.17545337907E+02  0.74087977791E+03  0.74150117579E+03  0.00000000000E+00 0.  1.
          5    1    4    4  501    0  0.79140649486E+02 -0.22769632286E+02  0.37626447405E+03  0.38519362065E+03  0.41800000000E+01 0.  1.
         -5    1    4    4    0  501  0.14282422347E+02 -0.11112501399E+03  0.25024852262E+03  0.27421625006E+03  0.41800000000E+01 0.  1.
</event>
<event>
11    1  0.8864208E-009  0.3372823E+03  0.7561462E-02  0.9855408E-01
         22   -1    0    0    0    0  0.00000000000E+00  0.00000000000E+00  0.12184680188E+04  0.12184680188E+04  0.00000000000E+00 0. -1.
         22   -1    0    0    0    0 -0.00000000000E+00 -0.00000000000E+00 -0.25749631757E+03  0.25749631757E+03  0.00000000000E+00 0.  1.
        -24    2    1    2    0    0  0.47752595995E+02 -0.31042157608E+03 -0.90561298663E+02  0.33664189993E+03  0.80526732545E+02 0.  0.
         25    2    1    2    0    0 -0.58918705844E+02  0.30293489113E+03  0.66253447567E+03  0.74151229033E+03  0.12509029977E+03 0.  0.
         24    2    1    2    0    0  0.11166109849E+02  0.74866849503E+01  0.38899852422E+03  0.39781014610E+03  0.82172550367E+02 0.  0.
        -13    1    5    5    0    0  0.44002047358E+02 -0.66241318782E+01  0.16135975853E+03  0.16738288732E+03  0.00000000000E+00 0.  1.
         14    1    5    5    0    0 -0.32835937509E+02  0.14110816828E+02  0.22763876569E+03  0.23042725878E+03  0.00000000000E+00 0. -1.
         11    1    3    3    0    0  0.91146034759E+01 -0.12954500813E+02 -0.24999064192E+02  0.29594734300E+02  0.00000000000E+00 0. -1.
        -12    1    3    3    0    0  0.38637992519E+02 -0.29746707527E+03 -0.65562234471E+02  0.30704716563E+03  0.00000000000E+00 0.  1.
          5    1    4    4  501    0 -0.18213150389E+02  0.26630209675E+03  0.46189138591E+03  0.53348819139E+03  0.41800000000E+01 0. -1.
         -5    1    4    4    0  501 -0.40705555454E+02  0.36632794380E+02  0.20064308976E+03  0.20802409894E+03  0.41800000000E+01 0. -1.
</event>
<event>
11    1  0.8864208E-009  0.1751523E+03  0.7561462E-02  0.1073633E+00
         22   -1    0    0    0    0  0.00000000000E+00  0.00000000000E+00  0.73195509654E+03  0.73195509654E+03  0.00000000000E+00 0.  1.
         22   -1    0    0    0    0 -0.00000000000E+00 -0.00000000000E+00 -0.72128541721E+03  0.72128541721E+03  0.00000000000E+00 0. -1.
        -24    2    1    2    0    0  0.10471065160E+03  0.63585079677E+02 -0.66919851070E+03  0.68491051896E+03  0.79173160484E+02 0.  0.
         25    2    1    2    0    0 -0.16569407104E+03  0.29879466522E+02  0.31389151514E+03  0.37751863056E+03  0.12508047589E+03 0.  0.
         24    2    1    2    0    0  0.60983419440E+02 -0.93464546199E+02  0.36597667490E+03  0.39081136422E+03  0.79624098070E+02 0.  0.
        -13    1    5    5    0    0  0.51821630450E+02 -0.92314192379E+02  0.36657767580E+03  0.38155810028E+03  0.00000000000E+00 0.  1.
         14    1    5    5    0    0  0.91617889900E+01 -0.11503538198E+01 -0.60100090388E+00  0.92532639373E+01  0.00000000000E+00 0. -1.
         13    1    3    3    0    0  0.67871972570E+02  0.98404051860E+01 -0.47844900701E+03  0.48333931202E+03  0.00000000000E+00 0. -1.
        -14    1    3    3    0    0  0.36838679032E+02  0.53744674491E+02 -0.19074950369E+03  0.20157120694E+03  0.00000000000E+00 0.  1.
          5    1    4    4  501    0 -0.14169313461E+03 -0.74689799174E+00  0.30649785565E+03  0.33769203450E+03  0.41800000000E+01 0. -1.
         -5    1    4    4    0  501 -0.24000936437E+02  0.30626364514E+02  0.73936594942E+01  0.39826596062E+02  0.41800000000E+01 0. -1.
</event>
<event>
11    1  0.8864208E-009  0.1349105E+03  0.7561462E-02  0.1113379E+00
         22   -1    0    0    0    0  0.00000000000E+00  0.00000000000E+00  0.29466717362E+03  0.29466717362E+03  0.00000000000E+00 0. -1.
         22   -1    0    0    0    0 -0.00000000000E+00 -0.00000000000E+00 -0.43261683774E+03  0.43261683774E+03  0.00000000000E+00 0. -1.
        -24    2    1    2    0    0  0.11420139227E+02  0.19051479617E+02 -0.33569202127E+03  0.34562183851E+03  0.79195603784E+02 0.  0.
         25    2    1    2    0    0 -0.46598785022E+02 -0.52011139557E+02 -0.19340577850E+02  0.14456011901E+03  0.12508782776E+03 0.  0.
         24    2    1    2    0    0  0.35178645795E+02  0.32959659940E+02  0.21708293499E+03  0.23710205384E+03  0.82270936344E+02 0.  0.
        -13    1    5    5    0    0 -0.98946640646E+01 -0.11483254869E+02  0.52939362348E+01  0.16056004490E+02  0.00000000000E+00 0.  1.
         14    1    5    5    0    0  0.45073309860E+02  0.44442914809E+02  0.21178899876E+03  0.22104604935E+03  0.00000000000E+00 0. -1.
         11    1    3    3    0    0  0.32037017217E+02  0.41039249698E+02 -0.20694792830E+03  0.21339642808E+03  0.00000000000E+00 0. -1.
        -12    1    3    3    0    0 -0.20616877990E+02 -0.21987770080E+02 -0.12874409296E+03  0.13222541043E+03  0.00000000000E+00 0.  1.
          5    1    4    4  501    0  0.38825434775E+02 -0.12311320805E+01  0.10967751198E+02  0.40579478040E+02  0.41800000000E+01 0. -1.
         -5    1    4    4    0  501 -0.85424219797E+02 -0.50780007477E+02 -0.30308329048E+02  0.10398064097E+03  0.41800000000E+01 0. -1.
</event>
<event>
11    1  0.8864208E-009  0.1902759E+03  0.7561462E-02  0.1061621E+00
         22   -1    0    0    0    0  0.00000000000E+00  0.00000000000E+00  0.40261885846E+03  0.40261885846E+03  0.00000000000E+00 0. -1.
         22   -1    0    0    0    0 -0.00000000000E+00 -0.00000000000E+00 -0.18116320481E+04  0.18116320481E+04  0.00000000000E+00 0. -1.
         24    2    1    2    0    0 -0.82859836078E+02 -0.93701699577E+02 -0.16698650883E+04  0.16767194794E+04  0.85399289722E+02 0.  0.
         25    2    1    2    0    0 -0.77241165593E+01  0.19915641459E+03  0.48877251899E+01  0.23536329075E+03  0.12509616032E+03 0.  0.
        -24    2    1    2    0    0  0.90583952637E+02 -0.10545471501E+03  0.25596417348E+03  0.30216813636E+03  0.80385167361E+02 0.  0.
        -11    1    3    3    0    0  0.10213695462E+02  0.83626543746E+01 -0.12752098854E+03  0.12820240279E+03  0.00000000000E+00 0.  1.
         12    1    3    3    0    0 -0.93073531540E+02 -0.10206435395E+03 -0.15423440998E+04  0.15485170767E+04  0.00000000000E+00 0. -1.
         13    1    5    5    0    0  0.89881031626E+02 -0.90862053078E+02  0.25750498351E+03  0.28747752794E+03  0.00000000000E+00 0. -1.
        -14    1    5    5    0    0  0.70292101093E+00 -0.14592661934E+02 -0.15408100300E+01  0.14690608423E+02  0.00000000000E+00 0.  1.
          5    1    4    4  501    0 -0.29777631762E+01  0.72133094667E+02  0.62650630503E+02  0.95679801014E+02  0.41800000000E+01 0. -1.
         -5    1    4    4    0  501 -0.47463533831E+01  0.12702331992E+03 -0.57762905313E+02  0.13968348974E+03  0.41800000000E+01 0. -1.
</event>
<event>
11    1  0.8864208E-009  0.1344598E+03  0.7561462E-02  0.1113908E+00
         22   -1    0    0    0    0  0.00000000000E+00  0.00000000000E+00  0.18682374642E+03  0.18682374642E+03  0.00000000000E+00 0.  1.
         22   -1    0    0    0    0 -0.00000000000E+00 -0.00000000000E+00 -0.13503353576E+04  0.13503353576E+04  0.00000000000E+00 0. -1.
         24    2    1    2    0    0  0.34392631427E+02 -0.29674399083E+02 -0.11127701767E+04  0.11176974218E+04  0.94480884693E+02 0.  0.
         25    2    1    2    0    0 -0.65279554422E+02  0.66022898981E+02 -0.19365025696E+03  0.24853308234E+03  0.12509127700E+03 0.  0.
        -24    2    1    2    0    0  0.30886922995E+02 -0.36348499898E+02  0.14290882247E+03  0.17092859985E+03  0.80736851876E+02 0.  0.
        -11    1    3    3    0    0 -0.13418480322E+01  0.12154987298E+02 -0.19325445709E+02  0.22869567644E+02  0.00000000000E+00 0.  1.
         12    1    3    3    0    0  0.35734479459E+02 -0.41829386381E+02 -0.10934447310E+04  0.10948278542E+04  0.00000000000E+00 0. -1.
         11    1    5    5    0    0 -0.15938361749E+02 -0.41492297819E+02  0.51000394188E+02  0.67651181519E+02  0.00000000000E+00 0. -1.
        -12    1    5    5    0    0  0.46825284744E+02  0.51437979215E+01  0.91908428279E+02  0.10327741833E+03  0.00000000000E+00 0.  1.
          5    1    4    4  501    0 -0.22550856466E+02  0.46950838040E+02 -0.19465261109E+03  0.20154412352E+03  0.41800000000E+01 0. -1.
         -5    1    4    4    0  501 -0.42728697956E+02  0.19072060941E+02  0.10023541295E+01  0.46988958824E+02  0.41800000000E+01 0. -1.
</event>
<event>
11    1  0.8864208E-009  0.1508420E+03  0.7561462E-02  0.1096022E+00
         22   -1    0    0    0    0  0.00000000000E+00  0.00000000000E+00  0.14255385021E+04  0.14255385021E+04  0.00000000000E+00 0.  1.
         22   -1    0    0    0    0 -0.00000000000E+00 -0.00000000000E+00 -0.37339798062E+03  0.37339798062E+03  0.00000000000E+00 0. -1.
        -24    2    1    2    0    0 -0.23905418756E+01 -0.84355937567E+02 -0.34609914561E+03  0.36524132758E+03  0.80591376003E+02 0.  0.
         25    2    1    2    0    0 -0.46809417854E+02  0.81116096476E+02  0.37260331064E+03  0.40404608999E+03  0.12509625503E+03 0.  0.
         24    2    1    2    0    0  0.49199959730E+02  0.32398410911E+01  0.10256363564E+04  0.10296490651E+04  0.76263550243E+02 0.  0.
        -13    1    5    5    0    0  0.49992531402E+02  0.33403598172E+02  0.73267389997E+03  0.73513678813E+03  0.00000000000E+00 0.  1.
         14    1    5    5    0    0 -0.79257167207E+00 -0.30163757081E+02  0.29296245644E+03  0.29451227698E+03  0.00000000000E+00 0. -1.
         11    1    3    3    0    0 -0.69296979689E+00 -0.90255051363E+02 -0.34742807674E+03  0.35896061484E+03  0.00000000000E+00 0. -1.
        -12    1    3    3    0    0 -0.16975720788E+01  0.58991137961E+01  0.13289311253E+01  0.62807127365E+01  0.00000000000E+00 0.  1.
          5    1    4    4  501    0 -0.28943922205E+01  0.10216309744E+03  0.19978132115E+03  0.22444537123E+03  0.41800000000E+01 0.  1.
         -5    1    4    4    0  501 -0.43915025634E+02 -0.21047000966E+02  0.17282198950E+03  0.17960071876E+03  0.41800000000E+01 0.  1.
</event>
<event>
11    1  0.8864208E-009  0.1296215E+03  0.7561462E-02  0.1119735E+00
         22   -1    0    0    0    0  0.00000000000E+00  0.00000000000E+00  0.20764478407E+03  0.20764478407E+03  0.00000000000E+00 0.  1.
         22   -1    0    0    0    0 -0.00000000000E+00 -0.00000000000E+00 -0.86017903733E+03  0.86017903733E+03  0.00000000000E+00 0. -1.
         24    2    1    2    0    0  0.50163638576E+02 -0.22364317391E+02 -0.71048090693E+03  0.71708626650E+03  0.80081465751E+02 0.  0.
         25    2    1    2    0    0 -0.16285986426E+02 -0.84571263001E-01 -0.97339480131E+02  0.15933461366E+03  0.12508918503E+03 0.  0.
        -24    2    1    2    0    0 -0.33877652150E+02  0.22448888654E+02  0.15528613380E+03  0.19140294124E+03  0.10425763591E+03 0.  0.
        -13    1    3    3    0    0  0.63421666280E+02  0.29510831327E+01 -0.36996223666E+03  0.37537058116E+03  0.00000000000E+00 0.  1.
         14    1    3    3    0    0 -0.13258027705E+02 -0.25315400524E+02 -0.34051867027E+03  0.34171568533E+03  0.00000000000E+00 0. -1.
         13    1    5    5    0    0 -0.17216751894E+02  0.33146114685E+00 -0.12543601886E+02  0.21304186456E+02  0.00000000000E+00 0. -1.
        -14    1    5    5    0    0 -0.16660900256E+02  0.22117427507E+02  0.16782973569E+03  0.17009875478E+03  0.00000000000E+00 0.  1.
          5    1    4    4  501    0  0.12345705565E+02 -0.52380755861E+02 -0.81063779043E+02  0.97390803997E+02  0.41800000000E+01 0.  1.
         -5    1    4    4    0  501 -0.28631691991E+02  0.52296184598E+02 -0.16275701088E+02  0.61943809664E+02  0.41800000000E+01 0.  1.
</event>
<event>
11    1  0.8864208E-009  0.1373036E+03  0.7561462E-02  0.1110607E+00
         22   -1    0    0    0    0  0.00000000000E+00  0.00000000000E+00  0.23105322589E+03  0.23105322589E+03  0.00000000000E+00 0. -1.
         22   -1    0    0    0    0 -0.00000000000E+00 -0.00000000000E+00 -0.12662122843E+04  0.12662122843E+04  0.00000000000E+00 0. -1.
        -24    2    1    2    0    0 -0.82094780886E+01 -0.54052945371E+02 -0.10387285438E+04  0.10432556139E+04  0.80225754089E+02 0.  0.
         25    2    1    2    0    0  0.47107770903E+02  0.71769692524E+02 -0.18708793628E+03  0.24088553732E+03  0.12511560792E+03 0.  0.
         24    2    1    2    0    0 -0.38898292814E+02 -0.17716747153E+02  0.19065742176E+03  0.21312435897E+03  0.85116271079E+02 0.  0.
        -13    1    5    5    0    0 -0.76535284045E-01 -0.13786072993E+02 -0.41894417871E+01  0.14408785123E+02  0.00000000000E+00 0.  1.
         14    1    5    5    0    0 -0.38821757530E+02 -0.39306741598E+01  0.19484686355E+03  0.19871557385E+03  0.00000000000E+00 0. -1.
         13    1    3    3    0    0  0.89493217531E+01 -0.28401023845E+02 -0.92307587804E+03  0.92355605414E+03  0.00000000000E+00 0. -1.
        -14    1    3    3    0    0 -0.17158799842E+02 -0.25651921526E+02 -0.11565266580E+03  0.11969955972E+03  0.00000000000E+00 0.  1.
          5    1    4    4  501    0  0.14410052520E+02  0.10393117395E+03 -0.14017448319E+03  0.17514478774E+03  0.41800000000E+01 0.  1.
         -5    1    4    4    0  501  0.32697718383E+02 -0.32161481430E+02 -0.46913453085E+02  0.65740749582E+02  0.41800000000E+01 0.  1.
</event>
<event>
11    1  0.8864208E-009  0.1553462E+03  0.7561462E-02  0.1091538E+00
         22   -1    0    0    0    0  0.00000000000E+00  0.00000000000E+00  0.30899493319E+04  0.30899493319E+04  0.00000000000E+00 0.  1.
         22   -1    0    0    0    0 -0.00000000000E+00 -0.00000000000E+00 -0.19542600255E+04  0.19542600255E+04  0.00000000000E+00 0. -1.
        -24    2    1    2    0    0 -0.71958739377E+01  0.14546016701E+01 -0.17267544021E+04  0.17287826423E+04  0.83395221066E+02 0.  0.
         25    2    1    2    0    0 -0.61965539426E+02  0.59447704018E+02 -0.19973417905E+03  0.25082628763E+03  0.12508527770E+03 0.  0.
         24    2    1    2    0    0  0.69161413363E+02 -0.60902305688E+02  0.30621778875E+04  0.30646004274E+04  0.79686717465E+02 0.  0.
        -11    1    5    5    0    0  0.70244878725E+02 -0.17440781345E+02  0.23370117641E+04  0.23381322695E+04  0.00000000000E+00 0.  1.
         12    1    5    5    0    0 -0.10834653618E+01 -0.43461524342E+02  0.72516612339E+03  0.72646815795E+03  0.00000000000E+00 0. -1.
         11    1    3    3    0    0  0.17804643780E+02  0.12269830387E+02 -0.15298731710E+04  0.15300259715E+04  0.00000000000E+00 0. -1.
        -12    1    3    3    0    0 -0.25000517717E+02 -0.10815228717E+02 -0.19688123105E+03  0.19875667083E+03  0.00000000000E+00 0.  1.
          5    1    4    4  501    0  0.13230932776E+01  0.67461017586E+02 -0.16445382028E+03  0.17780683585E+03  0.41800000000E+01 0.  1.
         -5    1    4    4    0  501 -0.63288632703E+02 -0.80133135681E+01 -0.35280358768E+02  0.73019451782E+02  0.41800000000E+01 0.  1.
</event>
<event>
11    1  0.8864208E-009  0.1926255E+03  0.7561462E-02  0.1059865E+00
         22   -1    0    0    0    0  0.00000000000E+00  0.00000000000E+00  0.20550711471E+03  0.20550711471E+03  0.00000000000E+00 0. -1.
         22   -1    0    0    0    0 -0.00000000000E+00 -0.00000000000E+00 -0.19356391414E+04  0.19356391414E+04  0.00000000000E+00 0. -1.
         24    2    1    2    0    0 -0.93664559027E+02 -0.12096135357E+03 -0.17235773856E+04  0.17322901529E+04  0.81886940366E+02 0.  0.
         25    2    1    2    0    0  0.88064064217E+02  0.51713687653E+02 -0.15623397193E+03  0.22469273206E+03  0.12509270545E+03 0.  0.
        -24    2    1    2    0    0  0.56004948104E+01  0.69247665914E+02  0.14967933092E+03  0.18416337107E+03  0.81765765229E+02 0.  0.
        -11    1    3    3    0    0 -0.20493014902E+02 -0.74069365334E+02 -0.52870429336E+03  0.53426067079E+03  0.00000000000E+00 0.  1.
         12    1    3    3    0    0 -0.73171544125E+02 -0.46891988233E+02 -0.11948730923E+04  0.11980294822E+04  0.00000000000E+00 0. -1.
         13    1    5    5    0    0 -0.22160892711E+02 -0.92027691983E+01  0.36560946459E+02  0.43732127008E+02  0.00000000000E+00 0. -1.
        -14    1    5    5    0    0  0.27761387521E+02  0.78450435112E+02  0.11311838446E+03  0.14043124406E+03  0.00000000000E+00 0.  1.
          5    1    4    4  501    0  0.19316868224E+02  0.41501722377E+02  0.76791136233E+01  0.46604458416E+02  0.41800000000E+01 0. -1.
         -5    1    4    4    0  501  0.68747195993E+02  0.10211965276E+02 -0.16391308556E+03  0.17808827364E+03  0.41800000000E+01 0. -1.
</event>
<event>
11    1  0.8864208E-009  0.1522124E+03  0.7561462E-02  0.1094639E+00
         22   -1    0    0    0    0  0.00000000000E+00  0.00000000000E+00  0.15039081601E+04  0.15039081601E+04  0.00000000000E+00 0.  1.
         22   -1    0    0    0    0 -0.00000000000E+00 -0.00000000000E+00 -0.34290174946E+03  0.34290174946E+03  0.00000000000E+00 0. -1.
         24    2    1    2    0    0  0.30308452256E+02  0.21928173910E+02 -0.26838360559E+03  0.28501592083E+03  0.88345165595E+02 0.  0.
         25    2    1    2    0    0 -0.99736199429E+02  0.29330609725E+02  0.40068916643E+02  0.16750683555E+03  0.12508168424E+03 0.  0.
        -24    2    1    2    0    0  0.69427747173E+02 -0.51258783635E+02  0.13893210996E+04  0.13942871532E+04  0.79849062515E+02 0.  0.
        -11    1    3    3    0    0  0.49071183011E+02  0.73034397736E+00 -0.75385435985E+02  0.89952645114E+02  0.00000000000E+00 0.  1.
         12    1    3    3    0    0 -0.18762730755E+02  0.21197829933E+02 -0.19299816961E+03  0.19506327571E+03  0.00000000000E+00 0. -1.
         11    1    5    5    0    0  0.22412467925E+02 -0.23843221127E+02  0.13969800176E+03  0.14347943967E+03  0.00000000000E+00 0. -1.
        -12    1    5    5    0    0  0.47015279248E+02 -0.27415562508E+02  0.12496230979E+04  0.12508077135E+04  0.00000000000E+00 0.  1.
          5    1    4    4  501    0 -0.34464270663E+02  0.31945569889E+02  0.78510932399E+02  0.91595547348E+02  0.41800000000E+01 0. -1.
         -5    1    4    4    0  501 -0.65271928765E+02 -0.26149601639E+01 -0.38442015756E+02  0.75911288204E+02  0.41800000000E+01 0. -1.
</event>
<event>
11    1  0.8864208E-009  0.1643286E+03  0.7561462E-02  0.1083075E+00
         22   -1    0    0    0    0  0.00000000000E+00  0.00000000000E+00  0.96225271071E+03  0.96225271071E+03  0.00000000000E+00 0.  1.
         22   -1    0    0    0    0 -0.00000000000E+00 -0.00000000000E+00 -0.38383955304E+03  0.38383955304E+03  0.00000000000E+00 0. -1.
        -24    2    1    2    0    0  0.55808592772E+02 -0.98865636643E+02 -0.32040833750E+03  0.34951664326E+03  0.81310319394E+02 0.  0.
         25    2    1    2    0    0  0.32086990247E+02  0.70888464384E+02  0.78234256407E+02  0.16680335901E+03  0.12509201563E+03 0.  0.
         24    2    1    2    0    0 -0.87895583019E+02  0.27977172259E+02  0.82058723877E+03  0.82977226148E+03  0.81548965754E+02 0.  0.
        -13    1    5    5    0    0 -0.10230382441E+03  0.29012072187E+02  0.65716801931E+03  0.66571583910E+03  0.00000000000E+00 0.  1.
         14    1    5    5    0    0  0.14408241388E+02 -0.10348999282E+01  0.16341921946E+03  0.16405642238E+03  0.00000000000E+00 0. -1.
         11    1    3    3    0    0  0.26503384990E+02 -0.93990764756E+02 -0.16869723341E+03  0.19492421562E+03  0.00000000000E+00 0. -1.
        -12    1    3    3    0    0  0.29305207782E+02 -0.48748718873E+01 -0.15171110409E+03  0.15459242764E+03  0.00000000000E+00 0.  1.
          5    1    4    4  501    0 -0.21073859810E+02 -0.23563141200E+02  0.41395575091E+02  0.52253183899E+02  0.41800000000E+01 0. -1.
         -5    1    4    4    0  501  0.53160850057E+02  0.94451605584E+02  0.36838681315E+02  0.11455017511E+03  0.41800000000E+01 0. -1.
</event>
<event>
11    1  0.8864208E-009  0.1803621E+03  0.7561462E-02  0.1069350E+00
         22   -1    0    0    0    0  0.00000000000E+00  0.00000000000E+00  0.27573008024E+03  0.27573008024E+03  0.00000000000E+00 0. -1.
         22   -1    0    0    0    0 -0.00000000000E+00 -0.00000000000E+00 -0.84749439977E+03  0.84749439977E+03  0.00000000000E+00 0. -1.
        -24    2    1    2    0    0 -0.11335050210E+03  0.93197221742E+02 -0.51565600683E+03  0.54065673177E+03  0.69817804054E+02 0.  0.
         25    2    1    2    0    0  0.54806363880E+02 -0.89637640688E+02 -0.28814009697E+03  0.33122916090E+03  0.12509755153E+03 0.  0.
         24    2    1    2    0    0  0.58544138221E+02 -0.35595810545E+01  0.23203178426E+03  0.25133858734E+03  0.76760991649E+02 0.  0.
        -13    1    5    5    0    0  0.75645269064E+02 -0.10637962556E+02  0.20312703162E+03  0.21701604538E+03  0.00000000000E+00 0.  1.
         14    1    5    5    0    0 -0.17101130843E+02  0.70783815019E+01  0.28904752643E+02  0.34322541953E+02  0.00000000000E+00 0. -1.
         13    1    3    3    0    0 -0.65884331217E+02  0.41568626846E+02 -0.38045068195E+03  0.38834445693E+03  0.00000000000E+00 0. -1.
        -14    1    3    3    0    0 -0.47466170883E+02  0.51628594896E+02 -0.13520532488E+03  0.15231227484E+03  0.00000000000E+00 0.  1.
          5    1    4    4  501    0  0.73100590620E+02 -0.17305686158E+01 -0.12054707001E+03  0.14105232967E+03  0.41800000000E+01 0. -1.
         -5    1    4    4    0  501 -0.18294226740E+02 -0.87907072072E+02 -0.16759302695E+03  0.19017683123E+03  0.41800000000E+01 0. -1.
</event>
<event>
11    1  0.8864208E-009  0.1940111E+03  0.7561462E-02  0.1058841E+00
         22   -1    0    0    0    0  0.00000000000E+00  0.00000000000E+00  0.31256312044E+03  0.31256312044E+03  0.00000000000E+00 0.  1.
         22   -1    0    0    0    0 -0.00000000000E+00 -0.00000000000E+00 -0.96004495985E+03  0.96004495985E+03  0.00000000000E+00 0.  1.
        -24    2    1    2    0    0  0.12217810867E+02 -0.12566937552E+03 -0.61443865965E+03  0.63227105348E+03  0.79307955217E+02 0.  0.
         25    2    1    2    0    0  0.34303242307E+02  0.25667837017E+03 -0.24276316946E+03  0.37635332245E+03  0.12508944290E+03 0.  0.
         24    2    1    2    0    0 -0.46521053174E+02 -0.13100899465E+03  0.20971998970E+03  0.26398370435E+03  0.79858355965E+02 0.  0.
        -11    1    5    5    0    0 -0.41021795003E+02 -0.10240076186E+03  0.20720988479E+03  0.23474377531E+03  0.00000000000E+00 0.  1.
         12    1    5    5    0    0 -0.54992581710E+01 -0.28608232785E+02  0.25101049116E+01  0.29239929038E+02  0.00000000000E+00 0. -1.
         13    1    3    3    0    0  0.12100687957E+02 -0.16285761362E+02 -0.22442455122E+02  0.30254197462E+02  0.00000000000E+00 0. -1.
        -14    1    3    3    0    0  0.11712290919E+00 -0.10938361416E+03 -0.59199620452E+03  0.60201685602E+03  0.00000000000E+00 0.  1.
          5    1    4    4  501    0  0.60323660471E+02  0.51303912768E+02 -0.83273244650E+02  0.11499104814E+03  0.41800000000E+01 0.  1.
         -5    1    4    4    0  501 -0.26020418164E+02  0.20537445740E+03 -0.15948992481E+03  0.26136227431E+03  0.41800000000E+01 0.  1.
</event>
<event>
11    1  0.8864208E-009  0.1831237E+03  0.7561462E-02  0.1067144E+00
         22   -1    0    0    0    0  0.00000000000E+00  0.00000000000E+00  0.85563294845E+03  0.85563294845E+03  0.00000000000E+00 0. -1.
         22   -1    0    0    0    0 -0.00000000000E+00 -0.00000000000E+00 -0.12028822916E+04  0.12028822916E+04  0.00000000000E+00 0. -1.
        -24    2    1    2    0    0 -0.78587949914E+01  0.21673209135E+02 -0.93315405501E+03  0.93680578365E+03  0.79354251592E+02 0.  0.
         25    2    1    2    0    0  0.11965609789E+03 -0.94132558953E+02 -0.22308463840E+03  0.29764463740E+03  0.12508818437E+03 0.  0.
         24    2    1    2    0    0 -0.11179730289E+03  0.72459349817E+02  0.80898935022E+03  0.82406481902E+03  0.82885842343E+02 0.  0.
        -13    1    5    5    0    0 -0.69831542279E+02 -0.12995456649E+01  0.29789123076E+03  0.30596947312E+03  0.00000000000E+00 0.  1.
         14    1    5    5    0    0 -0.41965760615E+02  0.73758895482E+02  0.51109811946E+03  0.51809534590E+03  0.00000000000E+00 0. -1.
         13    1    3    3    0    0 -0.23563250228E+02  0.28174290844E+02 -0.88460963675E+03  0.88537180148E+03  0.00000000000E+00 0. -1.
        -14    1    3    3    0    0  0.15704455236E+02 -0.65010817088E+01 -0.48544418266E+02  0.51433982175E+02  0.00000000000E+00 0.  1.
          5    1    4    4  501    0  0.61089047732E+02 -0.39245900908E+02 -0.20179016199E+03  0.21449674675E+03  0.41800000000E+01 0.  1.
         -5    1    4    4    0  501  0.58567050154E+02 -0.54886658044E+02 -0.21294476412E+02  0.83147890657E+02  0.41800000000E+01 0.  1.
</event>
<event>
11    1  0.8864208E-009  0.2212864E+03  0.7561462E-02  0.1040415E+00
         22   -1    0    0    0    0  0.00000000000E+00  0.00000000000E+00  0.16686843264E+04  0.16686843264E+04  0.00000000000E+00 0. -1.
         22   -1    0    0    0    0 -0.00000000000E+00 -0.00000000000E+00 -0.60504323097E+03  0.60504323097E+03  0.00000000000E+00 0. -1.
        -24    2    1    2    0    0  0.25186678111E+02  0.33713729704E+00 -0.53508919652E+03  0.54166130105E+03  0.80262285114E+02 0.  0.
         25    2    1    2    0    0 -0.18566176842E+03 -0.82471628273E+02  0.17774467832E+03  0.29748602986E+03  0.12503161828E+03 0.  0.
         24    2    1    2    0    0  0.16047509031E+03  0.82134490976E+02  0.14209856136E+04  0.14345802264E+04  0.79510897030E+02 0.  0.
        -13    1    5    5    0    0  0.18914446995E+02  0.44344414515E+02  0.26540524082E+03  0.26974826275E+03  0.00000000000E+00 0.  1.
         14    1    5    5    0    0  0.14156064331E+03  0.37790076462E+02  0.11555803728E+04  0.11648319637E+04  0.00000000000E+00 0. -1.
         13    1    3    3    0    0 -0.91657850595E+01  0.33330683249E+02 -0.17006339987E+03  0.17354107882E+03  0.00000000000E+00 0. -1.
        -14    1    3    3    0    0  0.34352463170E+02 -0.32993545952E+02 -0.36502579665E+03  0.36812022223E+03  0.00000000000E+00 0.  1.
          5    1    4    4  501    0 -0.45756536717E+02 -0.85314813760E+02  0.55751014468E+02  0.11179412379E+03  0.41800000000E+01 0.  1.
         -5    1    4    4    0  501 -0.13990523170E+03  0.28431854867E+01  0.12199366385E+03  0.18569190607E+03  0.41800000000E+01 0.  1.
</event>
<event>
11    1  0.8864208E-009  0.2098877E+03  0.7561462E-02  0.1047744E+00
         22   -1    0    0    0    0  0.00000000000E+00  0.00000000000E+00  0.13855562396E+03  0.13855562396E+03  0.00000000000E+00 0. -1.
         22   -1    0    0    0    0 -0.00000000000E+00 -0.00000000000E+00 -0.11020174346E+04  0.11020174346E+04  0.00000000000E+00 0.  1.
         24    2    1    2    0    0  0.46443026241E+02  0.11890052230E+03 -0.75722785023E+03  0.77245259837E+03  0.83634386857E+02 0.  0.
         25    2    1    2    0    0  0.13196134102E+03 -0.12489935679E+03 -0.13995006692E+03  0.26124600593E+03  0.12509919877E+03 0.  0.
        -24    2    1    2    0    0 -0.17840436726E+03  0.59988344910E+01 -0.66283893537E+02  0.20687445431E+03  0.80866439473E+02 0.  0.
        -11    1    3    3    0    0  0.13397527855E+02  0.11275598092E+03 -0.65696738554E+03  0.66670799504E+03  0.00000000000E+00 0.  1.
         12    1    3    3    0    0  0.33045498386E+02  0.61445413793E+01 -0.10026046469E+03  0.10574460333E+03  0.00000000000E+00 0. -1.
         11    1    5    5    0    0 -0.11680685303E+02  0.20931231945E+02 -0.24651370624E+02  0.34383789110E+02  0.00000000000E+00 0. -1.
        -12    1    5    5    0    0 -0.16672368196E+03 -0.14932397454E+02 -0.41632522913E+02  0.17249066520E+03  0.00000000000E+00 0.  1.
          5    1    4    4  501    0  0.13670580123E+03 -0.66028118494E+02 -0.13253851393E+03  0.20157410200E+03  0.41800000000E+01 0.  1.
         -5    1    4    4    0  501 -0.47444602141E+01 -0.58871238294E+02 -0.74115529914E+01  0.59671903931E+02  0.41800000000E+01 0.  1.
</event>
<event>
11    1  0.8864208E-009  0.1343049E+03  0.7561462E-02  0.1114090E+00
         22   -1    0    0    0    0  0.00000000000E+00  0.00000000000E+00  0.18644342699E+03  0.18644342699E+03  0.00000000000E+00 0. -1.
         22   -1    0    0    0    0 -0.00000000000E+00 -0.00000000000E+00 -0.44008521447E+03  0.44008521447E+03  0.00000000000E+00 0.  1.
        -24    2    1    2    0    0 -0.14337470670E+01 -0.22428638514E+02 -0.31621032830E+03  0.32701898968E+03  0.80295382370E+02 0.  0.
         25    2    1    2    0    0  0.41075933731E+02 -0.86715966830E+01 -0.62199505346E+02  0.14587296049E+03  0.12509081987E+03 0.  0.
         24    2    1    2    0    0 -0.39642186664E+02  0.31100235197E+02  0.12476804617E+03  0.15363669129E+03  0.74151466418E+02 0.  0.
        -13    1    5    5    0    0  0.66377912093E+01 -0.86933332907E+01 -0.35851388567E+01  0.11510323039E+02  0.00000000000E+00 0.  1.
         14    1    5    5    0    0 -0.46279977873E+02  0.39793568488E+02  0.12835318503E+03  0.14212636825E+03  0.00000000000E+00 0. -1.
         11    1    3    3    0    0 -0.39607385319E+00  0.30214512021E+02 -0.98417370216E+02  0.10295169922E+03  0.00000000000E+00 0. -1.
        -12    1    3    3    0    0 -0.10376732138E+01 -0.52643150535E+02 -0.21779295809E+03  0.22406729046E+03  0.00000000000E+00 0.  1.
          5    1    4    4  501    0 -0.18766243154E+02  0.30954535724E+02 -0.64345019571E+02  0.73946663939E+02  0.41800000000E+01 0. -1.
         -5    1    4    4    0  501  0.59842176885E+02 -0.39626132407E+02  0.21455142248E+01  0.71926296549E+02  0.41800000000E+01 0. -1.
</event>
<event>
11    1  0.8864208E-009  0.1281468E+03  0.7561462E-02  0.1121567E+00
         22   -1    0    0    0    0  0.00000000000E+00  0.00000000000E+00  0.18434276835E+04  0.18434276835E+04  0.00000000000E+00 0.  1.
         22   -1    0    0    0    0 -0.00000000000E+00 -0.00000000000E+00 -0.98456594057E+02  0.98456594057E+02  0.00000000000E+00 0. -1.
         24    2    1    2    0    0 -0.74339128447E+00 -0.18256357666E+02 -0.60242225518E+02  0.10265393603E+03  0.81085495753E+02 0.  0.
         25    2    1    2    0    0 -0.26906095421E+02  0.14052162347E+02  0.24745163376E+03  0.27893688022E+03  0.12510823657E+03 0.  0.
        -24    2    1    2    0    0  0.27649486705E+02  0.42041953188E+01  0.15577616812E+04  0.15602934613E+04  0.84333033907E+02 0.  0.
        -11    1    3    3    0    0  0.11976975735E+02  0.27128007751E+02 -0.43478002925E+02  0.52628067518E+02  0.00000000000E+00 0.  1.
         12    1    3    3    0    0 -0.12720367019E+02 -0.45384365417E+02 -0.16764222593E+02  0.50025868514E+02  0.00000000000E+00 0. -1.
         13    1    5    5    0    0 -0.27246112457E+02  0.59732509694E+01  0.28884714873E+03  0.29019080912E+03  0.00000000000E+00 0. -1.
        -14    1    5    5    0    0  0.54895599162E+02 -0.17690556506E+01  0.12689145325E+04  0.12701026522E+04  0.00000000000E+00 0.  1.
          5    1    4    4  501    0 -0.50360457206E+02  0.44123546919E+02  0.68348501766E+02  0.95770836565E+02  0.41800000000E+01 0. -1.
         -5    1    4    4    0  501  0.23454361785E+02 -0.30071384572E+02  0.17910313200E+03  0.18316604365E+03  0.41800000000E+01 0. -1.
</event>
<event>
11    1  0.8864208E-009  0.1451212E+03  0.7561462E-02  0.1101971E+00
         22   -1    0    0    0    0  0.00000000000E+00  0.00000000000E+00  0.96852829912E+03  0.96852829912E+03  0.00000000000E+00 0.  1.
         22   -1    0    0    0    0 -0.00000000000E+00 -0.00000000000E+00 -0.95888648107E+02  0.95888648107E+02  0.00000000000E+00 0.  1.
        -24    2    1    2    0    0 -0.37327471161E+02 -0.68550767789E+02 -0.40196729111E+02  0.11711367730E+03  0.77506699784E+02 0.  0.
         25    2    1    2    0    0  0.49349671986E+02  0.11852849131E+02  0.31626537561E+03  0.34387242277E+03  0.12509426517E+03 0.  0.
         24    2    1    2    0    0 -0.12022200824E+02  0.56697918658E+02  0.59657100452E+03  0.60343084715E+03  0.69804273329E+02 0.  0.
        -13    1    5    5    0    0 -0.27796135384E+02  0.36750511410E+02  0.53261288770E+03  0.53460238811E+03  0.00000000000E+00 0.  1.
         14    1    5    5    0    0  0.15773934560E+02  0.19947407249E+02  0.63958116817E+02  0.68828459043E+02  0.00000000000E+00 0. -1.
         11    1    3    3    0    0 -0.23504666479E+02 -0.16888142997E+02  0.21061946582E+02  0.35795031974E+02  0.00000000000E+00 0. -1.
        -12    1    3    3    0    0 -0.13822804682E+02 -0.51662624792E+02 -0.61258675694E+02  0.81318645325E+02  0.00000000000E+00 0.  1.
          5    1    4    4  501    0  0.97863650411E+01 -0.43610336386E+02  0.42822392978E+02  0.62039214379E+02  0.41800000000E+01 0.  1.
         -5    1    4    4    0  501  0.39563306945E+02  0.55463185517E+02  0.27344298263E+03  0.28183320839E+03  0.41800000000E+01 0.  1.
</event>
<event>
11    1  0.8864208E-009  0.1552685E+03  0.7561462E-02  0.1091614E+00
         22   -1    0    0    0    0  0.00000000000E+00  0.00000000000E+00  0.16839923356E+03  0.16839923356E+03  0.00000000000E+00 0. -1.
         22   -1    0    0    0    0 -0.00000000000E+00 -0.00000000000E+00 -0.13273603711E+04  0.13273603711E+04  0.00000000000E+00 0. -1.
        -24    2    1    2    0    0  0.17755190379E+02  0.10712778407E+02 -0.93192803085E+03  0.93555924505E+03  0.79694641744E+02 0.  0.
         25    2    1    2    0    0 -0.24786243016E+02  0.81538963433E+02 -0.35527498223E+03  0.38617449937E+03  0.12508984997E+03 0.  0.
         24    2    1    2    0    0  0.70310526373E+01 -0.92251741840E+02  0.12824187549E+03  0.17402586029E+03  0.72658116164E+02 0.  0.
        -11    1    5    5    0    0  0.34257967545E+02 -0.48932615018E+02  0.39567489005E+02  0.71649112618E+02  0.00000000000E+00 0.  1.
         12    1    5    5    0    0 -0.27226914908E+02 -0.43319126822E+02  0.88674386487E+02  0.10237674767E+03  0.00000000000E+00 0. -1.
         11    1    3    3    0    0 -0.43991491667E+01  0.37293694860E+02 -0.70587181057E+03  0.70686999168E+03  0.00000000000E+00 0. -1.
        -12    1    3    3    0    0  0.22154339546E+02 -0.26580916453E+02 -0.22605622028E+03  0.22868925337E+03  0.00000000000E+00 0.  1.
          5    1    4    4  501    0 -0.50590632893E+02  0.83885797776E+02 -0.14983573431E+03  0.17906551561E+03  0.41800000000E+01 0. -1.
         -5    1    4    4    0  501  0.25804389877E+02 -0.23468343430E+01 -0.20543924792E+03  0.20710898376E+03  0.41800000000E+01 0. -1.
</event>
<event>
11    1  0.8864208E-009  0.2683030E+03  0.7561462E-02  0.1014577E+00
         22   -1    0    0    0    0  0.00000000000E+00  0.00000000000E+00  0.17537200389E+04  0.17537200389E+04  0.00000000000E+00 0.  1.
         22   -1    0    0    0    0 -0.00000000000E+00 -0.00000000000E+00 -0.15438987230E+03  0.15438987230E+03  0.00000000000E+00 0. -1.
         24    2    1    2    0    0  0.10314155603E+02  0.82687417850E+02 -0.19520364695E+02  0.11558213814E+03  0.77682656638E+02 0.  0.
         25    2    1    2    0    0 -0.17843084494E+03 -0.23899189697E+03  0.26621162274E+03  0.41889087124E+03  0.12508493388E+03 0.  0.
        -24    2    1    2    0    0  0.16811668933E+03  0.15630447912E+03  0.13526389086E+04  0.13736369019E+04  0.67468582805E+02 0.  0.
        -11    1    3    3    0    0 -0.16617151119E+02 -0.69802854326E+01  0.51811892342E+01  0.18753634792E+02  0.00000000000E+00 0.  1.
         12    1    3    3    0    0  0.26931306723E+02  0.89667703283E+02 -0.24701553929E+02  0.96828503346E+02  0.00000000000E+00 0. -1.
         13    1    5    5    0    0  0.13994346387E+03  0.14866911898E+03  0.10553731611E+04  0.10749414818E+04  0.00000000000E+00 0. -1.
        -14    1    5    5    0    0  0.28173225468E+02  0.76353601396E+01  0.29726574747E+03  0.29869542008E+03  0.00000000000E+00 0.  1.
          5    1    4    4  501    0 -0.10716464346E+03 -0.59460110129E+02  0.14876115206E+03  0.19278775445E+03  0.41800000000E+01 0. -1.
         -5    1    4    4    0  501 -0.71266201482E+02 -0.17953178684E+03  0.11745047068E+03  0.22610311679E+03  0.41800000000E+01 0. -1.
</event>
<event>
11    1  0.8864208E-009  0.5028587E+03  0.7561462E-02  0.9387156E-01
         22   -1    0    0    0    0  0.00000000000E+00  0.00000000000E+00  0.11974148547E+04  0.11974148547E+04  0.00000000000E+00 0.  1.
         22   -1    0    0    0    0 -0.00000000000E+00 -0.00000000000E+00 -0.10398962723E+04  0.10398962723E+04  0.00000000000E+00 0.  1.
        -24    2    1    2    0    0 -0.29788492825E+03 -0.26399790805E+03 -0.23441345169E+03  0.46905255714E+03  0.81426709934E+02 0.  0.
         25    2    1    2    0    0  0.12230868260E+03  0.70297368938E+03 -0.41106717365E+03  0.83291932645E+03  0.12508781445E+03 0.  0.
         24    2    1    2    0    0  0.17557624565E+03 -0.43897578133E+03  0.80299920773E+03  0.93533924339E+03  0.80777583449E+02 0.  0.
        -13    1    5    5    0    0  0.13102583966E+03 -0.26730936820E+03  0.43879539099E+03  0.53024849282E+03  0.00000000000E+00 0.  1.
         14    1    5    5    0    0  0.44550405987E+02 -0.17166641313E+03  0.36420381674E+03  0.40509075057E+03  0.00000000000E+00 0. -1.
         13    1    3    3    0    0 -0.19218518910E+02 -0.24034610654E+02  0.36290361040E+01  0.30986834002E+02  0.00000000000E+00 0. -1.
        -14    1    3    3    0    0 -0.27866640934E+03 -0.23996329739E+03 -0.23804248779E+03  0.43806572314E+03  0.00000000000E+00 0.  1.
          5    1    4    4  501    0  0.13767791746E+03  0.68733470329E+03 -0.40579899022E+03  0.80998425674E+03  0.41800000000E+01 0. -1.
         -5    1    4    4    0  501 -0.15369234856E+02  0.15638986093E+02 -0.52681834218E+01  0.22935069711E+02  0.41800000000E+01 0. -1.
</event>
<event>
11    1  0.8864208E-009  0.2022531E+03  0.7561462E-02  0.1052942E+00
         22   -1    0    0    0    0  0.00000000000E+00  0.00000000000E+00  0.33118803271E+03  0.33118803271E+03  0.00000000000E+00 0. -1.
         22   -1    0    0    0    0 -0.00000000000E+00 -0.00000000000E+00 -0.47940059286E+03  0.47940059286E+03  0.00000000000E+00 0.  1.
        -24    2    1    2    0    0  0.14193695955E+03 -0.35553069982E+02 -0.27647619212E+03  0.32282272536E+03  0.79782867388E+02 0.  0.
         25    2    1    2    0    0 -0.19090242310E+03  0.91923744327E+02 -0.74093126305E+02  0.25696462217E+03  0.12508923121E+03 0.  0.
         24    2    1    2    0    0  0.48965463554E+02 -0.56370674345E+02  0.20235675828E+03  0.23080127804E+03  0.82132227407E+02 0.  0.
        -13    1    5    5    0    0  0.12908300592E+02  0.18478714383E+02  0.18926617860E+02  0.29433042198E+02  0.00000000000E+00 0.  1.
         14    1    5    5    0    0  0.36057162962E+02 -0.74849388728E+02  0.18343014042E+03  0.20136823585E+03  0.00000000000E+00 0. -1.
         13    1    3    3    0    0  0.27526655597E+02  0.23478591518E+02 -0.81597529763E+02  0.89258713253E+02  0.00000000000E+00 0. -1.
        -14    1    3    3    0    0  0.11441030395E+03 -0.59031661500E+02 -0.19487866236E+03  0.23356401211E+03  0.00000000000E+00 0.  1.
          5    1    4    4  501    0 -0.16289742507E+03  0.31566116221E+02 -0.89450560331E+02  0.18854937266E+03  0.41800000000E+01 0. -1.
         -5    1    4    4    0  501 -0.28004998031E+02  0.60357628106E+02  0.15357434026E+02  0.68415249507E+02  0.41800000000E+01 0. -1.
</event>
<event>
11    1  0.8864208E-009  0.1689733E+03  0.7561462E-02  0.1078929E+00
         22   -1    0    0    0    0  0.00000000000E+00  0.00000000000E+00  0.16998288424E+04  0.16998288424E+04  0.00000000000E+00 0.  1.
         22   -1    0    0    0    0 -0.00000000000E+00 -0.00000000000E+00 -0.85567593592E+03  0.85567593592E+03  0.00000000000E+00 0.  1.
        -24    2    1    2    0    0 -0.46620434046E+02 -0.10621503748E+03 -0.76549227035E+03  0.77790472146E+03  0.75513181988E+02 0.  0.
         25    2    1    2    0    0  0.37151010857E+02  0.78136615457E+02 -0.13026779630E+02  0.15266066042E+03  0.12510016774E+03 0.  0.
         24    2    1    2    0    0  0.94694231894E+01  0.28078422027E+02  0.16226719565E+04  0.16249393965E+04  0.80533819415E+02 0.  0.
        -11    1    5    5    0    0  0.45094206344E+02  0.13496861249E+02  0.95363609811E+03  0.95479707809E+03  0.00000000000E+00 0.  1.
         12    1    5    5    0    0 -0.35624783154E+02  0.14581560778E+02  0.66903585838E+03  0.67014231838E+03  0.00000000000E+00 0. -1.
         11    1    3    3    0    0 -0.46473274734E+02 -0.77645496807E+02 -0.35264784025E+03  0.36407291532E+03  0.00000000000E+00 0. -1.
        -12    1    3    3    0    0 -0.14715931254E+00 -0.28569540677E+02 -0.41284443010E+03  0.41383180614E+03  0.00000000000E+00 0.  1.
          5    1    4    4  501    0  0.35646163115E+02  0.15800260415E+02  0.50239926139E+02  0.63732407396E+02  0.41800000000E+01 0.  1.
         -5    1    4    4    0  501  0.15048477414E+01  0.62336355042E+02 -0.63266705769E+02  0.88928253022E+02  0.41800000000E+01 0.  1.
</event>
<event>
11    1  0.8864208E-009  0.1451238E+03  0.7561462E-02  0.1101968E+00
         22   -1    0    0    0    0  0.00000000000E+00  0.00000000000E+00  0.73261490381E+03  0.73261490381E+03  0.00000000000E+00 0.  1.
         22   -1    0    0    0    0 -0.00000000000E+00 -0.00000000000E+00 -0.48354222673E+03  0.48354222673E+03  0.00000000000E+00 0. -1.
         24    2    1    2    0    0 -0.71779562021E+02 -0.20975278076E+02 -0.44504313110E+03  0.45844677697E+03  0.80732836946E+02 0.  0.
         25    2    1    2    0    0  0.47080708993E+02  0.97471506452E+01  0.12692536965E+03  0.18453938363E+03  0.12503253395E+03 0.  0.
        -24    2    1    2    0    0  0.24698853028E+02  0.11228127431E+02  0.56719043852E+03  0.57317096994E+03  0.77999122029E+02 0.  0.
        -13    1    3    3    0    0 -0.22939675895E+02  0.30424686260E+02 -0.18681484599E+03  0.19066115741E+03  0.00000000000E+00 0.  1.
         14    1    3    3    0    0 -0.48839886126E+02 -0.51399964337E+02 -0.25822828511E+03  0.26778561956E+03  0.00000000000E+00 0. -1.
         11    1    5    5    0    0  0.51659544019E+01  0.17633458042E+02  0.27408504568E+02  0.32997758258E+02  0.00000000000E+00 0. -1.
        -12    1    5    5    0    0  0.19532898626E+02 -0.64053306105E+01  0.53978193396E+03  0.54017321168E+03  0.00000000000E+00 0.  1.
          5    1    4    4  501    0 -0.24996999729E+02  0.40628283951E+02  0.79488155401E+02  0.92797342102E+02  0.41800000000E+01 0.  1.
         -5    1    4    4    0  501  0.72077708721E+02 -0.30881133305E+02  0.47437214249E+02  0.91742041532E+02  0.41800000000E+01 0.  1.
</event>
<event>
11    1  0.8864208E-009  0.1260358E+03  0.7561462E-02  0.1124238E+00
         22   -1    0    0    0    0  0.00000000000E+00  0.00000000000E+00  0.48328874572E+02  0.48328874572E+02  0.00000000000E+00 0. -1.
         22   -1    0    0    0    0 -0.00000000000E+00 -0.00000000000E+00 -0.17394258092E+04  0.17394258092E+04  0.00000000000E+00 0. -1.
         24    2    1    2    0    0 -0.11986976090E+02 -0.15573017752E+02 -0.13813315592E+04  0.13838231463E+04  0.80643767842E+02 0.  0.
         25    2    1    2    0    0  0.13940433132E+02 -0.16751615662E+01 -0.29155977901E+03  0.31757128559E+03  0.12508906769E+03 0.  0.
        -24    2    1    2    0    0 -0.19534570420E+01  0.17248179318E+02 -0.18205596470E+02  0.86360251939E+02  0.82615577756E+02 0.  0.
        -11    1    3    3    0    0  0.26519025618E+02  0.13245460365E+02 -0.31042604039E+03  0.31183814310E+03  0.00000000000E+00 0.  1.
         12    1    3    3    0    0 -0.38506001708E+02 -0.28818478116E+02 -0.10709055188E+04  0.10719850032E+04  0.00000000000E+00 0. -1.
         11    1    5    5    0    0 -0.17731013468E+02  0.44577050120E+02  0.34345576426E+01  0.48096761036E+02  0.00000000000E+00 0. -1.
        -12    1    5    5    0    0  0.15777556426E+02 -0.27328870802E+02 -0.21640154112E+02  0.38263490903E+02  0.00000000000E+00 0.  1.
          5    1    4    4  501    0  0.66846248185E+02 -0.30354606291E+01 -0.20832155595E+03  0.21884464350E+03  0.41800000000E+01 0.  1.
         -5    1    4    4    0  501 -0.52905815053E+02  0.13602990629E+01 -0.83238223062E+02  0.98726642091E+02  0.41800000000E+01 0.  1.
</event>
<event>
11    1  0.8864208E-009  0.1511775E+03  0.7561462E-02  0.1095682E+00
         22   -1    0    0    0    0  0.00000000000E+00  0.00000000000E+00  0.13952483369E+03  0.13952483369E+03  0.00000000000E+00 0.  1.
         22   -1    0    0    0    0 -0.00000000000E+00 -0.00000000000E+00 -0.20753259936E+04  0.20753259936E+04  0.00000000000E+00 0. -1.
        -24    2    1    2    0    0  0.24553147496E+02 -0.52521303770E+02 -0.15306862332E+04  0.15339500695E+04  0.81493107445E+02 0.  0.
         25    2    1    2    0    0  0.34798557184E+02  0.11179663377E+03 -0.50161551937E+03  0.53006783779E+03  0.12507740195E+03 0.  0.
         24    2    1    2    0    0 -0.59351704679E+02 -0.59275329996E+02  0.96500592696E+02  0.15083292005E+03  0.80012597668E+02 0.  0.
        -11    1    5    5    0    0 -0.76679466771E+02 -0.60607769403E+02  0.87859634902E+02  0.13142434242E+03  0.00000000000E+00 0.  1.
         12    1    5    5    0    0  0.17327762092E+02  0.13324394066E+01  0.86409577937E+01  0.19408577626E+02  0.00000000000E+00 0. -1.
         11    1    3    3    0    0  0.28233859554E+02 -0.18559045070E+02 -0.13261769858E+04  0.13266073219E+04  0.00000000000E+00 0. -1.
        -12    1    3    3    0    0 -0.36807120582E+01 -0.33962258700E+02 -0.20450924746E+03  0.20734274754E+03  0.00000000000E+00 0.  1.
          5    1    4    4  501    0  0.55420627500E+02  0.18779582855E+02 -0.31585854757E+03  0.32126035105E+03  0.41800000000E+01 0. -1.
         -5    1    4    4    0  501 -0.20622070316E+02  0.93017050911E+02 -0.18575697180E+03  0.20880748674E+03  0.41800000000E+01 0. -1.
</event>
<event>
11    1  0.8864208E-009  0.1652694E+03  0.7561462E-02  0.1082223E+00
         22   -1    0    0    0    0  0.00000000000E+00  0.00000000000E+00  0.84528450707E+02  0.84528450707E+02  0.00000000000E+00 0.  1.
         22   -1    0    0    0    0 -0.00000000000E+00 -0.00000000000E+00 -0.89418242627E+03  0.89418242627E+03  0.00000000000E+00 0.  1.
         24    2    1    2    0    0  0.21896739548E+02  0.27568014991E+02 -0.49177721765E+03  0.49902812303E+03  0.77102354847E+02 0.  0.
         25    2    1    2    0    0 -0.95143630368E+02 -0.97585369501E+02 -0.29588048031E+03  0.34895264557E+03  0.12508986964E+03 0.  0.
        -24    2    1    2    0    0  0.73246890820E+02  0.70017354511E+02 -0.21996277604E+02  0.13073010837E+03  0.79617762203E+02 0.  0.
        -11    1    3    3    0    0  0.20006923642E+02 -0.23708091091E+02 -0.24627524457E+03  0.24822136625E+03  0.00000000000E+00 0.  1.
         12    1    3    3    0    0  0.18898159059E+01  0.51276106082E+02 -0.24550197308E+03  0.25080675678E+03  0.00000000000E+00 0. -1.
         13    1    5    5    0    0 -0.17087923480E+02  0.17093938764E+02 -0.41036381683E+01  0.24516111387E+02  0.00000000000E+00 0. -1.
        -14    1    5    5    0    0  0.90334814300E+02  0.52923415746E+02 -0.17892639436E+02  0.10621399698E+03  0.00000000000E+00 0.  1.
          5    1    4    4  501    0 -0.26177316628E+02  0.27897124057E+02 -0.38746933865E+02  0.54610426847E+02  0.41800000000E+01 0.  1.
         -5    1    4    4    0  501 -0.68966313740E+02 -0.12548249356E+03 -0.25713354644E+03  0.29434221873E+03  0.41800000000E+01 0.  1.
</event>
<event>
11    1  0.8864208E-009  0.1399039E+03  0.7561462E-02  0.1107666E+00
         22   -1    0    0    0    0  0.00000000000E+00  0.00000000000E+00  0.19832174136E+03  0.19832174136E+03  0.00000000000E+00 0. -1.
         22   -1    0    0    0    0 -0.00000000000E+00 -0.00000000000E+00 -0.51889446068E+03  0.51889446068E+03  0.00000000000E+00 0. -1.
        -24    2    1    2    0    0 -0.40604135665E+02 -0.67000516012E+02 -0.32676462295E+03  0.34565837668E+03  0.81035977039E+02 0.  0.
         25    2    1    2    0    0  0.30874676518E+02  0.47568901758E+01 -0.14213997247E+03  0.19190394420E+03  0.12508988118E+03 0.  0.
         24    2    1    2    0    0  0.97294591466E+01  0.62243625837E+02  0.14833187610E+03  0.17965388116E+03  0.79399245693E+02 0.  0.
        -11    1    5    5    0    0  0.36886161651E+02  0.32953408405E+02  0.38180222898E+02  0.62483961681E+02  0.00000000000E+00 0.  1.
         12    1    5    5    0    0 -0.27156702504E+02  0.29290217432E+02  0.11015165320E+03  0.11716991948E+03  0.00000000000E+00 0. -1.
         11    1    3    3    0    0 -0.42320415655E+02 -0.21317707266E+02 -0.26279341515E+03  0.26703153609E+03  0.00000000000E+00 0. -1.
        -12    1    3    3    0    0  0.17162799902E+01 -0.45682808746E+02 -0.63971207806E+02  0.78626840584E+02  0.00000000000E+00 0.  1.
          5    1    4    4  501    0  0.26666211890E+02  0.50308920470E+02 -0.13345391062E+03  0.14515334304E+03  0.41800000000E+01 0.  1.
         -5    1    4    4    0  501  0.42084646281E+01 -0.45552030295E+02 -0.86860618431E+01  0.46750601160E+02  0.41800000000E+01 0.  1.
</event>
<event>
11    1  0.8864208E-009  0.1327012E+03  0.7561462E-02  0.1115994E+00
         22   -1    0    0    0    0  0.00000000000E+00  0.00000000000E+00  0.12831964594E+04  0.12831964594E+04  0.00000000000E+00 0.  1.
         22   -1    0    0    0    0 -0.00000000000E+00 -0.00000000000E+00 -0.61350317533E+03  0.61350317533E+03  0.00000000000E+00 0. -1.
         24    2    1    2    0    0  0.50082057537E+02 -0.24963956477E+02 -0.59840857555E+03  0.60623348152E+03  0.79339770696E+02 0.  0.
         25    2    1    2    0    0  0.75087287480E+00  0.43833004968E+02  0.55881191832E+03  0.57431726153E+03  0.12509060996E+03 0.  0.
        -24    2    1    2    0    0 -0.50832930411E+02 -0.18869048491E+02  0.70928994130E+03  0.71614889167E+03  0.82686071411E+02 0.  0.
        -11    1    3    3    0    0  0.16342840994E+02 -0.20119605917E+02 -0.46206594453E+02  0.52980528168E+02  0.00000000000E+00 0.  1.
         12    1    3    3    0    0  0.33739216542E+02 -0.48443505594E+01 -0.55220198110E+03  0.55325295335E+03  0.00000000000E+00 0. -1.
         11    1    5    5    0    0  0.44231166920E+01  0.26780480148E+02  0.20633670399E+03  0.20811437599E+03  0.00000000000E+00 0. -1.
        -12    1    5    5    0    0 -0.55256047103E+02 -0.45649528638E+02  0.50295323731E+03  0.50803451568E+03  0.00000000000E+00 0.  1.
          5    1    4    4  501    0  0.53408396572E+02 -0.10592294457E+02  0.28556790472E+03  0.29074241887E+03  0.41800000000E+01 0.  1.
         -5    1    4    4    0  501 -0.52657523697E+02  0.54425299424E+02  0.27324401360E+03  0.28357484266E+03  0.41800000000E+01 0.  1.
</event>
<event>
11    1  0.8864208E-009  0.1414579E+03  0.7561462E-02  0.1105941E+00
         22   -1    0    0    0    0  0.00000000000E+00  0.00000000000E+00  0.72145831078E+03  0.72145831078E+03  0.00000000000E+00 0. -1.
         22   -1    0    0    0    0 -0.00000000000E+00 -0.00000000000E+00 -0.94492150677E+03  0.94492150677E+03  0.00000000000E+00 0. -1.
        -24    2    1    2    0    0  0.51720715668E+02  0.15567234983E+02 -0.90339048330E+03  0.90858084018E+03  0.80544438617E+02 0.  0.
         25    2    1    2    0    0 -0.70467152210E+02 -0.74569009044E+02  0.15872904421E+03  0.22664590068E+03  0.12508916087E+03 0.  0.
         24    2    1    2    0    0  0.18746436542E+02  0.59001774061E+02  0.52119824310E+03  0.53115307668E+03  0.81506711567E+02 0.  0.
        -11    1    5    5    0    0 -0.14884477925E+02  0.49112355178E+02  0.15486355277E+03  0.16314500020E+03  0.00000000000E+00 0.  1.
         12    1    5    5    0    0  0.33630914468E+02  0.98894188823E+01  0.36633469034E+03  0.36800807648E+03  0.00000000000E+00 0. -1.
         13    1    3    3    0    0  0.52478775802E+01 -0.24124901622E+02 -0.49776986898E+03  0.49838177491E+03  0.00000000000E+00 0. -1.
        -14    1    3    3    0    0  0.46472838087E+02  0.39692136605E+02 -0.40562061433E+03  0.41019906528E+03  0.00000000000E+00 0.  1.
          5    1    4    4  501    0 -0.10285747182E+03 -0.57117068334E+02  0.88600772562E+02  0.14734173985E+03  0.41800000000E+01 0. -1.
         -5    1    4    4    0  501  0.32390319612E+02 -0.17451940710E+02  0.70128271652E+02  0.79304160824E+02  0.41800000000E+01 0. -1.
</event>
<event>
11    1  0.8864208E-009  0.1275753E+03  0.7561462E-02  0.1122285E+00
         22   -1    0    0    0    0  0.00000000000E+00  0.00000000000E+00  0.74582798532E+03  0.74582798532E+03  0.00000000000E+00 0.  1.
         22   -1    0    0    0    0 -0.00000000000E+00 -0.00000000000E+00 -0.64888344999E+02  0.64888344999E+02  0.00000000000E+00 0. -1.
        -24    2    1    2    0    0  0.61709597885E+01  0.40019255770E+01 -0.19646600691E+02  0.77846582599E+02  0.74966694942E+02 0.  0.
         25    2    1    2    0    0  0.20830427938E+02 -0.29577097132E+01  0.35261971607E+03  0.37474093816E+03  0.12508977496E+03 0.  0.
         24    2    1    2    0    0 -0.27001387726E+02 -0.10442158638E+01  0.34796652495E+03  0.35812880956E+03  0.80283101756E+02 0.  0.
        -13    1    5    5    0    0 -0.32371141268E+02  0.30504589696E+02  0.12098331565E+03  0.12890067279E+03  0.00000000000E+00 0.  1.
         14    1    5    5    0    0  0.53697535420E+01 -0.31548805560E+02  0.22698320930E+03  0.22922813677E+03  0.00000000000E+00 0. -1.
         11    1    3    3    0    0 -0.11891362589E+02 -0.32224494677E+02 -0.13484555015E+02  0.36900620393E+02  0.00000000000E+00 0. -1.
        -12    1    3    3    0    0  0.18062322378E+02  0.36226420254E+02 -0.61620456752E+01  0.40945962206E+02  0.00000000000E+00 0.  1.
          5    1    4    4  501    0  0.41610772646E+02  0.24146397414E+02  0.33011095899E+03  0.33362437344E+03  0.41800000000E+01 0. -1.
         -5    1    4    4    0  501 -0.20780344708E+02 -0.27104107127E+02  0.22508757079E+02  0.41116564723E+02  0.41800000000E+01 0. -1.
</event>
<event>
11    1  0.8864208E-009  0.1498523E+03  0.7561462E-02  0.1097030E+00
         22   -1    0    0    0    0  0.00000000000E+00  0.00000000000E+00  0.33272275020E+03  0.33272275020E+03  0.00000000000E+00 0.  1.
         22   -1    0    0    0    0 -0.00000000000E+00 -0.00000000000E+00 -0.13036159757E+04  0.13036159757E+04  0.00000000000E+00 0. -1.
         24    2    1    2    0    0  0.80960720895E+02 -0.18069938928E+02 -0.11862851557E+04  0.11913327623E+04  0.71555004790E+02 0.  0.
         25    2    1    2    0    0 -0.78854628859E+02 -0.17660986530E+02 -0.56455458107E+02  0.15926495077E+03  0.12509253717E+03 0.  0.
        -24    2    1    2    0    0 -0.21060920357E+01  0.35730925457E+02  0.27184738836E+03  0.28574101285E+03  0.80410131259E+02 0.  0.
        -11    1    3    3    0    0  0.18276594135E+02 -0.34144444102E+02 -0.26975246289E+03  0.27251838139E+03  0.00000000000E+00 0.  1.
         12    1    3    3    0    0  0.62684126760E+02  0.16074505175E+02 -0.91653269285E+03  0.91881438088E+03  0.00000000000E+00 0. -1.
         13    1    5    5    0    0  0.93403171732E+01  0.59008856088E+02  0.15657125440E+03  0.16758235088E+03  0.00000000000E+00 0. -1.
        -14    1    5    5    0    0 -0.11446409209E+02 -0.23277930631E+02  0.11527613396E+03  0.11815866197E+03  0.00000000000E+00 0.  1.
          5    1    4    4  501    0 -0.64682902896E+01  0.39777230405E+02  0.14129814657E+02  0.42909100436E+02  0.41800000000E+01 0.  1.
         -5    1    4    4    0  501 -0.72386338570E+02 -0.57438216935E+02 -0.70585272764E+02  0.11635585034E+03  0.41800000000E+01 0.  1.
</event>
<event>
11    1  0.8864208E-009  0.2825407E+03  0.7561462E-02  0.1007864E+00
         22   -1    0    0    0    0  0.00000000000E+00  0.00000000000E+00  0.13935582802E+04  0.13935582802E+04  0.00000000000E+00 0.  1.
         22   -1    0    0    0    0 -0.00000000000E+00 -0.00000000000E+00 -0.10004053709E+04  0.10004053709E+04  0.00000000000E+00 0.  1.
         24    2    1    2    0    0  0.24224489830E+02  0.24950610513E+03 -0.91825381307E+03  0.95515118614E+03  0.79269166528E+02 0.  0.
         25    2    1    2    0    0 -0.11676915158E+02 -0.32763500529E+03  0.45255129295E+03  0.57265346954E+03  0.12509307092E+03 0.  0.
        -24    2    1    2    0    0 -0.12547574672E+02  0.78128900151E+02  0.85885542935E+03  0.86615899540E+03  0.79606470320E+02 0.  0.
        -11    1    3    3    0    0  0.19879165169E+02  0.23915152030E+03 -0.91027394064E+03  0.94137520568E+03  0.00000000000E+00 0.  1.
         12    1    3    3    0    0  0.43453246618E+01  0.10354584839E+02 -0.79798724336E+01  0.13775980461E+02  0.00000000000E+00 0. -1.
         11    1    5    5    0    0 -0.36098237068E+02  0.29056049179E+02  0.21138394688E+03  0.21640358064E+03  0.00000000000E+00 0. -1.
        -12    1    5    5    0    0  0.23550662396E+02  0.49072850973E+02  0.64747148247E+03  0.64975541476E+03  0.00000000000E+00 0.  1.
          5    1    4    4  501    0 -0.23904066649E+02 -0.32742028775E+03  0.45329933929E+03  0.55970814951E+03  0.41800000000E+01 0. -1.
         -5    1    4    4    0  501  0.12227151490E+02 -0.21471753964E+00 -0.74804634700E+00  0.12945320024E+02  0.41800000000E+01 0. -1.
</event>
<event>
11    1  0.8864208E-009  0.1526222E+03  0.7561462E-02  0.1094229E+00
         22   -1    0    0    0    0  0.00000000000E+00  0.00000000000E+00  0.39105208990E+03  0.39105208990E+03  0.00000000000E+00 0.  1.
         22   -1    0    0    0    0 -0.00000000000E+00 -0.00000000000E+00 -0.18419486657E+03  0.18419486657E+03  0.00000000000E+00 0. -1.
        -24    2    1    2    0    0 -0.60495581785E+02 -0.55358229740E+02 -0.98263137719E+02  0.15095988555E+03  0.80056191493E+02 0.  0.
         25    2    1    2    0    0  0.97570541846E+02  0.67932693159E+02  0.97868443118E+02  0.19839298562E+03  0.12508670253E+03 0.  0.
         24    2    1    2    0    0 -0.37074960061E+02 -0.12574463419E+02  0.20725191793E+03  0.22589408529E+03  0.80883314047E+02 0.  0.
        -11    1    5    5    0    0 -0.40051871373E+02 -0.43139186661E+02  0.14452793077E+03  0.15605596624E+03  0.00000000000E+00 0.  1.
         12    1    5    5    0    0  0.29769113118E+01  0.30564723242E+02  0.62723987162E+02  0.69838119056E+02  0.00000000000E+00 0. -1.
         13    1    3    3    0    0 -0.31121912923E+02 -0.69227870944E+02 -0.89427796538E+02  0.11729621636E+03  0.00000000000E+00 0. -1.
        -14    1    3    3    0    0 -0.29373668861E+02  0.13869641204E+02 -0.88353411809E+01  0.33663669189E+02  0.00000000000E+00 0.  1.
          5    1    4    4  501    0 -0.13418722337E+02  0.69018825698E+01 -0.19946226302E+02  0.25357887054E+02  0.41800000000E+01 0.  1.
         -5    1    4    4    0  501  0.11098926418E+03  0.61030810590E+02  0.11781466942E+03  0.17303509857E+03  0.41800000000E+01 0.  1.
</event>
<event>
11    1  0.8864208E-009  0.2274477E+03  0.7561462E-02  0.1036650E+00
         22   -1    0    0    0    0  0.00000000000E+00  0.00000000000E+00  0.44398702121E+03  0.44398702121E+03  0.00000000000E+00 0. -1.
         22   -1    0    0    0    0 -0.00000000000E+00 -0.00000000000E+00 -0.23214381761E+04  0.23214381761E+04  0.00000000000E+00 0.  1.
         24    2    1    2    0    0 -0.18499864252E+03 -0.49202798128E+02 -0.21920898462E+04  0.22018926420E+04  0.80174183224E+02 0.  0.
         25    2    1    2    0    0  0.15040500023E+03  0.67826151012E+02 -0.28614074457E+02  0.20901908622E+03  0.12509261487E+03 0.  0.
        -24    2    1    2    0    0  0.34593642298E+02 -0.18623352884E+02  0.34325276576E+03  0.35451346917E+03  0.79459356025E+02 0.  0.
        -11    1    3    3    0    0 -0.93712526014E+02 -0.66027339541E+02 -0.12416882950E+04  0.12469689127E+04  0.00000000000E+00 0.  1.
         12    1    3    3    0    0 -0.91286116509E+02  0.16824541413E+02 -0.95040155120E+03  0.95492372930E+03  0.00000000000E+00 0. -1.
         11    1    5    5    0    0 -0.18043903479E+02 -0.26792029993E+02  0.17739044500E+03  0.18030741887E+03  0.00000000000E+00 0. -1.
        -12    1    5    5    0    0  0.52637545777E+02  0.81686771093E+01  0.16586232076E+03  0.17420605030E+03  0.00000000000E+00 0.  1.
          5    1    4    4  501    0  0.16152096731E+03  0.85910007475E+02 -0.35313520273E+02  0.18637078467E+03  0.41800000000E+01 0. -1.
         -5    1    4    4    0  501 -0.11115967087E+02 -0.18083856463E+02  0.66994458166E+01  0.22648301550E+02  0.41800000000E+01 0. -1.
</event>
<event>
11    1  0.8864208E-009  0.1348861E+03  0.7561462E-02  0.1113407E+00
         22   -1    0    0    0    0  0.00000000000E+00  0.00000000000E+00  0.26551580754E+03  0.26551580754E+03  0.00000000000E+00 0. -1.
         22   -1    0    0    0    0 -0.00000000000E+00 -0.00000000000E+00 -0.35855228550E+03  0.35855228550E+03  0.00000000000E+00 0.  1.
         24    2    1    2    0    0  0.12225359827E+02 -0.14729310796E+02 -0.26914956259E+03  0.28232066781E+03  0.83048542520E+02 0.  0.
         25    2    1    2    0    0 -0.10849854386E+02 -0.37841234858E+02 -0.10455305119E+02  0.13155202374E+03  0.12508774180E+03 0.  0.
        -24    2    1    2    0    0 -0.13755054404E+01  0.52570545654E+02  0.18656838975E+03  0.21019540149E+03  0.81294455318E+02 0.  0.
        -11    1    3    3    0    0  0.67544103755E+01 -0.17751054524E+02 -0.27384536679E+03  0.27450320018E+03  0.00000000000E+00 0.  1.
         12    1    3    3    0    0  0.54709494512E+01  0.30217437277E+01  0.46958042052E+01  0.78174676326E+01  0.00000000000E+00 0. -1.
         13    1    5    5    0    0  0.37051780879E+02  0.99728103843E+01  0.90544459569E+02  0.98339160927E+02  0.00000000000E+00 0. -1.
        -14    1    5    5    0    0 -0.38427286320E+02  0.42597735270E+02  0.96023930186E+02  0.11185624056E+03  0.00000000000E+00 0.  1.
          5    1    4    4  501    0 -0.41159573327E+02 -0.38445275182E+02  0.42301214022E+02  0.70562134095E+02  0.41800000000E+01 0. -1.
         -5    1    4    4    0  501  0.30309718941E+02  0.60404032440E+00 -0.52756519142E+02  0.60989889645E+02  0.41800000000E+01 0. -1.
</event>
<event>
11    1  0.8864208E-009  0.1859160E+03  0.7561462E-02  0.1064955E+00
         22   -1    0    0    0    0  0.00000000000E+00  0.00000000000E+00  0.11262274418E+03  0.11262274418E+03  0.00000000000E+00 0. -1.
         22   -1    0    0    0    0 -0.00000000000E+00 -0.00000000000E+00 -0.15915621821E+04  0.15915621821E+04  0.00000000000E+00 0. -1.
        -24    2    1    2    0    0 -0.73204534945E+02  0.63210195768E+02 -0.88874341632E+03  0.89629565638E+03  0.64238701770E+02 0.  0.
         25    2    1    2    0    0 -0.65295135473E+02 -0.15960098630E+02 -0.62215801818E+03  0.63815733772E+03  0.12508400632E+03 0.  0.
         24    2    1    2    0    0  0.13849967042E+03 -0.47250097137E+02  0.31961996542E+02  0.16973193223E+03  0.79828749263E+02 0.  0.
        -11    1    5    5    0    0  0.67028978586E+02 -0.38727926639E+02  0.54081551485E+02  0.94432782883E+02  0.00000000000E+00 0.  1.
         12    1    5    5    0    0  0.71470691832E+02 -0.85221704985E+01 -0.22119554942E+02  0.75299149344E+02  0.00000000000E+00 0. -1.
         11    1    3    3    0    0 -0.54826508748E+02  0.38524924681E+02 -0.33158500474E+03  0.33828794134E+03  0.00000000000E+00 0. -1.
        -12    1    3    3    0    0 -0.18378026197E+02  0.24685271087E+02 -0.55715841157E+03  0.55800771504E+03  0.00000000000E+00 0.  1.
          5    1    4    4  501    0 -0.81458115159E+01 -0.37225907025E+01 -0.52218564369E+03  0.52227916941E+03  0.41800000000E+01 0. -1.
         -5    1    4    4    0  501 -0.57149323958E+02 -0.12237507928E+02 -0.99972374490E+02  0.11587816831E+03  0.41800000000E+01 0. -1.
</event>
<event>
11    1  0.8864208E-009  0.1643397E+03  0.7561462E-02  0.1083065E+00
         22   -1    0    0    0    0  0.00000000000E+00  0.00000000000E+00  0.95580345293E+03  0.95580345293E+03  0.00000000000E+00 0.  1.
         22   -1    0    0    0    0 -0.00000000000E+00 -0.00000000000E+00 -0.43081712519E+03  0.43081712519E+03  0.00000000000E+00 0. -1.
         24    2    1    2    0    0 -0.21177716067E+02 -0.98832762405E+01 -0.36263006909E+03  0.37272188254E+03  0.82914774974E+02 0.  0.
         25    2    1    2    0    0 -0.79910547527E+02 -0.29695574869E+02  0.41328890786E+02  0.15691638479E+03  0.12508857594E+03 0.  0.
        -24    2    1    2    0    0  0.10108826359E+03  0.39578851110E+02  0.84628750605E+03  0.85698231078E+03  0.80192366287E+02 0.  0.
        -11    1    3    3    0    0  0.93706479037E+00  0.35524275023E+02 -0.15878449882E+03  0.16271253569E+03  0.00000000000E+00 0.  1.
         12    1    3    3    0    0 -0.22114780857E+02 -0.45407551264E+02 -0.20384557027E+03  0.21000934685E+03  0.00000000000E+00 0. -1.
         13    1    5    5    0    0  0.25521575766E+02  0.12984694780E+02  0.58500822530E+02  0.65132936098E+02  0.00000000000E+00 0. -1.
        -14    1    5    5    0    0  0.75566687827E+02  0.26594156330E+02  0.78778668352E+03  0.79184937468E+03  0.00000000000E+00 0.  1.
          5    1    4    4  501    0 -0.83330372080E+02  0.16175266896E+02 -0.12593859485E+02  0.85916633237E+02  0.41800000000E+01 0. -1.
         -5    1    4    4    0  501  0.34198245530E+01 -0.45870841765E+02  0.53922750272E+02  0.70999751556E+02  0.41800000000E+01 0. -1.
</event>
<event>
11    1  0.8864208E-009  0.1582543E+03  0.7561462E-02  0.1088731E+00
         22   -1    0    0    0    0  0.00000000000E+00  0.00000000000E+00  0.97238858385E+03  0.97238858385E+03  0.00000000000E+00 0.  1.
         22   -1    0    0    0    0 -0.00000000000E+00 -0.00000000000E+00 -0.21121765714E+04  0.21121765714E+04  0.00000000000E+00 0.  1.
         24    2    1    2    0    0 -0.24573370551E+02 -0.77224037273E+02 -0.20725537025E+04  0.20756353345E+04  0.78840281528E+02 0.  0.
         25    2    1    2    0    0 -0.61136204760E+02  0.11767714996E+03  0.22100189896E+03  0.28648681332E+03  0.12508919902E+03 0.  0.
        -24    2    1    2    0    0  0.85709575311E+02 -0.40453112691E+02  0.71176381592E+03  0.72244300740E+03  0.79583815361E+02 0.  0.
        -11    1    3    3    0    0 -0.39407356253E+02 -0.51760235337E+02 -0.18494454881E+04  0.18505892778E+04  0.00000000000E+00 0.  1.
         12    1    3    3    0    0  0.14833985703E+02 -0.25463801937E+02 -0.22310821433E+03  0.22504605671E+03  0.00000000000E+00 0. -1.
         13    1    5    5    0    0  0.49634340564E+02 -0.15862289911E+02  0.14641414914E+03  0.15541004817E+03  0.00000000000E+00 0. -1.
        -14    1    5    5    0    0  0.36075234746E+02 -0.24590822780E+02  0.56534966677E+03  0.56703295923E+03  0.00000000000E+00 0.  1.
          5    1    4    4  501    0 -0.54266663464E+02  0.46930186269E+02  0.19959034620E+03  0.21213460783E+03  0.41800000000E+01 0. -1.
         -5    1    4    4    0  501 -0.68695412964E+01  0.70746963695E+02  0.21411552762E+02  0.74352205490E+02  0.41800000000E+01 0. -1.
</event>
<event>
11    1  0.8864208E-009  0.2673709E+03  0.7561462E-02  0.1015032E+00
         22   -1    0    0    0    0  0.00000000000E+00  0.00000000000E+00  0.81426048578E+03  0.81426048578E+03  0.00000000000E+00 0.  1.
         22   -1    0    0    0    0 -0.00000000000E+00 -0.00000000000E+00 -0.72041778320E+03  0.72041778320E+03  0.00000000000E+00 0.  1.
        -24    2    1    2    0    0 -0.17152984584E+03  0.13643118818E+03 -0.49640740900E+03  0.54853291504E+03  0.80200287113E+02 0.  0.
         25    2    1    2    0    0  0.30378058705E+03 -0.22522589199E+03  0.31476029387E+02  0.39955899782E+03  0.12508918746E+03 0.  0.
         24    2    1    2    0    0 -0.13225074121E+03  0.88794703810E+02  0.55877408219E+03  0.58658635612E+03  0.80500436562E+02 0.  0.
        -11    1    5    5    0    0 -0.84888953379E+02  0.45428668599E+02  0.45073539478E+03  0.46090378003E+03  0.00000000000E+00 0.  1.
         12    1    5    5    0    0 -0.47361787830E+02  0.43366035211E+02  0.10803868741E+03  0.12568257609E+03  0.00000000000E+00 0. -1.
         11    1    3    3    0    0 -0.88658045939E+02  0.10135096576E+03 -0.36689375808E+03  0.39082386965E+03  0.00000000000E+00 0. -1.
        -12    1    3    3    0    0 -0.82871799900E+02  0.35080222423E+02 -0.12951365091E+03  0.15770904539E+03  0.00000000000E+00 0.  1.
          5    1    4    4  501    0  0.31382428069E+03 -0.21643206383E+03  0.20526887730E+02  0.38179489641E+03  0.41800000000E+01 0.  1.
         -5    1    4    4    0  501 -0.10043693644E+02 -0.87938281608E+01  0.10949141657E+02  0.17764101406E+02  0.41800000000E+01 0.  1.
</event>
<event>
11    1  0.8864208E-009  0.2020839E+03  0.7561462E-02  0.1053060E+00
         22   -1    0    0    0    0  0.00000000000E+00  0.00000000000E+00  0.18299506431E+04  0.18299506431E+04  0.00000000000E+00 0.  1.
         22   -1    0    0    0    0 -0.00000000000E+00 -0.00000000000E+00 -0.32346276561E+04  0.32346276561E+04  0.00000000000E+00 0. -1.
         24    2    1    2    0    0 -0.21926459844E+02  0.31854801557E+02 -0.32129252454E+04  0.32141574431E+04  0.80149474709E+02 0.  0.
         25    2    1    2    0    0  0.16730423672E+03  0.20736449881E+02  0.80519971110E+03  0.83211452503E+03  0.12508916831E+03 0.  0.
        -24    2    1    2    0    0 -0.14537777688E+03 -0.52591251438E+02  0.10030485214E+04  0.10183063311E+04  0.83312124321E+02 0.  0.
        -13    1    3    3    0    0 -0.52390840484E+02  0.23123585237E+02 -0.21101552357E+04  0.21109321683E+04  0.00000000000E+00 0.  1.
         14    1    3    3    0    0  0.30464380640E+02  0.87312163201E+01 -0.11027700098E+04  0.11032252748E+04  0.00000000000E+00 0. -1.
         13    1    5    5    0    0 -0.26638841385E+02 -0.45880895089E+02  0.22175920281E+03  0.22801716698E+03  0.00000000000E+00 0. -1.
        -14    1    5    5    0    0 -0.11873893549E+03 -0.67103563485E+01  0.78128931854E+03  0.79028916413E+03  0.00000000000E+00 0.  1.
          5    1    4    4  501    0  0.59922934555E+02  0.41452405027E+01  0.87443620811E+02  0.10616873516E+03  0.41800000000E+01 0.  1.
         -5    1    4    4    0  501  0.10738130217E+03  0.16591209378E+02  0.71775609029E+03  0.72594578988E+03  0.41800000000E+01 0.  1.
</event>
<event>
11    1  0.8864208E-009  0.1364915E+03  0.7561462E-02  0.1111541E+00
         22   -1    0    0    0    0  0.00000000000E+00  0.00000000000E+00  0.22247636560E+03  0.22247636560E+03  0.00000000000E+00 0. -1.
         22   -1    0    0    0    0 -0.00000000000E+00 -0.00000000000E+00 -0.12527126084E+04  0.12527126084E+04  0.00000000000E+00 0.  1.
         24    2    1    2    0    0 -0.56346828155E+02  0.23995472978E+02 -0.67899600208E+03  0.68647275343E+03  0.80364933846E+02 0.  0.
         25    2    1    2    0    0  0.25898946599E+02 -0.38086457968E+02 -0.55325419373E+03  0.56908580908E+03  0.12508845469E+03 0.  0.
        -24    2    1    2    0    0  0.30447881556E+02  0.14090984989E+02  0.20201395302E+03  0.21963041149E+03  0.79386718602E+02 0.  0.
        -11    1    3    3    0    0 -0.11317290561E+02  0.30895896089E+02 -0.52106443878E+03  0.52210227621E+03  0.00000000000E+00 0.  1.
         12    1    3    3    0    0 -0.45029537594E+02 -0.69004231109E+01 -0.15793156330E+03  0.16437047722E+03  0.00000000000E+00 0. -1.
         13    1    5    5    0    0 -0.34810998106E+01 -0.21493651056E+02  0.13370636223E+03  0.13546765810E+03  0.00000000000E+00 0. -1.
        -14    1    5    5    0    0  0.33928981366E+02  0.35584636045E+02  0.68307590789E+02  0.84162753391E+02  0.00000000000E+00 0.  1.
          5    1    4    4  501    0 -0.36587309848E+02 -0.56869724085E+02 -0.29567937965E+03  0.30334232265E+03  0.41800000000E+01 0. -1.
         -5    1    4    4    0  501  0.62486256448E+02  0.18783266117E+02 -0.25757481407E+03  0.26574348642E+03  0.41800000000E+01 0. -1.
</event>
<event>
11    1  0.8864208E-009  0.1501670E+03  0.7561462E-02  0.1096708E+00
         22   -1    0    0    0    0  0.00000000000E+00  0.00000000000E+00  0.10519865863E+04  0.10519865863E+04  0.00000000000E+00 0.  1.
         22   -1    0    0    0    0 -0.00000000000E+00 -0.00000000000E+00 -0.25611711163E+03  0.25611711163E+03  0.00000000000E+00 0.  1.
         24    2    1    2    0    0 -0.49905125289E+02 -0.65230490911E+02 -0.17133319688E+03  0.20718159693E+03  0.82605152857E+02 0.  0.
         25    2    1    2    0    0  0.18644867042E+02  0.94843235154E+02  0.32327179847E+02  0.16134181614E+03  0.12507303769E+03 0.  0.
        -24    2    1    2    0    0  0.31260258247E+02 -0.29612744243E+02  0.93487549166E+03  0.93958028482E+03  0.83455427300E+02 0.  0.
        -13    1    3    3    0    0  0.78639823671E+01 -0.28764529117E+02 -0.11449029734E+03  0.11831005257E+03  0.00000000000E+00 0.  1.
         14    1    3    3    0    0 -0.57769107656E+02 -0.36465961794E+02 -0.56842899542E+02  0.88871544362E+02  0.00000000000E+00 0. -1.
         13    1    5    5    0    0  0.62812179703E+01  0.78559281420E+01  0.12222625097E+02  0.15829146232E+02  0.00000000000E+00 0. -1.
        -14    1    5    5    0    0  0.24979040277E+02 -0.37468672385E+02  0.92265286656E+03  0.92375113859E+03  0.00000000000E+00 0.  1.
          5    1    4    4  501    0  0.35846426181E+02  0.11167212728E+03  0.53536739353E+02  0.12899335309E+03  0.41800000000E+01 0.  1.
         -5    1    4    4    0  501 -0.17201559139E+02 -0.16828892127E+02 -0.21209559507E+02  0.32348463047E+02  0.41800000000E+01 0.  1.
</event>
<event>
11    1  0.8864208E-009  0.1698527E+03  0.7561462E-02  0.1078160E+00
         22   -1    0    0    0    0  0.00000000000E+00  0.00000000000E+00  0.82710830996E+03  0.82710830996E+03  0.00000000000E+00 0. -1.
         22   -1    0    0    0    0 -0.00000000000E+00 -0.00000000000E+00 -0.98520030765E+02  0.98520030765E+02  0.00000000000E+00 0.  1.
        -24    2    1    2    0    0 -0.19718736090E+02 -0.15402279212E+02 -0.42356514766E+02  0.90559996571E+02  0.76032755297E+02 0.  0.
         25    2    1    2    0    0  0.12336803418E+03  0.41532309667E+02  0.36857896771E+03  0.41041828144E+03  0.12509238865E+03 0.  0.
         24    2    1    2    0    0 -0.10364929809E+03 -0.26130030455E+02  0.40236582625E+03  0.42465006272E+03  0.83686690363E+02 0.  0.
        -11    1    5    5    0    0 -0.50212516783E+02  0.23854604739E+02  0.10976937129E+03  0.12304330085E+03  0.00000000000E+00 0.  1.
         12    1    5    5    0    0 -0.53436781307E+02 -0.49984635194E+02  0.29259645496E+03  0.30160676187E+03  0.00000000000E+00 0. -1.
         13    1    3    3    0    0 -0.38492750436E+01  0.39823870913E+01  0.21375281158E+02  0.22081190410E+02  0.00000000000E+00 0. -1.
        -14    1    3    3    0    0 -0.15869461046E+02 -0.19384666304E+02 -0.63731795924E+02  0.68478806162E+02  0.00000000000E+00 0.  1.
          5    1    4    4  501    0 -0.21208728920E+02  0.56364934985E+01  0.10754089498E+03  0.10983668210E+03  0.41800000000E+01 0.  1.
         -5    1    4    4    0  501  0.14457676310E+03  0.35895816168E+02  0.26103807272E+03  0.30058159933E+03  0.41800000000E+01 0.  1.
</event>
<event>
11    1  0.8864208E-009  0.1508137E+03  0.7561462E-02  0.1096050E+00
         22   -1    0    0    0    0  0.00000000000E+00  0.00000000000E+00  0.90483812719E+03  0.90483812719E+03  0.00000000000E+00 0.  1.
         22   -1    0    0    0    0 -0.00000000000E+00 -0.00000000000E+00 -0.15217957674E+04  0.15217957674E+04  0.00000000000E+00 0. -1.
         24    2    1    2    0    0 -0.11388772246E+02 -0.60934063716E+02 -0.13672789698E+04  0.13707575826E+04  0.75378409232E+02 0.  0.
         25    2    1    2    0    0  0.84230205211E+02  0.10118604673E+03 -0.93443541593E+02  0.20423499587E+03  0.12508754754E+03 0.  0.
        -24    2    1    2    0    0 -0.72841432965E+02 -0.40251983016E+02  0.84376487126E+03  0.85164131610E+03  0.80172793504E+02 0.  0.
        -11    1    3    3    0    0  0.20510740966E+02  0.75684009305E+01 -0.27475688236E+03  0.27562531740E+03  0.00000000000E+00 0.  1.
         12    1    3    3    0    0 -0.31899513212E+02 -0.68502464646E+02 -0.10925220875E+04  0.10951322652E+04  0.00000000000E+00 0. -1.
         11    1    5    5    0    0 -0.58805388845E+02 -0.11189317303E+02  0.25259293040E+03  0.25958902725E+03  0.00000000000E+00 0. -1.
        -12    1    5    5    0    0 -0.14036044120E+02 -0.29062665713E+02  0.59117194086E+03  0.59205228885E+03  0.00000000000E+00 0.  1.
          5    1    4    4  501    0  0.98932665574E+02  0.29693594121E+02 -0.30551173032E+02  0.10779716333E+03  0.41800000000E+01 0. -1.
         -5    1    4    4    0  501 -0.14702460363E+02  0.71492452611E+02 -0.62892368561E+02  0.96437832536E+02  0.41800000000E+01 0. -1.
</event>
<event>
11    1  0.8864208E-009  0.1380958E+03  0.7561462E-02  0.1109704E+00
         22   -1    0    0    0    0  0.00000000000E+00  0.00000000000E+00  0.30776388895E+03  0.30776388895E+03  0.00000000000E+00 0. -1.
         22   -1    0    0    0    0 -0.00000000000E+00 -0.00000000000E+00 -0.69665410536E+03  0.69665410536E+03  0.00000000000E+00 0.  1.
        -24    2    1    2    0    0 -0.27312588532E+02  0.49730743608E+02 -0.40219195731E+03  0.41402205352E+03  0.80229457928E+02 0.  0.
         25    2    1    2    0    0  0.67648104493E+02 -0.31530810068E+02 -0.26212716288E+03  0.29987857319E+03  0.12508417611E+03 0.  0.
         24    2    1    2    0    0 -0.40335515961E+02 -0.18199933541E+02  0.27542890378E+03  0.29051736760E+03  0.81123784504E+02 0.  0.
        -11    1    5    5    0    0  0.79269492482E+01 -0.35036248402E+02  0.68249968360E+02  0.77126087724E+02  0.00000000000E+00 0.  1.
         12    1    5    5    0    0 -0.48262465209E+02  0.16836314861E+02  0.20717893542E+03  0.21339127988E+03  0.00000000000E+00 0. -1.
         11    1    3    3    0    0  0.18134950419E+02 -0.11898346857E+02 -0.89198066840E+02  0.91797288699E+02  0.00000000000E+00 0. -1.
        -12    1    3    3    0    0 -0.45447538951E+02  0.61629090466E+02 -0.31299389047E+03  0.32222476482E+03  0.00000000000E+00 0.  1.
          5    1    4    4  501    0  0.62914281345E+02 -0.73545856374E+02 -0.21834238107E+03  0.23886830589E+03  0.41800000000E+01 0. -1.
         -5    1    4    4    0  501  0.47338231483E+01  0.42015046306E+02 -0.43784781810E+02  0.61010267299E+02  0.41800000000E+01 0. -1.
</event>
<event>
11    1  0.8864208E-009  0.1990926E+03  0.7561462E-02  0.1055167E+00
         22   -1    0    0    0    0  0.00000000000E+00  0.00000000000E+00  0.17006937870E+03  0.17006937870E+03  0.00000000000E+00 0.  1.
         22   -1    0    0    0    0 -0.00000000000E+00 -0.00000000000E+00 -0.20053949446E+04  0.20053949446E+04  0.00000000000E+00 0.  1.
        -24    2    1    2    0    0 -0.11683010873E+01 -0.59128643632E+01 -0.17828384605E+04  0.17847381927E+04  0.82104283330E+02 0.  0.
         25    2    1    2    0    0  0.15265939024E+03  0.34230977602E+02 -0.77562389242E+02  0.21480292385E+03  0.12509085744E+03 0.  0.
         24    2    1    2    0    0 -0.15149108915E+03 -0.28318113239E+02  0.25075283859E+02  0.17592320674E+03  0.81047758632E+02 0.  0.
        -13    1    5    5    0    0 -0.15211283419E+03 -0.18526008572E+02  0.39714824637E+02  0.15829969872E+03  0.00000000000E+00 0.  1.
         14    1    5    5    0    0  0.62174503863E+00 -0.97921046672E+01 -0.14639540779E+02  0.17623508020E+02  0.00000000000E+00 0. -1.
         11    1    3    3    0    0 -0.10790775711E+02 -0.30986679817E+02 -0.32495117975E+03  0.32660355844E+03  0.00000000000E+00 0. -1.
        -12    1    3    3    0    0  0.96224746237E+01  0.25073815454E+02 -0.14578872808E+04  0.14581346343E+04  0.00000000000E+00 0.  1.
          5    1    4    4  501    0  0.15500107406E+03  0.30952792104E+02 -0.22821582458E+02  0.15975514178E+03  0.41800000000E+01 0. -1.
         -5    1    4    4    0  501 -0.23416838270E+01  0.32781854978E+01 -0.54740806784E+02  0.55047782069E+02  0.41800000000E+01 0. -1.
</event>
<event>
11    1  0.8864208E-009  0.1338732E+03  0.7561462E-02  0.1114600E+00
         22   -1    0    0    0    0  0.00000000000E+00  0.00000000000E+00  0.13082943773E+04  0.13082943773E+04  0.00000000000E+00 0. -1.
         22   -1    0    0    0    0 -0.00000000000E+00 -0.00000000000E+00 -0.50206034612E+03  0.50206034612E+03  0.00000000000E+00 0.  1.
        -24    2    1    2    0    0  0.11656341608E+02 -0.50913245803E+02 -0.40774534608E+03  0.41982239277E+03  0.85244033944E+02 0.  0.
         25    2    1    2    0    0 -0.17860111836E+02  0.88878661511E+01 -0.40174316852E+02  0.13288539814E+03  0.12508627241E+03 0.  0.
         24    2    1    2    0    0  0.62037702279E+01  0.42025379651E+02  0.12541536941E+04  0.12576469325E+04  0.83484723876E+02 0.  0.
        -13    1    5    5    0    0 -0.33322039998E+02  0.39736671319E+02  0.57232478931E+03  0.57466949272E+03  0.00000000000E+00 0.  1.
         14    1    5    5    0    0  0.39525810226E+02  0.22887083321E+01  0.68182890479E+03  0.68297743980E+03  0.00000000000E+00 0. -1.
         13    1    3    3    0    0  0.39987401563E+02  0.19033484683E+01 -0.16125481663E+03  0.16614972436E+03  0.00000000000E+00 0. -1.
        -14    1    3    3    0    0 -0.28331059955E+02 -0.52816594271E+02 -0.24649052945E+03  0.25367266841E+03  0.00000000000E+00 0.  1.
          5    1    4    4  501    0  0.24480827804E+02 -0.33245640883E+02 -0.57168331611E+02  0.70641872193E+02  0.41800000000E+01 0. -1.
         -5    1    4    4    0  501 -0.42340939640E+02  0.42133507034E+02  0.16994014760E+02  0.62243525947E+02  0.41800000000E+01 0. -1.
</event>
<event>
11    1  0.8864208E-009  0.1711770E+03  0.7561462E-02  0.1077012E+00
         22   -1    0    0    0    0  0.00000000000E+00  0.00000000000E+00  0.38659183196E+03  0.38659183196E+03  0.00000000000E+00 0.  1.
         22   -1    0    0    0    0 -0.00000000000E+00 -0.00000000000E+00 -0.25383206714E+03  0.25383206714E+03  0.00000000000E+00 0.  1.
         24    2    1    2    0    0 -0.10171802504E+03  0.55954874983E+02 -0.17923925571E+03  0.22791279948E+03  0.79624297328E+02 0.  0.
         25    2    1    2    0    0  0.12745827526E+03 -0.24323672445E+02  0.19493566855E+03  0.26548788975E+03  0.12508657704E+03 0.  0.
        -24    2    1    2    0    0 -0.25740250219E+02 -0.31631202538E+02  0.11706335197E+03  0.14702320987E+03  0.79049999424E+02 0.  0.
        -11    1    3    3    0    0 -0.10755165565E+03  0.27339173989E+02 -0.13290864450E+03  0.17314588315E+03  0.00000000000E+00 0.  1.
         12    1    3    3    0    0  0.58336306056E+01  0.28615700994E+02 -0.46330611214E+02  0.54766916335E+02  0.00000000000E+00 0. -1.
         11    1    5    5    0    0 -0.33569494485E+02 -0.49185126095E+02  0.11246897471E+03  0.12726098326E+03  0.00000000000E+00 0. -1.
        -12    1    5    5    0    0  0.78292442654E+01  0.17553923557E+02  0.45943772692E+01  0.19762226608E+02  0.00000000000E+00 0.  1.
          5    1    4    4  501    0  0.69096584138E+02 -0.75252069580E+02  0.11968719762E+03  0.15741572218E+03  0.41800000000E+01 0. -1.
         -5    1    4    4    0  501  0.58361691125E+02  0.50928397134E+02  0.75248470936E+02  0.10807216757E+03  0.41800000000E+01 0. -1.
</event>
<event>
11    1  0.8864208E-009  0.2133465E+03  0.7561462E-02  0.1045467E+00
         22   -1    0    0    0    0  0.00000000000E+00  0.00000000000E+00  0.12217616644E+04  0.12217616644E+04  0.00000000000E+00 0.  1.
         22   -1    0    0    0    0 -0.00000000000E+00 -0.00000000000E+00 -0.76542656234E+02  0.76542656234E+02  0.00000000000E+00 0.  1.
        -24    2    1    2    0    0  0.13868873425E+03 -0.30630937785E+02  0.21406117530E+03  0.27016395808E+03  0.83627496180E+02 0.  0.
         25    2    1    2    0    0 -0.20335720312E+03  0.11363984882E+03  0.39162778676E+03  0.47253423857E+03  0.12509242965E+03 0.  0.
         24    2    1    2    0    0  0.64668468868E+02 -0.83008911035E+02  0.53953004611E+03  0.55560612399E+03  0.80827001586E+02 0.  0.
        -13    1    5    5    0    0  0.78982631879E+02 -0.85044228134E+02  0.44083694705E+03  0.45585961739E+03  0.00000000000E+00 0.  1.
         14    1    5    5    0    0 -0.14314163011E+02  0.20353170993E+01  0.98693099057E+02  0.99746506605E+02  0.00000000000E+00 0. -1.
         11    1    3    3    0    0  0.16133931811E+02 -0.38762273106E+02  0.55965780224E+02  0.69964177463E+02  0.00000000000E+00 0. -1.
        -12    1    3    3    0    0  0.12255480244E+03  0.81313353202E+01  0.15809539508E+03  0.20019978062E+03  0.00000000000E+00 0.  1.
          5    1    4    4  501    0 -0.46272799053E+01  0.56124964842E+02  0.10186284994E+03  0.11646860519E+03  0.41800000000E+01 0.  1.
         -5    1    4    4    0  501 -0.19872992321E+03  0.57514883978E+02  0.28976493682E+03  0.35606563338E+03  0.41800000000E+01 0.  1.
</event>
<event>
11    1  0.8864208E-009  0.2652455E+03  0.7561462E-02  0.1016077E+00
         22   -1    0    0    0    0  0.00000000000E+00  0.00000000000E+00  0.86406194325E+03  0.86406194325E+03  0.00000000000E+00 0. -1.
         22   -1    0    0    0    0 -0.00000000000E+00 -0.00000000000E+00 -0.18395634203E+03  0.18395634203E+03  0.00000000000E+00 0. -1.
        -24    2    1    2    0    0  0.19754403035E+03  0.16275046737E+03 -0.32696260841E+01  0.26743559443E+03  0.77458041287E+02 0.  0.
         25    2    1    2    0    0 -0.13434046159E+03 -0.12665442953E+03  0.25502700151E+03  0.33878462467E+03  0.12509015259E+03 0.  0.
         24    2    1    2    0    0 -0.63203568754E+02 -0.36096037837E+02  0.42834822580E+03  0.44179806618E+03  0.80035702530E+02 0.  0.
        -11    1    5    5    0    0 -0.41387397215E+02  0.16672385440E+02  0.11623938025E+03  0.12450894990E+03  0.00000000000E+00 0.  1.
         12    1    5    5    0    0 -0.21816171540E+02 -0.52768423277E+02  0.31210884555E+03  0.31728911628E+03  0.00000000000E+00 0. -1.
         13    1    3    3    0    0  0.17232041927E+03  0.13982278948E+03  0.24781079225E+02  0.22329093408E+03  0.00000000000E+00 0. -1.
        -14    1    3    3    0    0  0.25223611079E+02  0.22927677885E+02 -0.28050705309E+02  0.44144660350E+02  0.00000000000E+00 0.  1.
          5    1    4    4  501    0 -0.15599504413E+03 -0.96193174410E+02  0.19251826459E+03  0.26583516546E+03  0.41800000000E+01 0. -1.
         -5    1    4    4    0  501  0.21654582533E+02 -0.30461255121E+02  0.62508736914E+02  0.72949459208E+02  0.41800000000E+01 0. -1.
</event>
<event>
11    1  0.8864208E-009  0.1889673E+03  0.7561462E-02  0.1062612E+00
         22   -1    0    0    0    0  0.00000000000E+00  0.00000000000E+00  0.23377413818E+04  0.23377413818E+04  0.00000000000E+00 0. -1.
         22   -1    0    0    0    0 -0.00000000000E+00 -0.00000000000E+00 -0.68065075845E+03  0.68065075845E+03  0.00000000000E+00 0. -1.
         24    2    1    2    0    0 -0.11596597820E+02 -0.14711909935E+03 -0.41851596708E+03  0.45103097234E+03  0.80590401613E+02 0.  0.
         25    2    1    2    0    0  0.13907337124E+03  0.98152025848E+02 -0.19720901950E+03  0.28899173621E+03  0.12509837514E+03 0.  0.
        -24    2    1    2    0    0 -0.12747677342E+03  0.48967073503E+02  0.22728156099E+04  0.22783694317E+04  0.81414792981E+02 0.  0.
        -11    1    3    3    0    0 -0.29464885415E+02 -0.36787841107E+02 -0.65160836090E+02  0.80420515329E+02  0.00000000000E+00 0.  1.
         12    1    3    3    0    0  0.17868287594E+02 -0.11033125824E+03 -0.35335513100E+03  0.37061045701E+03  0.00000000000E+00 0. -1.
         13    1    5    5    0    0 -0.13611876157E+03  0.34706937169E+02  0.21194359639E+04  0.21240860843E+04  0.00000000000E+00 0. -1.
        -14    1    5    5    0    0  0.86419881477E+01  0.14260136334E+02  0.15337964604E+03  0.15428334734E+03  0.00000000000E+00 0.  1.
          5    1    4    4  501    0  0.15702413218E+03  0.10660583905E+03 -0.18622883151E+03  0.26593238444E+03  0.41800000000E+01 0.  1.
         -5    1    4    4    0  501 -0.17950760939E+02 -0.84538132053E+01 -0.10980187982E+02  0.23059351772E+02  0.41800000000E+01 0.  1.
</event>
<event>
11    1  0.8864208E-009  0.1722258E+03  0.7561462E-02  0.1076111E+00
         22   -1    0    0    0    0  0.00000000000E+00  0.00000000000E+00  0.29487947993E+03  0.29487947993E+03  0.00000000000E+00 0. -1.
         22   -1    0    0    0    0 -0.00000000000E+00 -0.00000000000E+00 -0.81128233054E+03  0.81128233054E+03  0.00000000000E+00 0.  1.
         24    2    1    2    0    0 -0.20175777780E+02 -0.19273271010E+01 -0.72220835514E+03  0.72683939303E+03  0.79371395508E+02 0.  0.
         25    2    1    2    0    0 -0.37987924103E+02  0.10837432214E+03  0.84654089229E+02  0.18974193638E+03  0.12509041339E+03 0.  0.
        -24    2    1    2    0    0  0.58163701883E+02 -0.10644699504E+03  0.12115141530E+03  0.18958048106E+03  0.80926598857E+02 0.  0.
        -13    1    3    3    0    0 -0.20000283679E+02 -0.35743686884E+02 -0.53769321167E+03  0.53925097346E+03  0.00000000000E+00 0.  1.
         14    1    3    3    0    0 -0.17549410079E+00  0.33816359783E+02 -0.18451514347E+03  0.18758841957E+03  0.00000000000E+00 0. -1.
         13    1    5    5    0    0  0.73934890038E+02 -0.10537198576E+03  0.11502236641E+03  0.17262609340E+03  0.00000000000E+00 0. -1.
        -14    1    5    5    0    0 -0.15771188156E+02 -0.10750092753E+01  0.61290488904E+01  0.16954387665E+02  0.00000000000E+00 0.  1.
          5    1    4    4  501    0 -0.74806400462E+01  0.11022869300E+03  0.12494412423E+02  0.11126503259E+03  0.41800000000E+01 0.  1.
         -5    1    4    4    0  501 -0.30507284057E+02 -0.18543708614E+01  0.72159676806E+02  0.78476903791E+02  0.41800000000E+01 0.  1.
</event>
<event>
11    1  0.8864208E-009  0.1327755E+03  0.7561462E-02  0.1115905E+00
         22   -1    0    0    0    0  0.00000000000E+00  0.00000000000E+00  0.12404581994E+04  0.12404581994E+04  0.00000000000E+00 0. -1.
         22   -1    0    0    0    0 -0.00000000000E+00 -0.00000000000E+00 -0.58436864331E+03  0.58436864331E+03  0.00000000000E+00 0. -1.
        -24    2    1    2    0    0 -0.37313452548E+02 -0.24874558054E+01 -0.54452944123E+03  0.55122369731E+03  0.77050444100E+02 0.  0.
         25    2    1    2    0    0  0.55644119612E+02 -0.37277786549E+02  0.11091414692E+03  0.18009763663E+03  0.12508920544E+03 0.  0.
         24    2    1    2    0    0 -0.18330667064E+02  0.39765242354E+02  0.10897048504E+04  0.10935055088E+04  0.79877086029E+02 0.  0.
        -13    1    5    5    0    0 -0.36070467986E+02  0.36112714532E+01  0.22833032505E+03  0.23119008906E+03  0.00000000000E+00 0.  1.
         14    1    5    5    0    0  0.17739800922E+02  0.36153970901E+02  0.86137452536E+03  0.86231541972E+03  0.00000000000E+00 0. -1.
         11    1    3    3    0    0 -0.60463160263E+01 -0.20356628473E+02 -0.44278191928E+03  0.44329085069E+03  0.00000000000E+00 0. -1.
        -12    1    3    3    0    0 -0.31267136521E+02  0.17869172668E+02 -0.10174752194E+03  0.10793284662E+03  0.00000000000E+00 0.  1.
          5    1    4    4  501    0 -0.70474077974E+01 -0.19105746786E+02 -0.23037567408E+02  0.31030588602E+02  0.41800000000E+01 0. -1.
         -5    1    4    4    0  501  0.62691527409E+02 -0.18172039763E+02  0.13395171433E+03  0.14906704803E+03  0.41800000000E+01 0. -1.
</event>
<event>
11    1  0.8864208E-009  0.1445006E+03  0.7561462E-02  0.1102634E+00
         22   -1    0    0    0    0  0.00000000000E+00  0.00000000000E+00  0.42977903570E+03  0.42977903570E+03  0.00000000000E+00 0.  1.
         22   -1    0    0    0    0 -0.00000000000E+00 -0.00000000000E+00 -0.18260782726E+03  0.18260782726E+03  0.00000000000E+00 0. -1.
         24    2    1    2    0    0 -0.80823823325E+02 -0.15529646030E+02 -0.56000981383E+02  0.12734283739E+03  0.79413021582E+02 0.  0.
         25    2    1    2    0    0  0.53037887440E+02  0.23021936830E+02 -0.30083910126E+02  0.14104821955E+03  0.12508609639E+03 0.  0.
        -24    2    1    2    0    0  0.27785935885E+02 -0.74922908002E+01  0.33325609994E+03  0.34399580601E+03  0.80282586838E+02 0.  0.
        -13    1    3    3    0    0 -0.26750099195E+02  0.29480053269E+02 -0.43105599757E+01  0.40040258179E+02  0.00000000000E+00 0.  1.
         14    1    3    3    0    0 -0.54073724130E+02 -0.45009699299E+02 -0.51690421408E+02  0.87302579215E+02  0.00000000000E+00 0. -1.
         11    1    5    5    0    0  0.27284166089E+02  0.19921205592E+02  0.56098156229E+02  0.65484985178E+02  0.00000000000E+00 0. -1.
        -12    1    5    5    0    0  0.50176979612E+00 -0.27413496393E+02  0.27715794372E+03  0.27851082084E+03  0.00000000000E+00 0.  1.
          5    1    4    4  501    0 -0.10394584950E+02 -0.41961071781E+02  0.47641313231E+01  0.43691512775E+02  0.41800000000E+01 0.  1.
         -5    1    4    4    0  501  0.63432472390E+02  0.64983008611E+02 -0.34848041449E+02  0.97356706777E+02  0.41800000000E+01 0.  1.
</event>
<event>
11    1  0.8864208E-009  0.1616978E+03  0.7561462E-02  0.1085491E+00
         22   -1    0    0    0    0  0.00000000000E+00  0.00000000000E+00  0.15755698105E+04  0.15755698105E+04  0.00000000000E+00 0. -1.
         22   -1    0    0    0    0 -0.00000000000E+00 -0.00000000000E+00 -0.97781071433E+02  0.97781071433E+02  0.00000000000E+00 0.  1.
         24    2    1    2    0    0 -0.32326556996E+02  0.16787855207E+02 -0.68243608008E+01  0.10057458055E+03  0.93497785981E+02 0.  0.
         25    2    1    2    0    0  0.11589274734E+03  0.40349762555E+02  0.14629682058E+03  0.22827430054E+03  0.12508862600E+03 0.  0.
        -24    2    1    2    0    0 -0.83566190341E+02 -0.57137617762E+02  0.13383162793E+04  0.13445020008E+04  0.79669010920E+02 0.  0.
        -11    1    3    3    0    0 -0.41123949638E+02 -0.20104903319E+02 -0.31283947517E+02  0.55444312093E+02  0.00000000000E+00 0.  1.
         12    1    3    3    0    0  0.87973926410E+01  0.36892758526E+02  0.24459586716E+02  0.45130268460E+02  0.00000000000E+00 0. -1.
         13    1    5    5    0    0 -0.42239399862E+02  0.93855514384E+01  0.28356489754E+03  0.28684718335E+03  0.00000000000E+00 0. -1.
        -14    1    5    5    0    0 -0.41326790479E+02 -0.66523169201E+02  0.10547513817E+04  0.10576548175E+04  0.00000000000E+00 0.  1.
          5    1    4    4  501    0  0.14212242683E+03  0.25596537126E+02  0.11496746421E+03  0.18463195050E+03  0.41800000000E+01 0. -1.
         -5    1    4    4    0  501 -0.26229679490E+02  0.14753225429E+02  0.31329356367E+02  0.43642350041E+02  0.41800000000E+01 0. -1.
</event>
<event>
11    1  0.8864208E-009  0.1616980E+03  0.7561462E-02  0.1085491E+00
         22   -1    0    0    0    0  0.00000000000E+00  0.00000000000E+00  0.24650990237E+04  0.24650990237E+04  0.00000000000E+00 0.  1.
         22   -1    0    0    0    0 -0.00000000000E+00 -0.00000000000E+00 -0.82182415275E+03  0.82182415275E+03  0.00000000000E+00 0. -1.
        -24    2    1    2    0    0 -0.89813152063E+02  0.50434539471E+02 -0.79695138609E+03  0.80755261935E+03  0.79997976112E+02 0.  0.
         25    2    1    2    0    0  0.16914977994E+02 -0.10194677337E+03  0.34984746499E+03  0.38564146753E+03  0.12508729608E+03 0.  0.
         24    2    1    2    0    0  0.72898174068E+02  0.51512233898E+02  0.20903787920E+04  0.20937290895E+04  0.77784010089E+02 0.  0.
        -11    1    5    5    0    0  0.85624253768E+02  0.52054033002E+02  0.19934499406E+04  0.19959668838E+04  0.00000000000E+00 0.  1.
         12    1    5    5    0    0 -0.12726079700E+02 -0.54179910477E+00  0.96928851367E+02  0.97762205776E+02  0.00000000000E+00 0. -1.
         13    1    3    3    0    0 -0.10143012356E+03  0.54510979583E+02 -0.75815277669E+03  0.76684754004E+03  0.00000000000E+00 0. -1.
        -14    1    3    3    0    0  0.11616971499E+02 -0.40764401125E+01 -0.38798609400E+02  0.40705079316E+02  0.00000000000E+00 0.  1.
          5    1    4    4  501    0  0.37528368986E+02 -0.16730151369E+02  0.24700849425E+03  0.25043750733E+03  0.41800000000E+01 0. -1.
         -5    1    4    4    0  501 -0.20613390991E+02 -0.85216622000E+02  0.10283897073E+03  0.13520396020E+03  0.41800000000E+01 0. -1.
</event>
<event>
11    1  0.8864208E-009  0.1529581E+03  0.7561462E-02  0.1093894E+00
         22   -1    0    0    0    0  0.00000000000E+00  0.00000000000E+00  0.47735052000E+03  0.47735052000E+03  0.00000000000E+00 0. -1.
         22   -1    0    0    0    0 -0.00000000000E+00 -0.00000000000E+00 -0.51469495407E+03  0.51469495407E+03  0.00000000000E+00 0.  1.
        -24    2    1    2    0    0  0.87365525329E+02 -0.45015515440E+02 -0.37448576395E+03  0.39516440679E+03  0.79096076716E+02 0.  0.
         25    2    1    2    0    0 -0.59680580332E+02 -0.12323400255E+02 -0.84300209598E+02  0.16268939033E+03  0.12509066522E+03 0.  0.
         24    2    1    2    0    0 -0.27684944997E+02  0.57338915695E+02  0.42144153947E+03  0.43419167695E+03  0.82796338735E+02 0.  0.
        -13    1    5    5    0    0 -0.37700674337E+02  0.21109825796E+02  0.82111271607E+02  0.92785917657E+02  0.00000000000E+00 0.  1.
         14    1    5    5    0    0  0.10015729340E+02  0.36229089899E+02  0.33933026786E+03  0.34140575929E+03  0.00000000000E+00 0. -1.
         11    1    3    3    0    0  0.17744244881E+02  0.14688567572E+02 -0.16338631215E+03  0.16500211890E+03  0.00000000000E+00 0. -1.
        -12    1    3    3    0    0  0.69621280448E+02 -0.59704083012E+02 -0.21109945180E+03  0.23016228789E+03  0.00000000000E+00 0.  1.
          5    1    4    4  501    0 -0.57709513897E+02  0.43956078566E+02 -0.76795611482E+02  0.10572399529E+03  0.41800000000E+01 0. -1.
         -5    1    4    4    0  501 -0.19710664353E+01 -0.56279478820E+02 -0.75045981165E+01  0.56965395040E+02  0.41800000000E+01 0. -1.
</event>
<event>
11    1  0.8864208E-009  0.1546851E+03  0.7561462E-02  0.1092185E+00
         22   -1    0    0    0    0  0.00000000000E+00  0.00000000000E+00  0.80163545615E+03  0.80163545615E+03  0.00000000000E+00 0.  1.
         22   -1    0    0    0    0 -0.00000000000E+00 -0.00000000000E+00 -0.28126378757E+04  0.28126378757E+04  0.00000000000E+00 0. -1.
        -24    2    1    2    0    0 -0.27493775736E+02 -0.26605247911E+02 -0.27609023466E+04  0.27623583266E+04  0.81104933028E+02 0.  0.
         25    2    1    2    0    0 -0.61310537873E+02 -0.67659072539E+01  0.61893595851E+02  0.15259076878E+03  0.12509342890E+03 0.  0.
         24    2    1    2    0    0  0.88804313609E+02  0.33371155165E+02  0.68800633120E+03  0.69932423647E+03  0.81864741119E+02 0.  0.
        -11    1    5    5    0    0  0.75948876130E+02  0.57362666508E+02  0.58918433182E+03  0.59682232210E+03  0.00000000000E+00 0.  1.
         12    1    5    5    0    0  0.12855437478E+02 -0.23991511343E+02  0.98821999373E+02  0.10250191437E+03  0.00000000000E+00 0. -1.
         11    1    3    3    0    0 -0.55890750594E+02 -0.15566695710E+02 -0.15854516431E+04  0.15865128461E+04  0.00000000000E+00 0. -1.
        -12    1    3    3    0    0  0.28396974858E+02 -0.11038552202E+02 -0.11754507034E+04  0.11758454805E+04  0.00000000000E+00 0.  1.
          5    1    4    4  501    0 -0.73177514284E+02  0.36432369279E+00  0.92925759042E+02  0.11835434264E+03  0.41800000000E+01 0.  1.
         -5    1    4    4    0  501  0.11866976412E+02 -0.71302309467E+01 -0.31032163190E+02  0.34236426139E+02  0.41800000000E+01 0.  1.
</event>
<event>
11    1  0.8864208E-009  0.1322354E+03  0.7561462E-02  0.1116553E+00
         22   -1    0    0    0    0  0.00000000000E+00  0.00000000000E+00  0.78366745505E+03  0.78366745505E+03  0.00000000000E+00 0. -1.
         22   -1    0    0    0    0 -0.00000000000E+00 -0.00000000000E+00 -0.79843678155E+03  0.79843678155E+03  0.00000000000E+00 0. -1.
        -24    2    1    2    0    0 -0.41812556032E+02 -0.14930646468E+02 -0.74242466169E+03  0.74984635776E+03  0.95414715366E+02 0.  0.
         25    2    1    2    0    0  0.90443847327E+01  0.62650658400E+01  0.29797293596E+02  0.12905609968E+03  0.12508615516E+03 0.  0.
         24    2    1    2    0    0  0.32768171300E+02  0.86655806283E+01  0.69785804159E+03  0.70320177917E+03  0.79611875228E+02 0.  0.
        -11    1    5    5    0    0  0.12932893605E+02 -0.27887172620E+02  0.12089880514E+03  0.12474564208E+03  0.00000000000E+00 0.  1.
         12    1    5    5    0    0  0.19835277695E+02  0.36552753248E+02  0.57695923645E+03  0.57845613709E+03  0.00000000000E+00 0. -1.
         11    1    3    3    0    0 -0.25186770995E+02 -0.34336776606E+02 -0.69206744988E+03  0.69337633565E+03  0.00000000000E+00 0. -1.
        -12    1    3    3    0    0 -0.16625785037E+02  0.19406130138E+02 -0.50357211815E+02  0.56470022107E+02  0.00000000000E+00 0.  1.
          5    1    4    4  501    0  0.60561580594E+02 -0.23974540752E+02  0.20792344014E+02  0.68500201590E+02  0.41800000000E+01 0. -1.
         -5    1    4    4    0  501 -0.51517195861E+02  0.30239606592E+02  0.90049495827E+01  0.60555898088E+02  0.41800000000E+01 0. -1.
</event>
<event>
11    1  0.8864208E-009  0.1384249E+03  0.7561462E-02  0.1109330E+00
         22   -1    0    0    0    0  0.00000000000E+00  0.00000000000E+00  0.53955551683E+03  0.53955551683E+03  0.00000000000E+00 0. -1.
         22   -1    0    0    0    0 -0.00000000000E+00 -0.00000000000E+00 -0.33518792773E+03  0.33518792773E+03  0.00000000000E+00 0. -1.
        -24    2    1    2    0    0  0.54928248610E+02 -0.25941582741E+02 -0.27855937158E+03  0.29573771403E+03  0.78583673845E+02 0.  0.
         25    2    1    2    0    0 -0.28289592783E+02  0.38361373958E+02  0.58582475350E+02  0.14610510808E+03  0.12507157998E+03 0.  0.
         24    2    1    2    0    0 -0.26638655827E+02 -0.12419791217E+02  0.42434448533E+03  0.43290062245E+03  0.80441515978E+02 0.  0.
        -11    1    5    5    0    0 -0.24050780169E+02  0.12102730998E+02  0.42827988562E+02  0.50588069034E+02  0.00000000000E+00 0.  1.
         12    1    5    5    0    0 -0.25878756580E+01 -0.24522522215E+02  0.38151649677E+03  0.38231255342E+03  0.00000000000E+00 0. -1.
         11    1    3    3    0    0 -0.78286595296E+01  0.71361671990E+01 -0.13688901849E+03  0.13729827448E+03  0.00000000000E+00 0. -1.
        -12    1    3    3    0    0  0.62756908139E+02 -0.33077749940E+02 -0.14167035309E+03  0.15843943955E+03  0.00000000000E+00 0.  1.
          5    1    4    4  501    0  0.29698142271E+02  0.46125651473E+01  0.71481308347E+02  0.77655040111E+02  0.41800000000E+01 0. -1.
         -5    1    4    4    0  501 -0.57987735054E+02  0.33748808811E+02 -0.12898832997E+02  0.68450067973E+02  0.41800000000E+01 0. -1.
</event>
<event>
11    1  0.8864208E-009  0.1281905E+03  0.7561462E-02  0.1121512E+00
         22   -1    0    0    0    0  0.00000000000E+00  0.00000000000E+00  0.38817720837E+03  0.38817720837E+03  0.00000000000E+00 0. -1.
         22   -1    0    0    0    0 -0.00000000000E+00 -0.00000000000E+00 -0.34961175657E+04  0.34961175657E+04  0.00000000000E+00 0.  1.
         24    2    1    2    0    0  0.23826519668E+02  0.14314296893E+02 -0.34038144487E+04  0.34049537265E+04  0.83573180502E+02 0.  0.
         25    2    1    2    0    0 -0.29123220429E+02 -0.45694171516E+02 -0.32259181160E+02  0.14008867449E+03  0.12509221667E+03 0.  0.
        -24    2    1    2    0    0  0.52967007609E+01  0.31379874622E+02  0.32813327250E+03  0.33925237308E+03  0.80049837914E+02 0.  0.
        -13    1    3    3    0    0  0.19971637437E+02 -0.34012740901E+02 -0.14284548382E+04  0.14289992854E+04  0.00000000000E+00 0.  1.
         14    1    3    3    0    0  0.38548822318E+01  0.48327037795E+02 -0.19753596105E+04  0.19759544412E+04  0.00000000000E+00 0. -1.
         13    1    5    5    0    0  0.18052727653E+02  0.34361930728E+02  0.32277242097E+03  0.32509795293E+03  0.00000000000E+00 0. -1.
        -14    1    5    5    0    0 -0.12756026892E+02 -0.29820561052E+01  0.53608515247E+01  0.14154420149E+02  0.00000000000E+00 0.  1.
          5    1    4    4  501    0 -0.38936852184E+02  0.24383355111E+02 -0.48953406503E+02  0.67264662882E+02  0.41800000000E+01 0.  1.
         -5    1    4    4    0  501  0.98136317550E+01 -0.70077526626E+02  0.16694225343E+02  0.72824011604E+02  0.41800000000E+01 0.  1.
</event>
<event>
11    1  0.8864208E-009  0.2060315E+03  0.7561462E-02  0.1050339E+00
         22   -1    0    0    0    0  0.00000000000E+00  0.00000000000E+00  0.14961401061E+04  0.14961401061E+04  0.00000000000E+00 0. -1.
         22   -1    0    0    0    0 -0.00000000000E+00 -0.00000000000E+00 -0.67033504775E+03  0.67033504775E+03  0.00000000000E+00 0.  1.
         24    2    1    2    0    0  0.63490774616E+02 -0.10685001651E+03 -0.28055066479E+03  0.31738026183E+03  0.81077435795E+02 0.  0.
         25    2    1    2    0    0 -0.19974045359E+03  0.19443198238E+03 -0.30172929625E+03  0.42940480696E+03  0.12509146835E+03 0.  0.
        -24    2    1    2    0    0  0.13624967897E+03 -0.87581965861E+02  0.14080850194E+04  0.14196900851E+04  0.81129156075E+02 0.  0.
        -13    1    3    3    0    0  0.24056541696E+02 -0.10035054982E+03 -0.23573527786E+03  0.25733260826E+03  0.00000000000E+00 0.  1.
         14    1    3    3    0    0  0.39434232921E+02 -0.64994666915E+01 -0.44815386936E+02  0.60047653572E+02  0.00000000000E+00 0. -1.
         13    1    5    5    0    0  0.13437056138E+03 -0.81702895673E+02  0.10648625097E+04  0.10764120844E+04  0.00000000000E+00 0. -1.
        -14    1    5    5    0    0  0.18791175906E+01 -0.58790701879E+01  0.34322250973E+03  0.34327800065E+03  0.00000000000E+00 0.  1.
          5    1    4    4  501    0 -0.18049957566E+03  0.17617759354E+03 -0.19359247556E+03  0.31798452835E+03  0.41800000000E+01 0. -1.
         -5    1    4    4    0  501 -0.19240877935E+02  0.18254388831E+02 -0.10813682070E+03  0.11142027861E+03  0.41800000000E+01 0. -1.
</event>
<event>
11    1  0.8864208E-009  0.1584747E+03  0.7561462E-02  0.1088521E+00
         22   -1    0    0    0    0  0.00000000000E+00  0.00000000000E+00  0.24870005944E+04  0.24870005944E+04  0.00000000000E+00 0.  1.
         22   -1    0    0    0    0 -0.00000000000E+00 -0.00000000000E+00 -0.57800696180E+02  0.57800696180E+02  0.00000000000E+00 0.  1.
         24    2    1    2    0    0  0.25922463140E+02  0.27981759399E+02 -0.20019528789E+01  0.92023963880E+02  0.83722453133E+02 0.  0.
         25    2    1    2    0    0  0.58084129236E+02 -0.79601419204E+02  0.74609762328E+03  0.76290073731E+03  0.12508285065E+03 0.  0.
        -24    2    1    2    0    0 -0.84006592377E+02  0.51619659805E+02  0.16851042278E+04  0.16898765894E+04  0.79905768840E+02 0.  0.
        -13    1    3    3    0    0  0.12407933906E+02  0.32030980057E+02 -0.39270847254E+02  0.52174131054E+02  0.00000000000E+00 0.  1.
         14    1    3    3    0    0  0.13514529234E+02 -0.40492206578E+01  0.37268894375E+02  0.39849832826E+02  0.00000000000E+00 0. -1.
         13    1    5    5    0    0 -0.32305278814E+02  0.28703760930E+02  0.25359780541E+03  0.25725354000E+03  0.00000000000E+00 0. -1.
        -14    1    5    5    0    0 -0.51701313562E+02  0.22915898875E+02  0.14315064224E+04  0.14326230494E+04  0.00000000000E+00 0.  1.
          5    1    4    4  501    0  0.16924802939E+02 -0.20344319424E+02  0.20557559520E+02  0.33770193082E+02  0.41800000000E+01 0. -1.
         -5    1    4    4    0  501  0.41159326297E+02 -0.59257099780E+02  0.72554006376E+03  0.72913054423E+03  0.41800000000E+01 0. -1.
</event>
<event>
11    1  0.8864208E-009  0.2062771E+03  0.7561462E-02  0.1050171E+00
         22   -1    0    0    0    0  0.00000000000E+00  0.00000000000E+00  0.23505207981E+03  0.23505207981E+03  0.00000000000E+00 0. -1.
         22   -1    0    0    0    0 -0.00000000000E+00 -0.00000000000E+00 -0.24674471869E+04  0.24674471869E+04  0.00000000000E+00 0. -1.
        -24    2    1    2    0    0  0.19992887215E+01  0.16497364943E+03 -0.23386031656E+04  0.23458253282E+04  0.81310527772E+02 0.  0.
         25    2    1    2    0    0  0.39214361196E+02 -0.14172437220E+03 -0.25734735165E+02  0.19476420747E+03  0.12508899279E+03 0.  0.
         24    2    1    2    0    0 -0.41213649917E+02 -0.23249277228E+02  0.13194279370E+03  0.16190973104E+03  0.81035587028E+02 0.  0.
        -13    1    5    5    0    0 -0.32621374272E+02 -0.27416317125E+02  0.15911421828E+02  0.45486062136E+02  0.00000000000E+00 0.  1.
         14    1    5    5    0    0 -0.85922756452E+01  0.41670398962E+01  0.11603137188E+03  0.11642366891E+03  0.00000000000E+00 0. -1.
         11    1    3    3    0    0  0.29783419648E+02  0.99328190570E+02 -0.17211656616E+04  0.17242866282E+04  0.00000000000E+00 0. -1.
        -12    1    3    3    0    0 -0.27784130927E+02  0.65645458861E+02 -0.61743750402E+03  0.62153869997E+03  0.00000000000E+00 0.  1.
          5    1    4    4  501    0 -0.27359324474E+02 -0.24954348035E+01  0.19432253518E+02  0.33909360173E+02  0.41800000000E+01 0. -1.
         -5    1    4    4    0  501  0.66573685670E+02 -0.13922893740E+03 -0.45166988683E+02  0.16085484730E+03  0.41800000000E+01 0. -1.
</event>
<event>
11    1  0.8864208E-009  0.1283287E+03  0.7561462E-02  0.1121340E+00
         22   -1    0    0    0    0  0.00000000000E+00  0.00000000000E+00  0.23754663082E+03  0.23754663082E+03  0.00000000000E+00 0.  1.
         22   -1    0    0    0    0 -0.00000000000E+00 -0.00000000000E+00 -0.67393098266E+03  0.67393098266E+03  0.00000000000E+00 0.  1.
         24    2    1    2    0    0 -0.14179140983E+02  0.87006398028E+01 -0.51655476499E+03  0.52311290650E+03  0.80879778310E+02 0.  0.
         25    2    1    2    0    0  0.40074724979E+02 -0.18663439457E+02 -0.11523422083E+03  0.17572712703E+03  0.12508712951E+03 0.  0.
        -24    2    1    2    0    0 -0.25895583996E+02  0.99627996540E+01  0.19540463397E+03  0.21263757995E+03  0.79132362436E+02 0.  0.
        -11    1    3    3    0    0  0.19655680850E+02  0.98130193573E+01 -0.42387447832E+03  0.42444341732E+03  0.00000000000E+00 0.  1.
         12    1    3    3    0    0 -0.33834821833E+02 -0.11123795546E+01 -0.92680286671E+02  0.98669489176E+02  0.00000000000E+00 0. -1.
         13    1    5    5    0    0 -0.20690596048E+02  0.39248103409E+01  0.44600445823E+01  0.21526655540E+02  0.00000000000E+00 0. -1.
        -14    1    5    5    0    0 -0.52049879477E+01  0.60379893131E+01  0.19094458939E+03  0.19111092441E+03  0.00000000000E+00 0.  1.
          5    1    4    4  501    0  0.39896892473E+02 -0.55606707226E+02 -0.16927830666E+02  0.70625008096E+02  0.41800000000E+01 0.  1.
         -5    1    4    4    0  501  0.17783250675E+00  0.36943267770E+02 -0.98306390159E+02  0.10510211893E+03  0.41800000000E+01 0.  1.
</event>
<event>
11    1  0.8864208E-009  0.1526366E+03  0.7561462E-02  0.1094215E+00
         22   -1    0    0    0    0  0.00000000000E+00  0.00000000000E+00  0.20542617186E+03  0.20542617186E+03  0.00000000000E+00 0.  1.
         22   -1    0    0    0    0 -0.00000000000E+00 -0.00000000000E+00 -0.85686192862E+03  0.85686192862E+03  0.00000000000E+00 0.  1.
        -24    2    1    2    0    0  0.87825466890E+02  0.10380390890E+02 -0.68131615872E+03  0.69148836022E+03  0.78379710650E+02 0.  0.
         25    2    1    2    0    0 -0.80956941106E+02 -0.26771749368E+01 -0.12275329008E+03  0.19307354882E+03  0.12509129246E+03 0.  0.
         24    2    1    2    0    0 -0.68685257840E+01 -0.77032159529E+01  0.15263369204E+03  0.17772619144E+03  0.90460151423E+02 0.  0.
        -13    1    5    5    0    0 -0.45243913638E+02  0.20829286364E+01  0.11280969325E+03  0.12156223593E+03  0.00000000000E+00 0.  1.
         14    1    5    5    0    0  0.38375387854E+02 -0.97861445893E+01  0.39823998786E+02  0.56163955506E+02  0.00000000000E+00 0. -1.
         13    1    3    3    0    0  0.17405777986E-01  0.17746478785E+00  0.22364090338E+01  0.22435066478E+01  0.00000000000E+00 0. -1.
        -14    1    3    3    0    0  0.87808061112E+02  0.10202926102E+02 -0.68355256775E+03  0.68924485357E+03  0.00000000000E+00 0.  1.
          5    1    4    4  501    0 -0.95640871966E+02  0.36018012644E+02 -0.10847491210E+03  0.14909310038E+03  0.41800000000E+01 0.  1.
         -5    1    4    4    0  501  0.14683930860E+02 -0.38695187581E+02 -0.14278377988E+02  0.43980448445E+02  0.41800000000E+01 0.  1.
</event>
<event>
11    1  0.8864208E-009  0.1313902E+03  0.7561462E-02  0.1117573E+00
         22   -1    0    0    0    0  0.00000000000E+00  0.00000000000E+00  0.13355395203E+04  0.13355395203E+04  0.00000000000E+00 0.  1.
         22   -1    0    0    0    0 -0.00000000000E+00 -0.00000000000E+00 -0.69951625077E+03  0.69951625077E+03  0.00000000000E+00 0. -1.
         24    2    1    2    0    0 -0.82242096367E+01 -0.39388843155E-02 -0.57145144674E+03  0.57719824358E+03  0.80829566216E+02 0.  0.
         25    2    1    2    0    0 -0.31149757566E+02 -0.85539765469E+01 -0.89835146761E+02  0.15735914481E+03  0.12509224177E+03 0.  0.
        -24    2    1    2    0    0  0.39373967203E+02  0.85579154312E+01  0.12973098631E+04  0.13004983827E+04  0.81606466675E+02 0.  0.
        -13    1    3    3    0    0 -0.36538875228E+02 -0.32397149583E+00 -0.13588142491E+03  0.14070876304E+03  0.00000000000E+00 0.  1.
         14    1    3    3    0    0  0.28314665592E+02  0.32003261151E+00 -0.43557002183E+03  0.43648948055E+03  0.00000000000E+00 0. -1.
         11    1    5    5    0    0  0.47380155035E+01 -0.16665128905E+02  0.60116990667E+02  0.62563790479E+02  0.00000000000E+00 0. -1.
        -12    1    5    5    0    0  0.34635951700E+02  0.25223044337E+02  0.12371928724E+04  0.12379345922E+04  0.00000000000E+00 0.  1.
          5    1    4    4  501    0  0.80000638096E+01 -0.11824960309E+02  0.28747345226E+02  0.32368394536E+02  0.41800000000E+01 0. -1.
         -5    1    4    4    0  501 -0.39149821376E+02  0.32709837622E+01 -0.11858249199E+03  0.12499075028E+03  0.41800000000E+01 0. -1.
</event>
<event>
11    1  0.8864208E-009  0.2914119E+03  0.7561462E-02  0.1003893E+00
         22   -1    0    0    0    0  0.00000000000E+00  0.00000000000E+00  0.71898783578E+03  0.71898783578E+03  0.00000000000E+00 0. -1.
         22   -1    0    0    0    0 -0.00000000000E+00 -0.00000000000E+00 -0.35265097151E+03  0.35265097151E+03  0.00000000000E+00 0.  1.
         24    2    1    2    0    0  0.20130233698E+03 -0.16915241447E+03 -0.22044810555E+03  0.35262723503E+03  0.81322994606E+02 0.  0.
         25    2    1    2    0    0 -0.18435202286E+03  0.19305746326E+03  0.55101649468E+03  0.62492027548E+03  0.12509724555E+03 0.  0.
        -24    2    1    2    0    0 -0.16950314119E+02 -0.23905048792E+02  0.35768475134E+02  0.94091296790E+02  0.81945248866E+02 0.  0.
        -13    1    3    3    0    0  0.20730267592E+03 -0.16749510533E+03 -0.22120895215E+03  0.34635590115E+03  0.00000000000E+00 0.  1.
         14    1    3    3    0    0 -0.60003389415E+01 -0.16573091367E+01  0.76084660526E+00  0.62713338728E+01  0.00000000000E+00 0. -1.
         11    1    5    5    0    0 -0.36912102346E+02  0.57064027067E+01  0.43723118483E+02  0.57504586089E+02  0.00000000000E+00 0. -1.
        -12    1    5    5    0    0  0.19961788227E+02 -0.29611451498E+02 -0.79546433495E+01  0.36586710700E+02  0.00000000000E+00 0.  1.
          5    1    4    4  501    0 -0.97657375156E+02  0.37686009246E+02  0.29560001116E+03  0.31361447226E+03  0.41800000000E+01 0. -1.
         -5    1    4    4    0  501 -0.86694647702E+02  0.15537145401E+03  0.25541648352E+03  0.31130580322E+03  0.41800000000E+01 0. -1.
</event>
<event>
11    1  0.8864208E-009  0.1423912E+03  0.7561462E-02  0.1104917E+00
         22   -1    0    0    0    0  0.00000000000E+00  0.00000000000E+00  0.97720814979E+03  0.97720814979E+03  0.00000000000E+00 0. -1.
         22   -1    0    0    0    0 -0.00000000000E+00 -0.00000000000E+00 -0.11294324201E+04  0.11294324201E+04  0.00000000000E+00 0.  1.
         24    2    1    2    0    0 -0.13045490552E+02  0.33867745245E+02 -0.10945419561E+04  0.10982884676E+04  0.83055737556E+02 0.  0.
         25    2    1    2    0    0 -0.54948844406E+02 -0.16666625838E+02  0.13067048626E+03  0.18979275231E+03  0.12509740578E+03 0.  0.
        -24    2    1    2    0    0  0.67994334958E+02 -0.17201119407E+02  0.81164719944E+03  0.81855935001E+03  0.79681397038E+02 0.  0.
        -11    1    3    3    0    0 -0.33656397399E+02  0.83782598567E+01 -0.92248373801E+03  0.92313552376E+03  0.00000000000E+00 0.  1.
         12    1    3    3    0    0  0.20610906848E+02  0.25489485388E+02 -0.17205821804E+03  0.17515294386E+03  0.00000000000E+00 0. -1.
         13    1    5    5    0    0  0.83022042906E+02 -0.14720892562E+02  0.54562103460E+03  0.55209752552E+03  0.00000000000E+00 0. -1.
        -14    1    5    5    0    0 -0.15027707948E+02 -0.24802268449E+01  0.26602616484E+03  0.26646182449E+03  0.00000000000E+00 0.  1.
          5    1    4    4  501    0  0.19199318931E+02  0.29571832109E+02  0.82747477259E+02  0.90042903632E+02  0.41800000000E+01 0.  1.
         -5    1    4    4    0  501 -0.74148163338E+02 -0.46238457947E+02  0.47923009000E+02  0.99749848678E+02  0.41800000000E+01 0.  1.
</event>
<event>
11    1  0.8864208E-009  0.1459703E+03  0.7561462E-02  0.1101069E+00
         22   -1    0    0    0    0  0.00000000000E+00  0.00000000000E+00  0.12957087872E+03  0.12957087872E+03  0.00000000000E+00 0.  1.
         22   -1    0    0    0    0 -0.00000000000E+00 -0.00000000000E+00 -0.53911319101E+03  0.53911319101E+03  0.00000000000E+00 0. -1.
         24    2    1    2    0    0 -0.23621439396E+02  0.44347360972E+02 -0.36660118423E+03  0.37880363785E+03  0.81062364540E+02 0.  0.
         25    2    1    2    0    0 -0.44223435800E+02 -0.76072104784E+02 -0.80564377500E+02  0.17286102340E+03  0.12509051558E+03 0.  0.
        -24    2    1    2    0    0  0.67844875196E+02  0.31724743813E+02  0.37623249445E+02  0.11701940848E+03  0.81661781766E+02 0.  0.
        -11    1    3    3    0    0  0.92520964619E+01  0.54043089566E+02 -0.15426384258E+03  0.16371801962E+03  0.00000000000E+00 0.  1.
         12    1    3    3    0    0 -0.32873535858E+02 -0.96957285945E+01 -0.21233734165E+03  0.21508561824E+03  0.00000000000E+00 0. -1.
         11    1    5    5    0    0  0.21019809021E+02 -0.37320989408E+01 -0.23842048201E+02  0.32003190407E+02  0.00000000000E+00 0. -1.
        -12    1    5    5    0    0  0.46825066175E+02  0.35456842754E+02  0.61465297646E+02  0.85016218070E+02  0.00000000000E+00 0.  1.
          5    1    4    4  501    0 -0.51069587091E+02 -0.60758693514E+02  0.10499096773E+02  0.80171222993E+02  0.41800000000E+01 0.  1.
         -5    1    4    4    0  501  0.68461512914E+01 -0.15313411271E+02 -0.91063474273E+02  0.92689800404E+02  0.41800000000E+01 0.  1.
</event>
<event>
11    1  0.8864208E-009  0.1270849E+03  0.7561462E-02  0.1122903E+00
         22   -1    0    0    0    0  0.00000000000E+00  0.00000000000E+00  0.16774215091E+04  0.16774215091E+04  0.00000000000E+00 0.  1.
         22   -1    0    0    0    0 -0.00000000000E+00 -0.00000000000E+00 -0.20042206522E+03  0.20042206522E+03  0.00000000000E+00 0.  1.
         24    2    1    2    0    0 -0.18751607189E+02 -0.14216044918E+02 -0.15698096681E+03  0.17719817577E+03  0.78755640125E+02 0.  0.
         25    2    1    2    0    0  0.96211624827E+01  0.25516312005E+01  0.89575683334E+02  0.15417549656E+03  0.12508878089E+03 0.  0.
        -24    2    1    2    0    0  0.91304447059E+01  0.11664413718E+02  0.15444047274E+04  0.15464699020E+04  0.78509695787E+02 0.  0.
        -13    1    3    3    0    0  0.17411862553E+02 -0.68580732662E+01 -0.13035461218E+03  0.13169104390E+03  0.00000000000E+00 0.  1.
         14    1    3    3    0    0 -0.36163469742E+02 -0.73579716523E+01 -0.26626354629E+02  0.45507131875E+02  0.00000000000E+00 0. -1.
         11    1    5    5    0    0 -0.31101076634E+02  0.11347815540E+02  0.40345878042E+03  0.40481481864E+03  0.00000000000E+00 0. -1.
        -12    1    5    5    0    0  0.40231521340E+02  0.31659817796E+00  0.11409459470E+04  0.11416550834E+04  0.00000000000E+00 0.  1.
          5    1    4    4  501    0  0.19453004982E+02  0.31513744068E+02  0.11067653859E+03  0.11678314973E+03  0.41800000000E+01 0. -1.
         -5    1    4    4    0  501 -0.98318424990E+01 -0.28962112867E+02 -0.21100855252E+02  0.37392346824E+02  0.41800000000E+01 0. -1.
</event>
<event>
11    1  0.8864208E-009  0.1590315E+03  0.7561462E-02  0.1087992E+00
         22   -1    0    0    0    0  0.00000000000E+00  0.00000000000E+00  0.42099006692E+03  0.42099006692E+03  0.00000000000E+00 0. -1.
         22   -1    0    0    0    0 -0.00000000000E+00 -0.00000000000E+00 -0.65889433583E+03  0.65889433583E+03  0.00000000000E+00 0.  1.
        -24    2    1    2    0    0  0.59462058624E+01 -0.56403992317E+02 -0.24029177992E+03  0.25942010025E+03  0.79635929096E+02 0.  0.
         25    2    1    2    0    0 -0.94516674006E+02  0.12900563071E+02 -0.38332912490E+03  0.41435355400E+03  0.12509126077E+03 0.  0.
         24    2    1    2    0    0  0.88570468144E+02  0.43503429246E+02  0.38571663591E+03  0.40611074851E+03  0.80070847714E+02 0.  0.
        -11    1    5    5    0    0  0.78813449227E+01  0.31687585865E+02  0.43967307455E+02  0.54766256222E+02  0.00000000000E+00 0.  1.
         12    1    5    5    0    0  0.80689123221E+02  0.11815843381E+02  0.34174932845E+03  0.35134449229E+03  0.00000000000E+00 0. -1.
         11    1    3    3    0    0  0.91997934992E+01  0.14679325480E+02 -0.14215677537E+02  0.22409914877E+02  0.00000000000E+00 0. -1.
        -12    1    3    3    0    0 -0.32535876369E+01 -0.71083317797E+02 -0.22607610238E+03  0.23701018537E+03  0.00000000000E+00 0.  1.
          5    1    4    4  501    0 -0.74356669338E+02  0.66463825535E+02 -0.23583932633E+03  0.25609376139E+03  0.41800000000E+01 0. -1.
         -5    1    4    4    0  501 -0.20160004669E+02 -0.53563262464E+02 -0.14748979857E+03  0.15825979261E+03  0.41800000000E+01 0. -1.
</event>
<event>
11    1  0.8864208E-009  0.1583991E+03  0.7561462E-02  0.1088593E+00
         22   -1    0    0    0    0  0.00000000000E+00  0.00000000000E+00  0.84563972088E+03  0.84563972088E+03  0.00000000000E+00 0.  1.
         22   -1    0    0    0    0 -0.00000000000E+00 -0.00000000000E+00 -0.43347265884E+03  0.43347265884E+03  0.00000000000E+00 0. -1.
        -24    2    1    2    0    0  0.39588931588E+02 -0.31093587618E+02 -0.35643654761E+03  0.36904826622E+03  0.81335820102E+02 0.  0.
         25    2    1    2    0    0 -0.46142229290E+02 -0.68021742318E+02  0.20653890649E+02  0.15109727740E+03  0.12509093207E+03 0.  0.
         24    2    1    2    0    0  0.65532977028E+01  0.99115329936E+02  0.74794971901E+03  0.75896683611E+03  0.82067544168E+02 0.  0.
        -11    1    5    5    0    0 -0.14719321024E+02  0.10168809348E+03  0.52288986026E+03  0.53288923120E+03  0.00000000000E+00 0.  1.
         12    1    5    5    0    0  0.21272618727E+02 -0.25727635474E+01  0.22505985875E+03  0.22607760490E+03  0.00000000000E+00 0. -1.
         11    1    3    3    0    0 -0.23864668459E+02 -0.34547073877E+01 -0.13192404709E+03  0.13410969989E+03  0.00000000000E+00 0. -1.
        -12    1    3    3    0    0  0.63453600046E+02 -0.27638880231E+02 -0.22451250053E+03  0.23493856634E+03  0.00000000000E+00 0.  1.
          5    1    4    4  501    0  0.26506264609E+02 -0.40564333353E+02  0.48308125680E+02  0.68550671846E+02  0.41800000000E+01 0. -1.
         -5    1    4    4    0  501 -0.72648493899E+02 -0.27457408965E+02 -0.27654235031E+02  0.82546605551E+02  0.41800000000E+01 0. -1.
</event>
<event>
11    1  0.8864208E-009  0.1365680E+03  0.7561462E-02  0.1111452E+00
         22   -1    0    0    0    0  0.00000000000E+00  0.00000000000E+00  0.48407776832E+02  0.48407776832E+02  0.00000000000E+00 0. -1.
         22   -1    0    0    0    0 -0.00000000000E+00 -0.00000000000E+00 -0.33621453141E+04  0.33621453141E+04  0.00000000000E+00 0.  1.
         24    2    1    2    0    0 -0.48878380948E+02 -0.29243921562E+02 -0.28614039334E+04  0.28630790613E+04  0.79655122510E+02 0.  0.
         25    2    1    2    0    0  0.10166458379E+02  0.40858989340E+02 -0.43328920446E+03  0.45293785636E+03  0.12506139746E+03 0.  0.
        -24    2    1    2    0    0  0.38711922570E+02 -0.11615067778E+02 -0.19044399460E+02  0.94536173251E+02  0.83311920838E+02 0.  0.
        -13    1    3    3    0    0 -0.56843152448E+01 -0.43411242261E+02 -0.19976848674E+04  0.19981645770E+04  0.00000000000E+00 0.  1.
         14    1    3    3    0    0 -0.43194065704E+02  0.14167320699E+02 -0.86371906595E+03  0.86491448431E+03  0.00000000000E+00 0. -1.
         11    1    5    5    0    0  0.44323533349E+02 -0.33628160260E+02  0.11157533776E+02  0.56744333029E+02  0.00000000000E+00 0. -1.
        -12    1    5    5    0    0 -0.56116107791E+01  0.22013092482E+02 -0.30201933236E+02  0.37791840222E+02  0.00000000000E+00 0.  1.
          5    1    4    4  501    0 -0.40650043242E+02  0.52589427261E+02 -0.33535312874E+03  0.34190242355E+03  0.41800000000E+01 0.  1.
         -5    1    4    4    0  501  0.50816501620E+02 -0.11730437921E+02 -0.97936075727E+02  0.11103543281E+03  0.41800000000E+01 0.  1.
</event>
<event>
11    1  0.8864208E-009  0.1298153E+03  0.7561462E-02  0.1119496E+00
         22   -1    0    0    0    0  0.00000000000E+00  0.00000000000E+00  0.63457401109E+03  0.63457401109E+03  0.00000000000E+00 0. -1.
         22   -1    0    0    0    0 -0.00000000000E+00 -0.00000000000E+00 -0.11823331160E+04  0.11823331160E+04  0.00000000000E+00 0.  1.
        -24    2    1    2    0    0 -0.48158032154E+01  0.38714007817E+02 -0.10361388982E+04  0.10381987290E+04  0.52448241652E+02 0.  0.
         25    2    1    2    0    0 -0.46824610327E+01 -0.71242939378E+02 -0.10519839079E+03  0.17835462967E+03  0.12508473387E+03 0.  0.
         24    2    1    2    0    0  0.94982642481E+01  0.32528931562E+02  0.59357818405E+03  0.60035376851E+03  0.83314094650E+02 0.  0.
        -11    1    5    5    0    0 -0.13321583245E+02  0.36017214796E+02  0.11546270318E+03  0.12168130574E+03  0.00000000000E+00 0.  1.
         12    1    5    5    0    0  0.22819847493E+02 -0.34882832346E+01  0.47811548087E+03  0.47867246277E+03  0.00000000000E+00 0. -1.
         13    1    3    3    0    0  0.20575537214E+02  0.21515388902E+01 -0.29544279965E+03  0.29616621975E+03  0.00000000000E+00 0. -1.
        -14    1    3    3    0    0 -0.25391340430E+02  0.36562468926E+02 -0.74069609856E+03  0.74203250921E+03  0.00000000000E+00 0.  1.
          5    1    4    4  501    0  0.27719253351E+00 -0.72317764222E+02 -0.13210179351E+03  0.15065952378E+03  0.41800000000E+01 0.  1.
         -5    1    4    4    0  501 -0.49596535662E+01  0.10748248440E+01  0.26903402721E+02  0.27695105884E+02  0.41800000000E+01 0.  1.
</event>
<event>
11    1  0.8864208E-009  0.1938225E+03  0.7561462E-02  0.1058980E+00
         22   -1    0    0    0    0  0.00000000000E+00  0.00000000000E+00  0.27463751716E+04  0.27463751716E+04  0.00000000000E+00 0. -1.
         22   -1    0    0    0    0 -0.00000000000E+00 -0.00000000000E+00 -0.19265099790E+02  0.19265099790E+02  0.00000000000E+00 0. -1.
         24    2    1    2    0    0 -0.22929809992E+01 -0.16776774637E+02  0.42653603477E+03  0.43504164061E+03  0.83913778261E+02 0.  0.
         25    2    1    2    0    0  0.13138845171E+03 -0.60151333224E+02  0.92831188012E+03  0.94778237587E+03  0.12508947646E+03 0.  0.
        -24    2    1    2    0    0 -0.12909547071E+03  0.76928107861E+02  0.13722621570E+04  0.13828162549E+04  0.80584075082E+02 0.  0.
        -11    1    3    3    0    0 -0.38713417033E+02  0.10408019631E+02  0.20868601397E+03  0.21250154813E+03  0.00000000000E+00 0.  1.
         12    1    3    3    0    0  0.36420436034E+02 -0.27184794268E+02  0.21785002080E+03  0.22254009248E+03  0.00000000000E+00 0. -1.
         11    1    5    5    0    0 -0.10730128371E+03  0.88118070465E+02  0.97965237086E+03  0.98944283693E+03  0.00000000000E+00 0. -1.
        -12    1    5    5    0    0 -0.21794187003E+02 -0.11189962604E+02  0.39260978610E+03  0.39337341801E+03  0.00000000000E+00 0.  1.
          5    1    4    4  501    0  0.64254096862E+02 -0.72437276790E+02  0.28887164795E+03  0.30469665148E+03  0.41800000000E+01 0. -1.
         -5    1    4    4    0  501  0.67134354847E+02  0.12285943565E+02  0.63944023217E+03  0.64308572440E+03  0.41800000000E+01 0. -1.
</event>
<event>
11    1  0.8864208E-009  0.1375806E+03  0.7561462E-02  0.1110291E+00
         22   -1    0    0    0    0  0.00000000000E+00  0.00000000000E+00  0.89990432200E+02  0.89990432200E+02  0.00000000000E+00 0.  1.
         22   -1    0    0    0    0 -0.00000000000E+00 -0.00000000000E+00 -0.72619712839E+03  0.72619712839E+03  0.00000000000E+00 0.  1.
        -24    2    1    2    0    0 -0.41082553907E+02 -0.26767902282E+02 -0.55088141628E+03  0.55949364123E+03  0.84607936630E+02 0.  0.
         25    2    1    2    0    0 -0.30705444764E+02  0.12777801063E+02 -0.71816889399E+02  0.14802289029E+03  0.12508802464E+03 0.  0.
         24    2    1    2    0    0  0.71787998672E+02  0.13990101219E+02 -0.13508390507E+02  0.10867102907E+03  0.79231788188E+02 0.  0.
        -11    1    5    5    0    0  0.36119188515E+02 -0.32103220277E+02 -0.14258256843E+02  0.50383632455E+02  0.00000000000E+00 0.  1.
         12    1    5    5    0    0  0.35668810157E+02  0.46093321496E+02  0.74986633553E+00  0.58287396614E+02  0.00000000000E+00 0. -1.
         13    1    3    3    0    0 -0.58175959386E+02  0.54732635353E+01 -0.26992986841E+03  0.27618206445E+03  0.00000000000E+00 0. -1.
        -14    1    3    3    0    0  0.17093405479E+02 -0.32241165818E+02 -0.28095154787E+03  0.28331157678E+03  0.00000000000E+00 0.  1.
          5    1    4    4  501    0  0.14897086184E+02  0.30743044199E+02 -0.89389897610E+02  0.95786659499E+02  0.41800000000E+01 0.  1.
         -5    1    4    4    0  501 -0.45602530949E+02 -0.17965243136E+02  0.17573008211E+02  0.52236230793E+02  0.41800000000E+01 0.  1.
</event>
<event>
11    1  0.8864208E-009  0.1432228E+03  0.7561462E-02  0.1104012E+00
         22   -1    0    0    0    0  0.00000000000E+00  0.00000000000E+00  0.56281824580E+03  0.56281824580E+03  0.00000000000E+00 0.  1.
         22   -1    0    0    0    0 -0.00000000000E+00 -0.00000000000E+00 -0.26225029730E+03  0.26225029730E+03  0.00000000000E+00 0.  1.
         24    2    1    2    0    0 -0.29816802782E+02  0.45055895386E+02 -0.75839263423E+02  0.13761936126E+03  0.10133320916E+03 0.  0.
         25    2    1    2    0    0 -0.10448466545E+02 -0.10153906930E+03 -0.10631561848E+03  0.19331297521E+03  0.12509013791E+03 0.  0.
        -24    2    1    2    0    0  0.40265269328E+02  0.56483173916E+02  0.48272283040E+03  0.49413620664E+03  0.79609163259E+02 0.  0.
        -13    1    3    3    0    0  0.18192183065E+02  0.43674998246E+02 -0.76078208213E+02  0.89589925557E+02  0.00000000000E+00 0.  1.
         14    1    3    3    0    0 -0.48008985847E+02  0.13808971399E+01  0.23894478964E+00  0.48029435699E+02  0.00000000000E+00 0. -1.
         11    1    5    5    0    0  0.60156362109E+01  0.36645524062E+02  0.67582935451E+02  0.77113782666E+02  0.00000000000E+00 0. -1.
        -12    1    5    5    0    0  0.34249633117E+02  0.19837649854E+02  0.41513989495E+03  0.41702242398E+03  0.00000000000E+00 0.  1.
          5    1    4    4  501    0  0.43096394664E+02 -0.75276959046E+02 -0.10113672925E+03  0.13330427675E+03  0.41800000000E+01 0.  1.
         -5    1    4    4    0  501 -0.53544861209E+02 -0.26262110256E+02 -0.51788892290E+01  0.60008698458E+02  0.41800000000E+01 0.  1.
</event>
<event>
11    1  0.8864208E-009  0.1771363E+03  0.7561462E-02  0.1071983E+00
         22   -1    0    0    0    0  0.00000000000E+00  0.00000000000E+00  0.11824888167E+03  0.11824888167E+03  0.00000000000E+00 0. -1.
         22   -1    0    0    0    0 -0.00000000000E+00 -0.00000000000E+00 -0.31992659055E+04  0.31992659055E+04  0.00000000000E+00 0.  1.
         24    2    1    2    0    0 -0.41354639113E+02 -0.16246653802E+02 -0.28906096484E+04  0.28920741623E+04  0.80589458340E+02 0.  0.
         25    2    1    2    0    0  0.15635714652E+03 -0.79928691447E+01 -0.20203286450E+03  0.28456085638E+03  0.12508460904E+03 0.  0.
        -24    2    1    2    0    0 -0.11500250740E+03  0.24239522947E+02  0.11625489049E+02  0.14087976852E+03  0.76803815020E+02 0.  0.
        -13    1    3    3    0    0 -0.27355337025E+02 -0.22978714941E+02 -0.27936207401E+04  0.27938491683E+04  0.00000000000E+00 0.  1.
         14    1    3    3    0    0 -0.13999302089E+02  0.67320611391E+01 -0.96988908286E+02  0.98224993950E+02  0.00000000000E+00 0. -1.
         13    1    5    5    0    0 -0.68453613671E+02  0.50789433664E+02  0.17353618912E+02  0.86986274123E+02  0.00000000000E+00 0. -1.
        -14    1    5    5    0    0 -0.46548893733E+02 -0.26549910717E+02 -0.57281298636E+01  0.53893494399E+02  0.00000000000E+00 0.  1.
          5    1    4    4  501    0  0.22742160436E+02  0.41054996641E+02 -0.14912790100E+02  0.49422487989E+02  0.41800000000E+01 0.  1.
         -5    1    4    4    0  501  0.13361498608E+03 -0.49047865786E+02 -0.18712007440E+03  0.23513836839E+03  0.41800000000E+01 0.  1.
</event>
<event>
11    1  0.8864208E-009  0.1895788E+03  0.7561462E-02  0.1062148E+00
         22   -1    0    0    0    0  0.00000000000E+00  0.00000000000E+00  0.85551096876E+02  0.85551096876E+02  0.00000000000E+00 0.  1.
         22   -1    0    0    0    0 -0.00000000000E+00 -0.00000000000E+00 -0.12451906897E+04  0.12451906897E+04  0.00000000000E+00 0. -1.
         24    2    1    2    0    0  0.11450805664E+02  0.15741050585E+03 -0.65766484533E+03  0.68105988156E+03  0.80064506388E+02 0.  0.
         25    2    1    2    0    0  0.75983043370E+01 -0.12407724784E+03 -0.52865720166E+03  0.55729586375E+03  0.12508934898E+03 0.  0.
        -24    2    1    2    0    0 -0.19049110001E+02 -0.33333258011E+02  0.26682454170E+02  0.92386041258E+02  0.79682197368E+02 0.  0.
        -13    1    3    3    0    0  0.28505088021E+02  0.99968337396E+02 -0.52912573029E+03  0.53924043522E+03  0.00000000000E+00 0.  1.
         14    1    3    3    0    0 -0.17054282357E+02  0.57442168458E+02 -0.12853911504E+03  0.14181944634E+03  0.00000000000E+00 0. -1.
         11    1    5    5    0    0  0.30470223919E+02 -0.10685841663E+02  0.13197607284E+01  0.32316613779E+02  0.00000000000E+00 0. -1.
        -12    1    5    5    0    0 -0.49519333920E+02 -0.22647416348E+02  0.25362693442E+02  0.60069427479E+02  0.00000000000E+00 0.  1.
          5    1    4    4  501    0 -0.66797603103E+01 -0.88377917547E+02 -0.50327201463E+03  0.51103372551E+03  0.41800000000E+01 0. -1.
         -5    1    4    4    0  501  0.14278064647E+02 -0.35699330296E+02 -0.25385187033E+02  0.46262138238E+02  0.41800000000E+01 0. -1.
</event>
<event>
11    1  0.8864208E-009  0.1474572E+03  0.7561462E-02  0.1099506E+00
         22   -1    0    0    0    0  0.00000000000E+00  0.00000000000E+00  0.78498093423E+03  0.78498093423E+03  0.00000000000E+00 0. -1.
         22   -1    0    0    0    0 -0.00000000000E+00 -0.00000000000E+00 -0.10774269437E+04  0.10774269437E+04  0.00000000000E+00 0. -1.
         24    2    1    2    0    0 -0.48315880262E+02 -0.61857053361E+02 -0.10385895029E+04  0.10445203202E+04  0.78700854676E+02 0.  0.
         25    2    1    2    0    0  0.45762628497E+02  0.37689935952E+02  0.11154913359E+03  0.17777973912E+03  0.12509067510E+03 0.  0.
        -24    2    1    2    0    0  0.25532517657E+01  0.24167117410E+02  0.63459435987E+03  0.64010781854E+03  0.80233715592E+02 0.  0.
        -13    1    3    3    0    0  0.17528836970E+01  0.15335418827E+02 -0.76524915621E+02  0.78066064219E+02  0.00000000000E+00 0.  1.
         14    1    3    3    0    0 -0.50068763959E+02 -0.77192472189E+02 -0.96206458729E+03  0.96645425603E+03  0.00000000000E+00 0. -1.
         11    1    5    5    0    0 -0.32052263972E+02  0.32478580179E+02  0.43282427799E+03  0.43522300193E+03  0.00000000000E+00 0. -1.
        -12    1    5    5    0    0  0.34605515738E+02 -0.83114627692E+01  0.20177008188E+03  0.20488481661E+03  0.00000000000E+00 0.  1.
          5    1    4    4  501    0  0.24103535196E+02  0.81615793223E+02  0.49210195242E+02  0.98393261091E+02  0.41800000000E+01 0.  1.
         -5    1    4    4    0  501  0.21659093301E+02 -0.43925857271E+02  0.62338938347E+02  0.79386478029E+02  0.41800000000E+01 0.  1.
</event>
<event>
11    1  0.8864208E-009  0.1543925E+03  0.7561462E-02  0.1092473E+00
         22   -1    0    0    0    0  0.00000000000E+00  0.00000000000E+00  0.39629205359E+03  0.39629205359E+03  0.00000000000E+00 0.  1.
         22   -1    0    0    0    0 -0.00000000000E+00 -0.00000000000E+00 -0.10957863006E+03  0.10957863006E+03  0.00000000000E+00 0. -1.
        -24    2    1    2    0    0  0.57675599249E+02 -0.82557694999E+02  0.19400092270E+02  0.13028430212E+03  0.80345429527E+02 0.  0.
         25    2    1    2    0    0 -0.80608135378E+02  0.39470294697E+02  0.21628156192E+03  0.26548183633E+03  0.12508923113E+03 0.  0.
         24    2    1    2    0    0  0.22932536129E+02  0.43087400302E+02  0.51031769345E+02  0.11010454520E+03  0.84476885077E+02 0.  0.
        -13    1    5    5    0    0  0.10837818675E+02  0.27535291792E+02  0.74087034692E+02  0.79778062881E+02  0.00000000000E+00 0.  1.
         14    1    5    5    0    0  0.12094717455E+02  0.15552108510E+02 -0.23055265346E+02  0.30326482315E+02  0.00000000000E+00 0. -1.
         11    1    3    3    0    0  0.44302813943E+02 -0.76124381472E+02 -0.18132331271E+02  0.89924647428E+02  0.00000000000E+00 0. -1.
        -12    1    3    3    0    0  0.13372785306E+02 -0.64333135276E+01  0.37532423542E+02  0.40359654690E+02  0.00000000000E+00 0.  1.
          5    1    4    4  501    0 -0.20186606194E+02  0.78880072288E+02  0.12085294404E+03  0.14578227381E+03  0.41800000000E+01 0.  1.
         -5    1    4    4    0  501 -0.60421529184E+02 -0.39409777591E+02  0.95428617873E+02  0.11969956252E+03  0.41800000000E+01 0.  1.
</event>
<event>
11    1  0.8864208E-009  0.1325096E+03  0.7561462E-02  0.1116223E+00
         22   -1    0    0    0    0  0.00000000000E+00  0.00000000000E+00  0.49407755037E+02  0.49407755037E+02  0.00000000000E+00 0. -1.
         22   -1    0    0    0    0 -0.00000000000E+00 -0.00000000000E+00 -0.16603196014E+04  0.16603196014E+04  0.00000000000E+00 0. -1.
        -24    2    1    2    0    0  0.37583811757E+02  0.20964359308E+02 -0.13584113901E+04  0.13613990624E+04  0.79207670821E+02 0.  0.
         25    2    1    2    0    0 -0.45252027158E+02 -0.26566326768E+02 -0.22160168343E+03  0.25982353376E+03  0.12508975543E+03 0.  0.
         24    2    1    2    0    0  0.76682154008E+01  0.56019674608E+01 -0.30898772813E+02  0.88504760251E+02  0.82390380864E+02 0.  0.
        -11    1    5    5    0    0 -0.33279543579E+01 -0.10141442817E+02 -0.55939300675E+02  0.56948481127E+02  0.00000000000E+00 0.  1.
         12    1    5    5    0    0  0.10996169759E+02  0.15743410278E+02  0.25040527862E+02  0.31556279124E+02  0.00000000000E+00 0. -1.
         11    1    3    3    0    0 -0.71767653552E+01  0.38555155731E+02 -0.78292911295E+03  0.78391071041E+03  0.00000000000E+00 0. -1.
        -12    1    3    3    0    0  0.44760577112E+02 -0.17590796424E+02 -0.57548227718E+03  0.57748835203E+03  0.00000000000E+00 0.  1.
          5    1    4    4  501    0  0.24342702631E+02 -0.77306726177E+01 -0.16775447758E+03  0.16973911635E+03  0.41800000000E+01 0.  1.
         -5    1    4    4    0  501 -0.69594729789E+02 -0.18835654151E+02 -0.53847205853E+02  0.90084417409E+02  0.41800000000E+01 0.  1.
</event>
<event>
11    1  0.8864208E-009  0.1623250E+03  0.7561462E-02  0.1084911E+00
         22   -1    0    0    0    0  0.00000000000E+00  0.00000000000E+00  0.21021898927E+04  0.21021898927E+04  0.00000000000E+00 0.  1.
         22   -1    0    0    0    0 -0.00000000000E+00 -0.00000000000E+00 -0.64337223506E+03  0.64337223506E+03  0.00000000000E+00 0.  1.
         24    2    1    2    0    0  0.77181408844E+02 -0.72014680557E+02 -0.60535415466E+03  0.61979415566E+03  0.80920076239E+02 0.  0.
         25    2    1    2    0    0 -0.10424208522E+02  0.66290660934E+02  0.14277081673E+03  0.20133025537E+03  0.12508896741E+03 0.  0.
        -24    2    1    2    0    0 -0.66757200322E+02  0.57240196221E+01  0.19214009956E+04  0.19244377167E+04  0.84790633707E+02 0.  0.
        -13    1    3    3    0    0  0.91390615490E+02 -0.43833557070E+02 -0.47102626783E+03  0.48180843736E+03  0.00000000000E+00 0.  1.
         14    1    3    3    0    0 -0.14209206646E+02 -0.28181123487E+02 -0.13432788683E+03  0.13798571830E+03  0.00000000000E+00 0. -1.
         11    1    5    5    0    0 -0.28852837435E+01  0.13224997647E+02  0.46398965580E+02  0.48333109066E+02  0.00000000000E+00 0. -1.
        -12    1    5    5    0    0 -0.63871916578E+02 -0.75009780248E+01  0.18750020300E+04  0.18761046077E+04  0.00000000000E+00 0.  1.
          5    1    4    4  501    0 -0.18098371460E+02  0.86338773093E+02  0.15340661348E+03  0.17701128848E+03  0.41800000000E+01 0.  1.
         -5    1    4    4    0  501  0.76741629380E+01 -0.20048112159E+02 -0.10635796757E+02  0.24318966890E+02  0.41800000000E+01 0.  1.
</event>
<event>
11    1  0.8864208E-009  0.1419446E+03  0.7561462E-02  0.1105406E+00
         22   -1    0    0    0    0  0.00000000000E+00  0.00000000000E+00  0.96032940886E+02  0.96032940886E+02  0.00000000000E+00 0.  1.
         22   -1    0    0    0    0 -0.00000000000E+00 -0.00000000000E+00 -0.19195387766E+04  0.19195387766E+04  0.00000000000E+00 0. -1.
        -24    2    1    2    0    0  0.91532061636E+01  0.64236085548E+02 -0.15887306280E+04  0.15919010681E+04  0.76641676150E+02 0.  0.
         25    2    1    2    0    0 -0.59141274156E+02 -0.91189932864E+02 -0.27225179262E+03  0.31871577494E+03  0.12508162313E+03 0.  0.
         24    2    1    2    0    0  0.49988067993E+02  0.26953847316E+02  0.37476584915E+02  0.10495487440E+03  0.79910665227E+02 0.  0.
        -11    1    5    5    0    0  0.21968579558E+02  0.20586575835E+02  0.60865920649E+02  0.67904976908E+02  0.00000000000E+00 0.  1.
         12    1    5    5    0    0  0.28019488434E+02  0.63672714806E+01 -0.23389335734E+02  0.37049897494E+02  0.00000000000E+00 0. -1.
         13    1    3    3    0    0  0.29516629639E+02  0.41984839304E+02 -0.13849171393E+04  0.13858677573E+04  0.00000000000E+00 0. -1.
        -14    1    3    3    0    0 -0.20363423475E+02  0.22251246244E+02 -0.20381348872E+03  0.20603331080E+03  0.00000000000E+00 0.  1.
          5    1    4    4  501    0  0.32486643301E+02  0.22391685508E+01 -0.36853470667E+02  0.49356322482E+02  0.41800000000E+01 0.  1.
         -5    1    4    4    0  501 -0.91627917457E+02 -0.93429101415E+02 -0.23539832195E+03  0.26935945246E+03  0.41800000000E+01 0.  1.
</event>
<event>
11    1  0.8864208E-009  0.1785354E+03  0.7561462E-02  0.1070834E+00
         22   -1    0    0    0    0  0.00000000000E+00  0.00000000000E+00  0.50647813606E+02  0.50647813606E+02  0.00000000000E+00 0.  1.
         22   -1    0    0    0    0 -0.00000000000E+00 -0.00000000000E+00 -0.19622499156E+04  0.19622499156E+04  0.00000000000E+00 0.  1.
        -24    2    1    2    0    0 -0.11161942163E+03 -0.53214382498E+02 -0.13058706798E+04  0.13140728107E+04  0.78730258343E+02 0.  0.
         25    2    1    2    0    0  0.13445726648E+03  0.44977038255E+02 -0.57799618055E+03  0.60814106863E+03  0.12511708175E+03 0.  0.
         24    2    1    2    0    0 -0.22837844852E+02  0.82373442426E+01 -0.27735241586E+02  0.90683849852E+02  0.82854667946E+02 0.  0.
        -11    1    5    5    0    0  0.82692175322E+01  0.24515968665E+00  0.26439893646E+02  0.27703935422E+02  0.00000000000E+00 0.  1.
         12    1    5    5    0    0 -0.31107062384E+02  0.79921845560E+01 -0.54175135232E+02  0.62979914430E+02  0.00000000000E+00 0. -1.
         11    1    3    3    0    0 -0.37688332499E+02  0.84504019293E+01 -0.65309674588E+03  0.65423786132E+03  0.00000000000E+00 0. -1.
        -12    1    3    3    0    0 -0.73931089129E+02 -0.61664784427E+02 -0.65277393395E+03  0.65983494938E+03  0.00000000000E+00 0.  1.
          5    1    4    4  501    0  0.15841398384E+03  0.39720285054E+02 -0.51922218180E+03  0.54431777281E+03  0.41800000000E+01 0.  1.
         -5    1    4    4    0  501 -0.23956717358E+02  0.52567532013E+01 -0.58773998750E+02  0.63823295824E+02  0.41800000000E+01 0.  1.
</event>
<event>
11    1  0.8864208E-009  0.1433289E+03  0.7561462E-02  0.1103897E+00
         22   -1    0    0    0    0  0.00000000000E+00  0.00000000000E+00  0.48224084473E+03  0.48224084473E+03  0.00000000000E+00 0. -1.
         22   -1    0    0    0    0 -0.00000000000E+00 -0.00000000000E+00 -0.13491986879E+04  0.13491986879E+04  0.00000000000E+00 0.  1.
         24    2    1    2    0    0 -0.40586927568E+02  0.72522619506E+01 -0.92294704538E+03  0.92753857986E+03  0.82441946560E+02 0.  0.
         25    2    1    2    0    0  0.90582133509E+02 -0.55511541470E+02 -0.40176928677E+03  0.43399470213E+03  0.12508472145E+03 0.  0.
        -24    2    1    2    0    0 -0.49995205941E+02  0.48259279520E+02  0.45775848895E+03  0.46990625067E+03  0.80253171543E+02 0.  0.
        -13    1    3    3    0    0 -0.52727217857E+02  0.33422966077E+02 -0.56775455000E+03  0.57117640288E+03  0.00000000000E+00 0.  1.
         14    1    3    3    0    0  0.12140290289E+02 -0.26170704126E+02 -0.35519249538E+03  0.35636217697E+03  0.00000000000E+00 0. -1.
         11    1    5    5    0    0  0.16580148511E+02  0.32040930145E+01  0.17880707487E+03  0.17960272147E+03  0.00000000000E+00 0. -1.
        -12    1    5    5    0    0 -0.66575354452E+02  0.45055186505E+02  0.27895141408E+03  0.29030352920E+03  0.00000000000E+00 0.  1.
          5    1    4    4  501    0  0.11715025901E+02 -0.33585772015E+02 -0.15329076731E+02  0.38957655308E+02  0.41800000000E+01 0.  1.
         -5    1    4    4    0  501  0.78867107608E+02 -0.21925769455E+02 -0.38644021004E+03  0.39503704683E+03  0.41800000000E+01 0.  1.
</event>
<event>
11    1  0.8864208E-009  0.1572210E+03  0.7561462E-02  0.1089721E+00
         22   -1    0    0    0    0  0.00000000000E+00  0.00000000000E+00  0.10188370839E+04  0.10188370839E+04  0.00000000000E+00 0.  1.
         22   -1    0    0    0    0 -0.00000000000E+00 -0.00000000000E+00 -0.52258214850E+03  0.52258214850E+03  0.00000000000E+00 0.  1.
         24    2    1    2    0    0  0.79350051271E+02 -0.48599327457E+02 -0.33983455613E+03  0.36125492909E+03  0.79745049907E+02 0.  0.
         25    2    1    2    0    0 -0.70337970886E+02  0.80889344648E+02 -0.13023672336E+03  0.21000056161E+03  0.12509242798E+03 0.  0.
        -24    2    1    2    0    0 -0.90120803847E+01 -0.32290017191E+02  0.96632621490E+03  0.97016374171E+03  0.79419577764E+02 0.  0.
        -11    1    3    3    0    0  0.47160943602E+02 -0.22141545748E+02 -0.29685951075E+03  0.30139670166E+03  0.00000000000E+00 0.  1.
         12    1    3    3    0    0  0.32189107669E+02 -0.26457781709E+02 -0.42975045385E+02  0.59858227432E+02  0.00000000000E+00 0. -1.
         13    1    5    5    0    0 -0.16554922646E+02 -0.20727230319E+02  0.92501842275E+02  0.96230319363E+02  0.00000000000E+00 0. -1.
        -14    1    5    5    0    0  0.75428422609E+01 -0.11562786872E+02  0.87382437262E+03  0.87393342235E+03  0.00000000000E+00 0.  1.
          5    1    4    4  501    0 -0.85887372282E+02  0.60372559557E+02 -0.34210720367E+02  0.11049584813E+03  0.41800000000E+01 0. -1.
         -5    1    4    4    0  501  0.15549401396E+02  0.20516785091E+02 -0.96026002991E+02  0.99504713480E+02  0.41800000000E+01 0. -1.
</event>
<event>
11    1  0.8864208E-009  0.1940694E+03  0.7561462E-02  0.1058799E+00
         22   -1    0    0    0    0  0.00000000000E+00  0.00000000000E+00  0.26598609048E+03  0.26598609048E+03  0.00000000000E+00 0. -1.
         22   -1    0    0    0    0 -0.00000000000E+00 -0.00000000000E+00 -0.89856026360E+03  0.89856026360E+03  0.00000000000E+00 0.  1.
         24    2    1    2    0    0 -0.14832718580E+02  0.33422764764E+02 -0.70723016749E+03  0.71365628412E+03  0.88281885503E+02 0.  0.
         25    2    1    2    0    0  0.13630994763E+03  0.53943865204E+02 -0.91793363198E+02  0.21345726020E+03  0.12509051918E+03 0.  0.
        -24    2    1    2    0    0 -0.12147722905E+03 -0.87366629969E+02  0.16644935756E+03  0.23743280976E+03  0.79242067804E+02 0.  0.
        -13    1    3    3    0    0  0.56095750679E+01 -0.24609081181E+02 -0.36995645397E+03  0.37081646679E+03  0.00000000000E+00 0.  1.
         14    1    3    3    0    0 -0.20442293648E+02  0.58031845945E+02 -0.33727371352E+03  0.34283981733E+03  0.00000000000E+00 0. -1.
         11    1    5    5    0    0 -0.12728584437E+03 -0.76716159644E+02  0.16898418105E+03  0.22503934938E+03  0.00000000000E+00 0. -1.
        -12    1    5    5    0    0  0.58086153190E+01 -0.10650470325E+02 -0.25348234857E+01  0.12393460379E+02  0.00000000000E+00 0.  1.
          5    1    4    4  501    0  0.15161622112E+03  0.21128015293E+02 -0.58006272978E+02  0.16375613467E+03  0.41800000000E+01 0. -1.
         -5    1    4    4    0  501 -0.15306273489E+02  0.32815849911E+02 -0.33787090220E+02  0.49701125531E+02  0.41800000000E+01 0. -1.
</event>
<event>
11    1  0.8864208E-009  0.1660483E+03  0.7561462E-02  0.1081523E+00
         22   -1    0    0    0    0  0.00000000000E+00  0.00000000000E+00  0.22178216866E+04  0.22178216866E+04  0.00000000000E+00 0. -1.
         22   -1    0    0    0    0 -0.00000000000E+00 -0.00000000000E+00 -0.84769600915E+02  0.84769600915E+02  0.00000000000E+00 0. -1.
         24    2    1    2    0    0 -0.11303092302E+02 -0.12592987800E+02 -0.50672398930E+02  0.97380049079E+02  0.81417680561E+02 0.  0.
         25    2    1    2    0    0  0.78158001155E+02 -0.74978047077E+02  0.99127508688E+03  0.10049895975E+04  0.12508961791E+03 0.  0.
        -24    2    1    2    0    0 -0.66854908853E+02  0.87571034876E+02  0.11924493978E+04  0.12002216410E+04  0.80362654559E+02 0.  0.
        -13    1    3    3    0    0 -0.40298772770E+02 -0.23646782304E+01 -0.27752160276E+01  0.40463373733E+02  0.00000000000E+00 0.  1.
         14    1    3    3    0    0  0.28995680468E+02 -0.10228309569E+02 -0.47897182903E+02  0.56916675346E+02  0.00000000000E+00 0. -1.
         13    1    5    5    0    0 -0.37188977328E+02 -0.62935156678E+01  0.36095083582E+03  0.36291615320E+03  0.00000000000E+00 0. -1.
        -14    1    5    5    0    0 -0.29665931526E+02  0.93864550544E+02  0.83149856196E+03  0.83730548779E+03  0.00000000000E+00 0.  1.
          5    1    4    4  501    0 -0.87100831179E+01 -0.72712291003E+02  0.33249312934E+03  0.34048802661E+03  0.41800000000E+01 0. -1.
         -5    1    4    4    0  501  0.86868084273E+02 -0.22657560740E+01  0.65878195754E+03  0.66450157088E+03  0.41800000000E+01 0. -1.
</event>
<event>
11    1  0.8864208E-009  0.1622038E+03  0.7561462E-02  0.1085023E+00
         22   -1    0    0    0    0  0.00000000000E+00  0.00000000000E+00  0.81484960448E+03  0.81484960448E+03  0.00000000000E+00 0. -1.
         22   -1    0    0    0    0 -0.00000000000E+00 -0.00000000000E+00 -0.20054376350E+04  0.20054376350E+04  0.00000000000E+00 0.  1.
         24    2    1    2    0    0 -0.15605047331E+02 -0.10219469736E+03 -0.19831185486E+04  0.19874968987E+04  0.81838078690E+02 0.  0.
         25    2    1    2    0    0 -0.92926889523E+01  0.85078327798E+02  0.34279961100E+03  0.37481321075E+03  0.12509473897E+03 0.  0.
        -24    2    1    2    0    0  0.24897736283E+02  0.17116369565E+02  0.44973090710E+03  0.45797712996E+03  0.81069694666E+02 0.  0.
        -11    1    3    3    0    0  0.11266989775E+02 -0.10037222902E+03 -0.17308877713E+04  0.17338321736E+04  0.00000000000E+00 0.  1.
         12    1    3    3    0    0 -0.26872037106E+02 -0.18224683473E+01 -0.25223077732E+03  0.25366472517E+03  0.00000000000E+00 0. -1.
         11    1    5    5    0    0  0.11770122071E+02  0.24004238414E+02  0.43866178737E+03  0.43947571370E+03  0.00000000000E+00 0. -1.
        -12    1    5    5    0    0  0.13127614212E+02 -0.68878688483E+01  0.11069119725E+02  0.18501416261E+02  0.00000000000E+00 0.  1.
          5    1    4    4  501    0 -0.87345896393E+01  0.35497967273E+02  0.97471400808E+01  0.38064128473E+02  0.41800000000E+01 0. -1.
         -5    1    4    4    0  501 -0.55809931301E+00  0.49580360525E+02  0.33305247092E+03  0.33674908227E+03  0.41800000000E+01 0. -1.
</event>
<event>
11    1  0.8864208E-009  0.3797670E+03  0.7561462E-02  0.9711418E-01
         22   -1    0    0    0    0  0.00000000000E+00  0.00000000000E+00  0.40944027344E+02  0.40944027344E+02  0.00000000000E+00 0.  1.
         22   -1    0    0    0    0 -0.00000000000E+00 -0.00000000000E+00 -0.88061041086E+03  0.88061041086E+03  0.00000000000E+00 0.  1.
         24    2    1    2    0    0 -0.36022014634E+01 -0.38318664018E+02 -0.16188103711E+03  0.18239596918E+03  0.74709594635E+02 0.  0.
         25    2    1    2    0    0  0.26815982770E+02  0.11869521148E+03 -0.46223527780E+03  0.49407847764E+03  0.12507773529E+03 0.  0.
        -24    2    1    2    0    0 -0.23213781307E+02 -0.80376547463E+02 -0.21555006860E+03  0.24507999138E+03  0.81259467601E+02 0.  0.
        -11    1    3    3    0    0 -0.25729332259E+02 -0.26037164359E+02 -0.15006745020E+03  0.15446738191E+03  0.00000000000E+00 0.  1.
         12    1    3    3    0    0  0.22127130796E+02 -0.12281499659E+02 -0.11813586914E+02  0.27928587270E+02  0.00000000000E+00 0. -1.
         13    1    5    5    0    0 -0.20493946594E+02 -0.48973077942E+02 -0.39347410257E+02  0.66080124879E+02  0.00000000000E+00 0. -1.
        -14    1    5    5    0    0 -0.27198347127E+01 -0.31403469521E+02 -0.17620265834E+03  0.17899986650E+03  0.00000000000E+00 0.  1.
          5    1    4    4  501    0 -0.21183988499E+02  0.12133433430E+03 -0.36997571632E+03  0.38996190213E+03  0.41800000000E+01 0. -1.
         -5    1    4    4    0  501  0.47999971269E+02 -0.26391228171E+01 -0.92259561479E+02  0.10411657551E+03  0.41800000000E+01 0. -1.
</event>
<event>
11    1  0.8864208E-009  0.1602561E+03  0.7561462E-02  0.1086837E+00
         22   -1    0    0    0    0  0.00000000000E+00  0.00000000000E+00  0.60825886106E+03  0.60825886106E+03  0.00000000000E+00 0.  1.
         22   -1    0    0    0    0 -0.00000000000E+00 -0.00000000000E+00 -0.20406473828E+03  0.20406473828E+03  0.00000000000E+00 0. -1.
        -24    2    1    2    0    0  0.79150179411E+02  0.16596512693E+02 -0.10903994484E+03  0.15714724499E+03  0.79153975910E+02 0.  0.
         25    2    1    2    0    0  0.31016692915E+02 -0.17438648989E+02  0.62714621901E+01  0.13020632361E+03  0.12509282054E+03 0.  0.
         24    2    1    2    0    0 -0.11016687233E+03  0.84213629660E+00  0.50696260543E+03  0.52497003075E+03  0.80280763183E+02 0.  0.
        -13    1    5    5    0    0 -0.50718558967E+02  0.16174627125E+02  0.38252535715E+03  0.38621191029E+03  0.00000000000E+00 0.  1.
         14    1    5    5    0    0 -0.59448313359E+02 -0.15332490828E+02  0.12443724827E+03  0.13875812046E+03  0.00000000000E+00 0. -1.
         11    1    3    3    0    0  0.39503884264E+02  0.71678309598E+01 -0.10925100392E+03  0.11639465852E+03  0.00000000000E+00 0. -1.
        -12    1    3    3    0    0  0.39646295147E+02  0.94286817327E+01  0.21105908720E+00  0.40752586471E+02  0.00000000000E+00 0.  1.
          5    1    4    4  501    0  0.57386775806E+02  0.37647238379E+02  0.10486468979E+01  0.68768660415E+02  0.41800000000E+01 0.  1.
         -5    1    4    4    0  501 -0.26370082891E+02 -0.55085887368E+02  0.52228152922E+01  0.61437663191E+02  0.41800000000E+01 0.  1.
</event>
<event>
11    1  0.8864208E-009  0.1728387E+03  0.7561462E-02  0.1075587E+00
         22   -1    0    0    0    0  0.00000000000E+00  0.00000000000E+00  0.18984435478E+03  0.18984435478E+03  0.00000000000E+00 0. -1.
         22   -1    0    0    0    0 -0.00000000000E+00 -0.00000000000E+00 -0.41045984136E+03  0.41045984136E+03  0.00000000000E+00 0.  1.
         24    2    1    2    0    0  0.43547033790E+02  0.14238067873E+02 -0.21554050594E+03  0.23423619869E+03  0.79434377609E+02 0.  0.
         25    2    1    2    0    0  0.64027435329E+02  0.56604414654E+02 -0.10576379055E+03  0.18478481597E+03  0.12512344541E+03 0.  0.
        -24    2    1    2    0    0 -0.10757446912E+03 -0.70842482527E+02  0.10068880991E+03  0.18128318147E+03  0.78322612982E+02 0.  0.
        -11    1    3    3    0    0 -0.17126850449E+02  0.10685486820E+02 -0.11495761232E+03  0.11671658522E+03  0.00000000000E+00 0.  1.
         12    1    3    3    0    0  0.60673884239E+02  0.35525810531E+01 -0.10058289362E+03  0.11751961347E+03  0.00000000000E+00 0. -1.
         11    1    5    5    0    0 -0.73913855277E+02 -0.73888378363E+02  0.40169516463E+02  0.11196580063E+03  0.00000000000E+00 0. -1.
        -12    1    5    5    0    0 -0.33660613843E+02  0.30458958357E+01  0.60519293451E+02  0.69317380833E+02  0.00000000000E+00 0.  1.
          5    1    4    4  501    0  0.67058051411E+02  0.87928351007E+02 -0.10571204241E+03  0.15303818308E+03  0.41800000000E+01 0.  1.
         -5    1    4    4    0  501 -0.30306160813E+01 -0.31323936353E+02 -0.51748140350E-01  0.31746632898E+02  0.41800000000E+01 0.  1.
</event>
<event>
11    1  0.8864208E-009  0.2094729E+03  0.7561462E-02  0.1048020E+00
         22   -1    0    0    0    0  0.00000000000E+00  0.00000000000E+00  0.14669278034E+03  0.14669278034E+03  0.00000000000E+00 0.  1.
         22   -1    0    0    0    0 -0.00000000000E+00 -0.00000000000E+00 -0.14434786827E+04  0.14434786827E+04  0.00000000000E+00 0.  1.
        -24    2    1    2    0    0  0.38585851012E+02 -0.46808387080E+02 -0.91672529883E+03  0.92226136636E+03  0.80627919202E+02 0.  0.
         25    2    1    2    0    0 -0.19942339474E+03  0.18476081570E+02 -0.41352185578E+03  0.47619441654E+03  0.12509892554E+03 0.  0.
         24    2    1    2    0    0  0.16083754373E+03  0.28332305510E+02  0.33461252297E+02  0.19171568011E+03  0.94677407996E+02 0.  0.
        -11    1    5    5    0    0  0.30448771951E+02 -0.11610529322E+02  0.44210986493E+02  0.54923068297E+02  0.00000000000E+00 0.  1.
         12    1    5    5    0    0  0.13038877178E+03  0.39942834832E+02 -0.10749734196E+02  0.13679261181E+03  0.00000000000E+00 0. -1.
         11    1    3    3    0    0 -0.22349165569E+02  0.18457117525E+01 -0.24546129943E+03  0.24648355193E+03  0.00000000000E+00 0. -1.
        -12    1    3    3    0    0  0.60935016581E+02 -0.48654098833E+02 -0.67126399940E+03  0.67577781442E+03  0.00000000000E+00 0.  1.
          5    1    4    4  501    0 -0.10572452340E+03 -0.52013002410E+02 -0.22814027101E+03  0.25680436702E+03  0.41800000000E+01 0. -1.
         -5    1    4    4    0  501 -0.93698871339E+02  0.70489083980E+02 -0.18538158478E+03  0.21939004951E+03  0.41800000000E+01 0. -1.
</event>
<event>
11    1  0.8864208E-009  0.1584581E+03  0.7561462E-02  0.1088537E+00
         22   -1    0    0    0    0  0.00000000000E+00  0.00000000000E+00  0.22781367493E+03  0.22781367493E+03  0.00000000000E+00 0.  1.
         22   -1    0    0    0    0 -0.00000000000E+00 -0.00000000000E+00 -0.12056119175E+04  0.12056119175E+04  0.00000000000E+00 0.  1.
        -24    2    1    2    0    0  0.61794129308E+02 -0.76745677229E+02 -0.10274615894E+04  0.10356673578E+04  0.84977319240E+02 0.  0.
         25    2    1    2    0    0 -0.14637167304E+02  0.96324791054E+02 -0.12306836075E+03  0.20071144117E+03  0.12508616695E+03 0.  0.
         24    2    1    2    0    0 -0.47156962004E+02 -0.19579113824E+02  0.17273170765E+03  0.19704679345E+03  0.79900408126E+02 0.  0.
        -13    1    5    5    0    0 -0.41850849442E+02 -0.47374788319E+02  0.93060413659E+02  0.11249935448E+03  0.00000000000E+00 0.  1.
         14    1    5    5    0    0 -0.53061125622E+01  0.27795674495E+02  0.79671293992E+02  0.84547438977E+02  0.00000000000E+00 0. -1.
         11    1    3    3    0    0  0.58782482200E+02 -0.39000124175E+02 -0.34405251338E+03  0.35121008223E+03  0.00000000000E+00 0. -1.
        -12    1    3    3    0    0  0.30116471083E+01 -0.37745553054E+02 -0.68340907607E+03  0.68445727555E+03  0.00000000000E+00 0.  1.
          5    1    4    4  501    0  0.14676865811E+01 -0.60938119061E+01 -0.92127710686E+02  0.92435253684E+02  0.41800000000E+01 0.  1.
         -5    1    4    4    0  501 -0.16104853885E+02  0.10241860296E+03 -0.30940650061E+02  0.10827618749E+03  0.41800000000E+01 0.  1.
</event>
<event>
11    1  0.8864208E-009  0.1313595E+03  0.7561462E-02  0.1117610E+00
         22   -1    0    0    0    0  0.00000000000E+00  0.00000000000E+00  0.37449579817E+03  0.37449579817E+03  0.00000000000E+00 0. -1.
         22   -1    0    0    0    0 -0.00000000000E+00 -0.00000000000E+00 -0.78177106618E+03  0.78177106618E+03  0.00000000000E+00 0. -1.
        -24    2    1    2    0    0  0.38140047796E+02  0.10920763013E+02 -0.62005066681E+03  0.62650607387E+03  0.80455608093E+02 0.  0.
         25    2    1    2    0    0 -0.46085024229E+02  0.28809769917E+01 -0.12452435789E+03  0.18244652571E+03  0.12509312352E+03 0.  0.
         24    2    1    2    0    0  0.79449764329E+01 -0.13801740005E+02  0.33729975669E+03  0.34731426476E+03  0.81255534998E+02 0.  0.
        -11    1    5    5    0    0  0.22306154112E+02  0.27998585188E+02  0.10753271905E+03  0.11333477379E+03  0.00000000000E+00 0.  1.
         12    1    5    5    0    0 -0.14361177679E+02 -0.41800325193E+02  0.22976703763E+03  0.23397949097E+03  0.00000000000E+00 0. -1.
         11    1    3    3    0    0  0.43323454180E+02  0.17321190971E+02 -0.61516098912E+03  0.61692786278E+03  0.00000000000E+00 0. -1.
        -12    1    3    3    0    0 -0.51834063837E+01 -0.64004279579E+01 -0.48896776906E+01  0.95782110909E+01  0.00000000000E+00 0.  1.
          5    1    4    4  501    0  0.39212924986E+02 -0.65317815889E+01 -0.70238248680E+02  0.80815850143E+02  0.41800000000E+01 0.  1.
         -5    1    4    4    0  501 -0.85297949215E+02  0.94127585807E+01 -0.54286109208E+02  0.10163067557E+03  0.41800000000E+01 0.  1.
</event>
<event>
11    1  0.8864208E-009  0.1732928E+03  0.7561462E-02  0.1075201E+00
         22   -1    0    0    0    0  0.00000000000E+00  0.00000000000E+00  0.16846523752E+03  0.16846523752E+03  0.00000000000E+00 0.  1.
         22   -1    0    0    0    0 -0.00000000000E+00 -0.00000000000E+00 -0.19824896926E+04  0.19824896926E+04  0.00000000000E+00 0.  1.
         24    2    1    2    0    0 -0.20801336648E+02 -0.14789355352E+02 -0.17995271312E+04  0.18014846999E+04  0.79986295796E+02 0.  0.
         25    2    1    2    0    0 -0.29517558284E+02 -0.10027792145E+03 -0.85101505789E+02  0.18389437525E+03  0.12509167511E+03 0.  0.
        -24    2    1    2    0    0  0.50318894932E+02  0.11506727680E+03  0.70604181927E+02  0.16557585493E+03  0.81596224500E+02 0.  0.
        -11    1    3    3    0    0 -0.29652283658E+01  0.91171112547E+01 -0.15698090807E+04  0.15698383560E+04  0.00000000000E+00 0.  1.
         12    1    3    3    0    0 -0.17836108282E+02 -0.23906466606E+02 -0.22971805053E+03  0.23164634390E+03  0.00000000000E+00 0. -1.
         13    1    5    5    0    0  0.30331376205E+02 -0.22038189369E+01  0.96428057259E+01  0.31903493581E+02  0.00000000000E+00 0. -1.
        -14    1    5    5    0    0  0.19987518727E+02  0.11727109574E+03  0.60961376201E+02  0.13367236135E+03  0.00000000000E+00 0.  1.
          5    1    4    4  501    0 -0.69330061075E+02 -0.67756570539E+02 -0.89664090087E+02  0.13211635656E+03  0.41800000000E+01 0. -1.
         -5    1    4    4    0  501  0.39812502791E+02 -0.32521350911E+02  0.45625842979E+01  0.51778018686E+02  0.41800000000E+01 0. -1.
</event>
<event>
11    1  0.8864208E-009  0.1682150E+03  0.7561462E-02  0.1079596E+00
         22   -1    0    0    0    0  0.00000000000E+00  0.00000000000E+00  0.58704227501E+03  0.58704227501E+03  0.00000000000E+00 0. -1.
         22   -1    0    0    0    0 -0.00000000000E+00 -0.00000000000E+00 -0.82733569956E+03  0.82733569956E+03  0.00000000000E+00 0.  1.
        -24    2    1    2    0    0 -0.11176278208E+03 -0.34191568079E+02 -0.72787007665E+03  0.74152871515E+03  0.80062501368E+02 0.  0.
         25    2    1    2    0    0  0.79258084659E+02 -0.17140592853E+02 -0.24535616313E+02  0.15109146803E+03  0.12510392214E+03 0.  0.
         24    2    1    2    0    0  0.32504697425E+02  0.51332160932E+02  0.51211226841E+03  0.52175779139E+03  0.79250686611E+02 0.  0.
        -11    1    5    5    0    0  0.67489435308E+01  0.37972496622E+02  0.81454825807E+02  0.90124066628E+02  0.00000000000E+00 0.  1.
         12    1    5    5    0    0  0.25755753894E+02  0.13359664310E+02  0.43065744260E+03  0.43163372477E+03  0.00000000000E+00 0. -1.
         13    1    3    3    0    0  0.83270904490E+01 -0.42298632365E+01 -0.16254607087E+03  0.16281418038E+03  0.00000000000E+00 0. -1.
        -14    1    3    3    0    0 -0.12008987253E+03 -0.29961704843E+02 -0.56532400578E+03  0.57871453477E+03  0.00000000000E+00 0.  1.
          5    1    4    4  501    0  0.49535373030E+02  0.44597519191E+02  0.19452156119E+02  0.69559691467E+02  0.41800000000E+01 0. -1.
         -5    1    4    4    0  501  0.29722711629E+02 -0.61738112044E+02 -0.43987772433E+02  0.81531776559E+02  0.41800000000E+01 0. -1.
</event>
<event>
11    1  0.8864208E-009  0.1458512E+03  0.7561462E-02  0.1101195E+00
         22   -1    0    0    0    0  0.00000000000E+00  0.00000000000E+00  0.18032864644E+04  0.18032864644E+04  0.00000000000E+00 0. -1.
         22   -1    0    0    0    0 -0.00000000000E+00 -0.00000000000E+00 -0.71543478372E+02  0.71543478372E+02  0.00000000000E+00 0.  1.
         24    2    1    2    0    0 -0.40376879137E+02 -0.61717472158E+02  0.15100362680E+01  0.11677914881E+03  0.90530385223E+02 0.  0.
         25    2    1    2    0    0  0.58893180677E+02  0.62281242704E+02  0.44173759276E+03  0.46704166248E+03  0.12509377965E+03 0.  0.
        -24    2    1    2    0    0 -0.18516301539E+02 -0.56377054623E+00  0.12884953570E+04  0.12910091315E+04  0.78365306837E+02 0.  0.
        -13    1    3    3    0    0  0.14913081136E+02 -0.40475659778E+02 -0.27161236099E+02  0.50974618879E+02  0.00000000000E+00 0.  1.
         14    1    3    3    0    0 -0.55289960273E+02 -0.21241812380E+02  0.28671272367E+02  0.65804529930E+02  0.00000000000E+00 0. -1.
         13    1    5    5    0    0  0.17549516471E+02 -0.19498395663E+02  0.90037257613E+03  0.90075465516E+03  0.00000000000E+00 0. -1.
        -14    1    5    5    0    0 -0.36065818010E+02  0.18934625117E+02  0.38812278091E+03  0.39025447636E+03  0.00000000000E+00 0.  1.
          5    1    4    4  501    0  0.29518735731E+02 -0.10656511174E+02  0.32312107370E+03  0.32466847346E+03  0.41800000000E+01 0.  1.
         -5    1    4    4    0  501  0.29374444946E+02  0.72937753878E+02  0.11861651906E+03  0.14237318902E+03  0.41800000000E+01 0.  1.
</event>
<event>
11    1  0.8864208E-009  0.2248967E+03  0.7561462E-02  0.1038193E+00
         22   -1    0    0    0    0  0.00000000000E+00  0.00000000000E+00  0.44788908924E+03  0.44788908924E+03  0.00000000000E+00 0.  1.
         22   -1    0    0    0    0 -0.00000000000E+00 -0.00000000000E+00 -0.11034569315E+04  0.11034569315E+04  0.00000000000E+00 0.  1.
        -24    2    1    2    0    0 -0.68158553313E+02  0.84015374345E+02 -0.70823802038E+03  0.72283221534E+03  0.95818299478E+02 0.  0.
         25    2    1    2    0    0 -0.24566498389E+00 -0.25405595352E+03 -0.30663580662E+03  0.41739429987E+03  0.12509194936E+03 0.  0.
         24    2    1    2    0    0  0.68404218297E+02  0.17004057918E+03  0.35930598470E+03  0.41111950557E+03  0.79533147603E+02 0.  0.
        -11    1    5    5    0    0  0.66805912361E+02  0.17122468912E+03  0.36302577745E+03  0.40690126466E+03  0.00000000000E+00 0.  1.
         12    1    5    5    0    0  0.15983059357E+01 -0.11841099459E+01 -0.37197927485E+01  0.42182409035E+01  0.00000000000E+00 0. -1.
         11    1    3    3    0    0 -0.16629479771E+01 -0.19794593201E+02 -0.13782649412E+03  0.13925061507E+03  0.00000000000E+00 0. -1.
        -12    1    3    3    0    0 -0.66495605336E+02  0.10380996755E+03 -0.57041152626E+03  0.58358160028E+03  0.00000000000E+00 0.  1.
          5    1    4    4  501    0  0.14112532203E+02  0.10335013031E+02 -0.25193278350E+02  0.30953993823E+02  0.41800000000E+01 0. -1.
         -5    1    4    4    0  501 -0.14358197187E+02 -0.26439096655E+03 -0.28144252827E+03  0.38644030605E+03  0.41800000000E+01 0. -1.
</event>
<event>
11    1  0.8864208E-009  0.1648635E+03  0.7561462E-02  0.1082590E+00
         22   -1    0    0    0    0  0.00000000000E+00  0.00000000000E+00  0.12002243360E+04  0.12002243360E+04  0.00000000000E+00 0. -1.
         22   -1    0    0    0    0 -0.00000000000E+00 -0.00000000000E+00 -0.12313010959E+03  0.12313010959E+03  0.00000000000E+00 0.  1.
         24    2    1    2    0    0  0.78763667230E+02  0.79177478143E+02 -0.19315483474E+02  0.13883113852E+03  0.80176111149E+02 0.  0.
         25    2    1    2    0    0 -0.46421830971E+02 -0.88338409664E+02  0.10951791704E+03  0.19390604274E+03  0.12508684281E+03 0.  0.
        -24    2    1    2    0    0 -0.32341836260E+02  0.91609315207E+01  0.98689179288E+03  0.99061726437E+03  0.78976177201E+02 0.  0.
        -13    1    3    3    0    0  0.49712790994E+02  0.91621551214E+02 -0.56302594707E+01  0.10439142712E+03  0.00000000000E+00 0.  1.
         14    1    3    3    0    0  0.29050876237E+02 -0.12444073071E+02 -0.13685224004E+02  0.34439711392E+02  0.00000000000E+00 0. -1.
         11    1    5    5    0    0 -0.44513552808E+02  0.32832933935E+02  0.79005651277E+03  0.79199037324E+03  0.00000000000E+00 0. -1.
        -12    1    5    5    0    0  0.12171716549E+02 -0.23672002415E+02  0.19683528011E+03  0.19862689113E+03  0.00000000000E+00 0.  1.
          5    1    4    4  501    0 -0.71152075058E+02 -0.78633070558E+02  0.12411812550E+03  0.16330511029E+03  0.41800000000E+01 0.  1.
         -5    1    4    4    0  501  0.24730244087E+02 -0.97053391053E+01 -0.14600208456E+02  0.30600932448E+02  0.41800000000E+01 0.  1.
</event>
<event>
11    1  0.8864208E-009  0.1440702E+03  0.7561462E-02  0.1103097E+00
         22   -1    0    0    0    0  0.00000000000E+00  0.00000000000E+00  0.38349275015E+03  0.38349275015E+03  0.00000000000E+00 0.  1.
         22   -1    0    0    0    0 -0.00000000000E+00 -0.00000000000E+00 -0.47477644431E+03  0.47477644431E+03  0.00000000000E+00 0. -1.
         24    2    1    2    0    0  0.13310448613E+02  0.14135941205E+02 -0.37887416798E+03  0.38692355362E+03  0.76073703158E+02 0.  0.
         25    2    1    2    0    0  0.15827253648E+02 -0.78605943551E+02 -0.15973645731E+02  0.14942224594E+03  0.12506979612E+03 0.  0.
        -24    2    1    2    0    0 -0.29137702262E+02  0.64470002346E+02  0.30356411954E+03  0.32192339490E+03  0.80486710799E+02 0.  0.
        -13    1    3    3    0    0  0.15152343812E+02  0.12279676444E+02 -0.19636174348E+02  0.27676042340E+02  0.00000000000E+00 0.  1.
         14    1    3    3    0    0 -0.18418951989E+01  0.18562647610E+01 -0.35923799363E+03  0.35924751128E+03  0.00000000000E+00 0. -1.
         13    1    5    5    0    0  0.16790591020E+02  0.25482327023E+02  0.33902872258E+02  0.45614446008E+02  0.00000000000E+00 0. -1.
        -14    1    5    5    0    0 -0.45928293282E+02  0.38987675323E+02  0.26966124729E+03  0.27630894889E+03  0.00000000000E+00 0.  1.
          5    1    4    4  501    0 -0.93724235661E+01  0.24585020177E+02 -0.32301217406E+02  0.41870115674E+02  0.41800000000E+01 0. -1.
         -5    1    4    4    0  501  0.25199677215E+02 -0.10319096373E+03  0.16327571675E+02  0.10755213026E+03  0.41800000000E+01 0. -1.
</event>
<event>
11    1  0.1026747E-008  0.1429051E+03  0.7561462E-02  0.1104357E+00
         22   -1    0    0    0    0  0.00000000000E+00  0.00000000000E+00  0.25519824859E+03  0.25519824859E+03  0.00000000000E+00 0. -1.
         22   -1    0    0    0    0 -0.00000000000E+00 -0.00000000000E+00 -0.17805848939E+04  0.17805848939E+04  0.00000000000E+00 0.  1.
         24    2    1    2    0    0 -0.45397285136E+02  0.16332284750E+02 -0.13853295313E+04  0.13884202216E+04  0.79026226460E+02 0.  0.
         25    2    1    2    0    0 -0.84115907700E+01  0.29169522570E+02 -0.37085872709E+03  0.39256324236E+03  0.12509231746E+03 0.  0.
        -24    2    1    2    0    0  0.53808875906E+02 -0.45501807320E+02  0.23080161309E+03  0.25479967850E+03  0.81778248737E+02 0.  0.
        -11    1    3    3    0    0 -0.15540742467E+02  0.23754006876E+02 -0.12151926959E+04  0.12155241897E+04  0.00000000000E+00 0.  1.
         12    1    3    3    0    0 -0.29856542669E+02 -0.74217221261E+01 -0.17013683538E+03  0.17289603192E+03  0.00000000000E+00 0. -1.
         13    1    5    5    0    0  0.68793331275E+02 -0.50861628563E+02  0.21860265933E+03  0.23474784419E+03  0.00000000000E+00 0. -1.
        -14    1    5    5    0    0 -0.14984455369E+02  0.53598212429E+01  0.12198953763E+02  0.20051834314E+02  0.00000000000E+00 0.  1.
          5    1    4    4  501    0  0.17583911476E+02  0.56501144745E+02 -0.33546413017E+03  0.34066879566E+03  0.41800000000E+01 0.  1.
         -5    1    4    4    0  501 -0.25995502246E+02 -0.27331622175E+02 -0.35394596914E+02  0.51894446702E+02  0.41800000000E+01 0.  1.
</event>
<event>
11    1  0.8864208E-009  0.1350118E+03  0.7561462E-02  0.1113260E+00
         22   -1    0    0    0    0  0.00000000000E+00  0.00000000000E+00  0.27287162818E+03  0.27287162818E+03  0.00000000000E+00 0.  1.
         22   -1    0    0    0    0 -0.00000000000E+00 -0.00000000000E+00 -0.47740127535E+03  0.47740127535E+03  0.00000000000E+00 0.  1.
        -24    2    1    2    0    0 -0.57273794555E+02  0.45365922939E+02 -0.22876947439E+03  0.25316601325E+03  0.80119931016E+02 0.  0.
         25    2    1    2    0    0  0.15065925732E+02 -0.11037312244E+02 -0.20898952229E+03  0.24427488299E+03  0.12507914956E+03 0.  0.
         24    2    1    2    0    0  0.42207868823E+02 -0.34328610695E+02  0.23322934951E+03  0.25283200728E+03  0.81044041930E+02 0.  0.
        -11    1    5    5    0    0  0.62753613422E+02 -0.38609242700E+02  0.20360975931E+03  0.21653088396E+03  0.00000000000E+00 0.  1.
         12    1    5    5    0    0 -0.20545744599E+02  0.42806320056E+01  0.29619590192E+02  0.36301123324E+02  0.00000000000E+00 0. -1.
         11    1    3    3    0    0  0.16553250598E+02 -0.44521077075E+01 -0.20970877100E+02  0.27085218381E+02  0.00000000000E+00 0. -1.
        -12    1    3    3    0    0 -0.73827045153E+02  0.49818030646E+02 -0.20779859729E+03  0.22608079487E+03  0.00000000000E+00 0.  1.
          5    1    4    4  501    0  0.48676885407E+02 -0.50948251482E+02 -0.14751279282E+03  0.16353183161E+03  0.41800000000E+01 0.  1.
         -5    1    4    4    0  501 -0.33610959674E+02  0.39910939238E+02 -0.61476729469E+02  0.80743051387E+02  0.41800000000E+01 0.  1.
</event>
<event>
11    1  0.8864208E-009  0.1677180E+03  0.7561462E-02  0.1080035E+00
         22   -1    0    0    0    0  0.00000000000E+00  0.00000000000E+00  0.46547965404E+03  0.46547965404E+03  0.00000000000E+00 0.  1.
         22   -1    0    0    0    0 -0.00000000000E+00 -0.00000000000E+00 -0.24813497044E+04  0.24813497044E+04  0.00000000000E+00 0.  1.
         24    2    1    2    0    0  0.41359523176E+02  0.36673966099E+02 -0.20122331686E+04  0.20146072670E+04  0.80650637588E+02 0.  0.
         25    2    1    2    0    0 -0.14249027679E+03  0.96040307343E+01 -0.43773100694E+03  0.47712817657E+03  0.12508855288E+03 0.  0.
        -24    2    1    2    0    0  0.10113075361E+03 -0.46277996833E+02  0.43409412524E+03  0.45509391484E+03  0.79395714243E+02 0.  0.
        -13    1    3    3    0    0  0.64034424396E+02  0.28132473676E+02 -0.16986744008E+04  0.17001136913E+04  0.00000000000E+00 0.  1.
         14    1    3    3    0    0 -0.22674901221E+02  0.85414924230E+01 -0.31355876783E+03  0.31449357564E+03  0.00000000000E+00 0. -1.
         13    1    5    5    0    0  0.64750780561E+02 -0.42029325035E+01  0.12299478178E+03  0.13906129789E+03  0.00000000000E+00 0. -1.
        -14    1    5    5    0    0  0.36379973052E+02 -0.42075064330E+02  0.31109934346E+03  0.31603261696E+03  0.00000000000E+00 0.  1.
          5    1    4    4  501    0 -0.67713900481E+02  0.54053600637E+02 -0.31440151491E+03  0.32614835434E+03  0.41800000000E+01 0.  1.
         -5    1    4    4    0  501 -0.74776376308E+02 -0.44449569903E+02 -0.12332949202E+03  0.15097982223E+03  0.41800000000E+01 0.  1.
</event>
<event>
11    1  0.8864208E-009  0.1886831E+03  0.7561462E-02  0.1062828E+00
         22   -1    0    0    0    0  0.00000000000E+00  0.00000000000E+00  0.91485729989E+02  0.91485729989E+02  0.00000000000E+00 0. -1.
         22   -1    0    0    0    0 -0.00000000000E+00 -0.00000000000E+00 -0.16673474085E+04  0.16673474085E+04  0.00000000000E+00 0.  1.
         24    2    1    2    0    0  0.14349319480E+03  0.20045090772E+02 -0.12010689532E+04  0.12124560868E+04  0.80566925245E+02 0.  0.
         25    2    1    2    0    0 -0.13204051972E+03  0.63638964403E+02 -0.38263696479E+03  0.42842116567E+03  0.12509608998E+03 0.  0.
        -24    2    1    2    0    0 -0.11452675079E+02 -0.83684055175E+02  0.78442395070E+01  0.11795588600E+03  0.81962638392E+02 0.  0.
        -13    1    3    3    0    0  0.13348846530E+03 -0.61456755567E+01 -0.10770181727E+04  0.10852765012E+04  0.00000000000E+00 0.  1.
         14    1    3    3    0    0  0.10004729503E+02  0.26190766328E+02 -0.12405078052E+03  0.12717958563E+03  0.00000000000E+00 0. -1.
         11    1    5    5    0    0  0.15750464229E+01 -0.35446130513E+02  0.43821681968E+02  0.56384827304E+02  0.00000000000E+00 0. -1.
        -12    1    5    5    0    0 -0.13027721502E+02 -0.48237924661E+02 -0.35977442461E+02  0.61571058698E+02  0.00000000000E+00 0.  1.
          5    1    4    4  501    0 -0.11947227758E+03  0.96664080703E+02 -0.27500345788E+03  0.31505863558E+03  0.41800000000E+01 0.  1.
         -5    1    4    4    0  501 -0.12568242139E+02 -0.33025116300E+02 -0.10763350691E+03  0.11336253009E+03  0.41800000000E+01 0.  1.
</event>
<event>
11    1  0.8864208E-009  0.1571715E+03  0.7561462E-02  0.1089768E+00
         22   -1    0    0    0    0  0.00000000000E+00  0.00000000000E+00  0.97280173806E+03  0.97280173806E+03  0.00000000000E+00 0. -1.
         22   -1    0    0    0    0 -0.00000000000E+00 -0.00000000000E+00 -0.16245555765E+04  0.16245555765E+04  0.00000000000E+00 0.  1.
         24    2    1    2    0    0 -0.25874184316E+02  0.54639408189E+02 -0.15675476959E+04  0.15707801630E+04  0.80558072546E+02 0.  0.
         25    2    1    2    0    0 -0.57826069857E+02 -0.98704862095E+00  0.42800378656E+02  0.14430380044E+03  0.12508751252E+03 0.  0.
        -24    2    1    2    0    0  0.83700254174E+02 -0.53652359568E+02  0.87299347885E+03  0.88227335112E+03  0.80027143814E+02 0.  0.
        -13    1    3    3    0    0 -0.29725127083E+02  0.72530832635E+02 -0.10560186091E+04  0.10589237969E+04  0.00000000000E+00 0.  1.
         14    1    3    3    0    0  0.38509427667E+01 -0.17891424446E+02 -0.51152908682E+03  0.51185636607E+03  0.00000000000E+00 0. -1.
         11    1    5    5    0    0  0.91785973137E+02 -0.34568137458E+02  0.55458762629E+03  0.56319362232E+03  0.00000000000E+00 0. -1.
        -12    1    5    5    0    0 -0.80857189632E+01 -0.19084222110E+02  0.31840585256E+03  0.31907972880E+03  0.00000000000E+00 0.  1.
          5    1    4    4  501    0 -0.57594418282E+02 -0.56550912352E+02  0.15673607411E+02  0.82330171106E+02  0.41800000000E+01 0.  1.
         -5    1    4    4    0  501 -0.23165157516E+00  0.55563863731E+02  0.27126771246E+02  0.61973629338E+02  0.41800000000E+01 0.  1.
</event>
<event>
11    1  0.8864208E-009  0.1532173E+03  0.7561462E-02  0.1093636E+00
         22   -1    0    0    0    0  0.00000000000E+00  0.00000000000E+00  0.22501662497E+04  0.22501662497E+04  0.00000000000E+00 0.  1.
         22   -1    0    0    0    0 -0.00000000000E+00 -0.00000000000E+00 -0.27500440275E+03  0.27500440275E+03  0.00000000000E+00 0.  1.
         24    2    1    2    0    0  0.89410022372E+02 -0.51388554626E+01 -0.25186925989E+03  0.27822905089E+03  0.77153877040E+02 0.  0.
         25    2    1    2    0    0 -0.47446936042E+02 -0.28546637261E+02  0.51222263209E+03  0.53017446784E+03  0.12508724670E+03 0.  0.
        -24    2    1    2    0    0 -0.41963086330E+02  0.33685492724E+02  0.17148084747E+04  0.17167671337E+04  0.61852027214E+02 0.  0.
        -11    1    3    3    0    0  0.10238097540E+03  0.32863305761E+00 -0.23447677488E+03  0.25585411875E+03  0.00000000000E+00 0.  1.
         12    1    3    3    0    0 -0.12970953028E+02 -0.54674885202E+01 -0.17392485012E+02  0.22374932136E+02  0.00000000000E+00 0. -1.
         13    1    5    5    0    0 -0.18698847230E+02  0.28918550120E+02  0.33718882325E+03  0.33894281517E+03  0.00000000000E+00 0. -1.
        -14    1    5    5    0    0 -0.23264239100E+02  0.47669426033E+01  0.13776196515E+04  0.13778243185E+04  0.00000000000E+00 0.  1.
          5    1    4    4  501    0 -0.69824601994E+02 -0.31900626979E+02  0.16328309471E+03  0.18047705245E+03  0.41800000000E+01 0.  1.
         -5    1    4    4    0  501  0.22377665952E+02  0.33539897173E+01  0.34893953738E+03  0.34969741539E+03  0.41800000000E+01 0.  1.
</event>
<event>
11    1  0.8864208E-009  0.1292295E+03  0.7561462E-02  0.1120219E+00
         22   -1    0    0    0    0  0.00000000000E+00  0.00000000000E+00  0.12166682421E+03  0.12166682421E+03  0.00000000000E+00 0.  1.
         22   -1    0    0    0    0 -0.00000000000E+00 -0.00000000000E+00 -0.10807457982E+04  0.10807457982E+04  0.00000000000E+00 0. -1.
         24    2    1    2    0    0  0.58500665815E+00  0.59559631403E+01 -0.80858377008E+03  0.81298094663E+03  0.84228799148E+02 0.  0.
         25    2    1    2    0    0 -0.69293279062E+01  0.26258712488E+02 -0.23512762830E+03  0.26771338060E+03  0.12509163439E+03 0.  0.
        -24    2    1    2    0    0  0.63443212480E+01 -0.32214675629E+02  0.84632424345E+02  0.12171829522E+03  0.81084279634E+02 0.  0.
        -11    1    3    3    0    0 -0.84499833814E+01  0.23050918366E+02 -0.70655130589E+02  0.74799027635E+02  0.00000000000E+00 0.  1.
         12    1    3    3    0    0  0.90349900395E+01 -0.17094955226E+02 -0.73792863950E+03  0.73818191899E+03  0.00000000000E+00 0. -1.
         11    1    5    5    0    0  0.38601081934E+02 -0.38604850715E+02  0.52310993465E+02  0.75609642655E+02  0.00000000000E+00 0. -1.
        -12    1    5    5    0    0 -0.32256760686E+02  0.63901750860E+01  0.32321430881E+02  0.46108652569E+02  0.00000000000E+00 0.  1.
          5    1    4    4  501    0 -0.53036933967E+02  0.46218360940E+02 -0.91495888435E+02  0.11549036000E+03  0.41800000000E+01 0.  1.
         -5    1    4    4    0  501  0.46107606061E+02 -0.19959648452E+02 -0.14363173987E+03  0.15222302060E+03  0.41800000000E+01 0.  1.
</event>
<event>
11    1  0.8864208E-009  0.1725047E+03  0.7561462E-02  0.1075872E+00
         22   -1    0    0    0    0  0.00000000000E+00  0.00000000000E+00  0.10960211837E+04  0.10960211837E+04  0.00000000000E+00 0. -1.
         22   -1    0    0    0    0 -0.00000000000E+00 -0.00000000000E+00 -0.92721556066E+02  0.92721556066E+02  0.00000000000E+00 0.  1.
        -24    2    1    2    0    0  0.48140937446E+02 -0.33090126496E+01 -0.23393977829E+02  0.96493543665E+02  0.80219862549E+02 0.  0.
         25    2    1    2    0    0 -0.12468812315E+03  0.83948560711E+02  0.34249485339E+03  0.39439201030E+03  0.12509134378E+03 0.  0.
         24    2    1    2    0    0  0.76547185700E+02 -0.80639548062E+02  0.68419875208E+03  0.69785718582E+03  0.80712521281E+02 0.  0.
        -11    1    5    5    0    0  0.10675506030E+02  0.14985693545E+02  0.53958341412E+02  0.57009122497E+02  0.00000000000E+00 0.  1.
         12    1    5    5    0    0  0.65871679669E+02 -0.95625241607E+02  0.63024041067E+03  0.64084806332E+03  0.00000000000E+00 0. -1.
         11    1    3    3    0    0  0.39931280793E+01  0.24820439345E+02 -0.34787165898E+02  0.42920230572E+02  0.00000000000E+00 0. -1.
        -12    1    3    3    0    0  0.44147809367E+02 -0.28129451995E+02  0.11393188069E+02  0.53573313093E+02  0.00000000000E+00 0.  1.
          5    1    4    4  501    0 -0.12172926478E+03  0.11267092331E+03  0.30036516698E+03  0.34314640724E+03  0.41800000000E+01 0. -1.
         -5    1    4    4    0  501 -0.29588583644E+01 -0.28722362598E+02  0.42129686405E+02  0.51245603056E+02  0.41800000000E+01 0. -1.
</event>
<event>
11    1  0.8864208E-009  0.1255907E+03  0.7561462E-02  0.1124808E+00
         22   -1    0    0    0    0  0.00000000000E+00  0.00000000000E+00  0.27721797286E+03  0.27721797286E+03  0.00000000000E+00 0. -1.
         22   -1    0    0    0    0 -0.00000000000E+00 -0.00000000000E+00 -0.53266336180E+03  0.53266336180E+03  0.00000000000E+00 0.  1.
        -24    2    1    2    0    0  0.35187452405E+01 -0.61393242385E+01 -0.29222565921E+03  0.30338465612E+03  0.81217860063E+02 0.  0.
         25    2    1    2    0    0 -0.82476675707E+01  0.23096246565E+02 -0.21081655406E+03  0.24635873705E+03  0.12509015641E+03 0.  0.
         24    2    1    2    0    0  0.47289223302E+01 -0.16956922326E+02  0.24759682434E+03  0.26013794149E+03  0.77830978773E+02 0.  0.
        -13    1    5    5    0    0  0.14466663296E+01 -0.34757434080E+02  0.23620052022E+03  0.23874852423E+03  0.00000000000E+00 0.  1.
         14    1    5    5    0    0  0.32822560006E+01  0.17800511754E+02  0.11396304116E+02  0.21389417258E+02  0.00000000000E+00 0. -1.
         11    1    3    3    0    0 -0.24145520681E+02  0.19882501044E+02 -0.56154433386E+02  0.64277837593E+02  0.00000000000E+00 0. -1.
        -12    1    3    3    0    0  0.27664265922E+02 -0.26021825283E+02 -0.23607122583E+03  0.23910681852E+03  0.00000000000E+00 0.  1.
          5    1    4    4  501    0 -0.49720607306E+02  0.81488627760E+01 -0.27062922180E+02  0.57344720004E+02  0.41800000000E+01 0.  1.
         -5    1    4    4    0  501  0.41472939735E+02  0.14947383789E+02 -0.18375363188E+03  0.18901401705E+03  0.41800000000E+01 0.  1.
</event>
<event>
11    1  0.1389392E-008  0.2228900E+03  0.7561462E-02  0.1039422E+00
         22   -1    0    0    0    0  0.00000000000E+00  0.00000000000E+00  0.12034956454E+04  0.12034956454E+04  0.00000000000E+00 0. -1.
         22   -1    0    0    0    0 -0.00000000000E+00 -0.00000000000E+00 -0.61692648544E+03  0.61692648544E+03  0.00000000000E+00 0. -1.
        -24    2    1    2    0    0 -0.79531826915E+00  0.56886562771E+02 -0.27526231164E+03  0.29265739170E+03  0.81500277034E+02 0.  0.
         25    2    1    2    0    0 -0.89896535573E+01 -0.23940076872E+03 -0.26644216356E+03  0.37951605692E+03  0.12508984372E+03 0.  0.
         24    2    1    2    0    0  0.97849718264E+01  0.18251420594E+03  0.11282736351E+04  0.11482486822E+04  0.10984743688E+03 0.  0.
        -13    1    5    5    0    0 -0.45355261710E+02  0.61110977531E+02  0.31142538168E+03  0.32058917589E+03  0.00000000000E+00 0.  1.
         14    1    5    5    0    0  0.55140233536E+02  0.12140322841E+03  0.81684825343E+03  0.82765950629E+03  0.00000000000E+00 0. -1.
         11    1    3    3    0    0 -0.73643543162E+01  0.58967630695E+02 -0.27869409957E+03  0.28495932398E+03  0.00000000000E+00 0. -1.
        -12    1    3    3    0    0  0.65690360470E+01 -0.20810679235E+01  0.34317879371E+01  0.76980677273E+01  0.00000000000E+00 0.  1.
          5    1    4    4  501    0  0.43134333289E+02 -0.10472605445E+03 -0.17513927223E+03  0.20861292929E+03  0.41800000000E+01 0.  1.
         -5    1    4    4    0  501 -0.52123986846E+02 -0.13467471426E+03 -0.91302891327E+02  0.17090312762E+03  0.41800000000E+01 0.  1.
</event>
<event>
11    1  0.8864208E-009  0.1423948E+03  0.7561462E-02  0.1104913E+00
         22   -1    0    0    0    0  0.00000000000E+00  0.00000000000E+00  0.11742901743E+03  0.11742901743E+03  0.00000000000E+00 0. -1.
         22   -1    0    0    0    0 -0.00000000000E+00 -0.00000000000E+00 -0.27600019341E+04  0.27600019341E+04  0.00000000000E+00 0. -1.
        -24    2    1    2    0    0  0.46350821465E+02  0.19089054638E+02 -0.24613502110E+04  0.24634807557E+04  0.89329623034E+02 0.  0.
         25    2    1    2    0    0  0.15110957529E+02  0.19847032064E+02 -0.25370837692E+03  0.28397774897E+03  0.12511265193E+03 0.  0.
         24    2    1    2    0    0 -0.61461778994E+02 -0.38936086702E+02  0.72485671282E+02  0.12997244688E+03  0.79656106376E+02 0.  0.
        -11    1    5    5    0    0 -0.30387817850E+02  0.23098269326E+02  0.20922395881E+02  0.43528107803E+02  0.00000000000E+00 0.  1.
         12    1    5    5    0    0 -0.31073961144E+02 -0.62034356028E+02  0.51563275401E+02  0.86444339081E+02  0.00000000000E+00 0. -1.
         13    1    3    3    0    0 -0.20539360558E+02 -0.84999295078E+01 -0.10869177494E+04  0.10871450262E+04  0.00000000000E+00 0. -1.
        -14    1    3    3    0    0  0.66890182023E+02  0.27588984146E+02 -0.13744324617E+04  0.13763357295E+04  0.00000000000E+00 0.  1.
          5    1    4    4  501    0  0.59717987587E+01 -0.46831457201E+02 -0.17002439590E+03  0.17650670062E+03  0.41800000000E+01 0. -1.
         -5    1    4    4    0  501  0.91391587702E+01  0.66678489265E+02 -0.83683981019E+02  0.10747104835E+03  0.41800000000E+01 0. -1.
</event>
<event>
11    1  0.8864208E-009  0.3233693E+03  0.7561462E-02  0.9907588E-01
         22   -1    0    0    0    0  0.00000000000E+00  0.00000000000E+00  0.60044096285E+03  0.60044096285E+03  0.00000000000E+00 0.  1.
         22   -1    0    0    0    0 -0.00000000000E+00 -0.00000000000E+00 -0.10776873051E+04  0.10776873051E+04  0.00000000000E+00 0. -1.
        -24    2    1    2    0    0 -0.36917722715E+02  0.12975815582E+03 -0.86209370933E+03  0.87614411535E+03  0.78885042542E+02 0.  0.
         25    2    1    2    0    0 -0.18679413805E+03  0.11589783614E+03 -0.41490837175E+02  0.25630868905E+03  0.12509314961E+03 0.  0.
         24    2    1    2    0    0  0.22371186076E+03 -0.24565599196E+03  0.42633820426E+03  0.54567546356E+03  0.74857091091E+02 0.  0.
        -13    1    5    5    0    0  0.10436724251E+03 -0.89987352596E+02  0.12459486784E+03  0.18577977831E+03  0.00000000000E+00 0.  1.
         14    1    5    5    0    0  0.11934461825E+03 -0.15566863936E+03  0.30174333642E+03  0.35989568525E+03  0.00000000000E+00 0. -1.
         11    1    3    3    0    0 -0.23521665407E+02  0.65569028292E+02 -0.66029206979E+03  0.66395646216E+03  0.00000000000E+00 0. -1.
        -12    1    3    3    0    0 -0.13396057308E+02  0.64189127527E+02 -0.20180163954E+03  0.21218765319E+03  0.00000000000E+00 0.  1.
          5    1    4    4  501    0 -0.68556303520E+02  0.10718082553E+03  0.84793192357E+01  0.12758161062E+03  0.41800000000E+01 0. -1.
         -5    1    4    4    0  501 -0.11823783453E+03  0.87170106070E+01 -0.49970156411E+02  0.12872707842E+03  0.41800000000E+01 0. -1.
</event>
<event>
11    1  0.8864208E-009  0.1607134E+03  0.7561462E-02  0.1086408E+00
         22   -1    0    0    0    0  0.00000000000E+00  0.00000000000E+00  0.26218201311E+03  0.26218201311E+03  0.00000000000E+00 0.  1.
         22   -1    0    0    0    0 -0.00000000000E+00 -0.00000000000E+00 -0.12021773824E+04  0.12021773824E+04  0.00000000000E+00 0. -1.
         24    2    1    2    0    0 -0.10244155665E+03  0.75234700137E+01 -0.99893860047E+03  0.10066866988E+04  0.70632194576E+02 0.  0.
         25    2    1    2    0    0  0.86800503320E+02  0.56756526385E+02 -0.15159088978E+03  0.22222282188E+03  0.12509018361E+03 0.  0.
        -24    2    1    2    0    0  0.15641053333E+02 -0.64279996399E+02  0.21053412091E+03  0.23544987487E+03  0.82069891093E+02 0.  0.
        -11    1    3    3    0    0 -0.71390173311E+02 -0.15020223475E+02 -0.40560140632E+03  0.41211001537E+03  0.00000000000E+00 0.  1.
         12    1    3    3    0    0 -0.31051383342E+02  0.22543693489E+02 -0.59333719415E+03  0.59457668344E+03  0.00000000000E+00 0. -1.
         11    1    5    5    0    0  0.25697947768E+02 -0.67575643348E+02  0.94745936461E+02  0.11917904417E+03  0.00000000000E+00 0. -1.
        -12    1    5    5    0    0 -0.10056894435E+02  0.32956469484E+01  0.11578818445E+03  0.11627083070E+03  0.00000000000E+00 0.  1.
          5    1    4    4  501    0  0.10911812924E+03  0.72738066221E+02 -0.14073623403E+03  0.19241037492E+03  0.41800000000E+01 0.  1.
         -5    1    4    4    0  501 -0.22317625923E+02 -0.15981539836E+02 -0.10854655743E+02  0.29812446959E+02  0.41800000000E+01 0.  1.
</event>
<event>
11    1  0.8864208E-009  0.4638592E+03  0.7561462E-02  0.9478115E-01
         22   -1    0    0    0    0  0.00000000000E+00  0.00000000000E+00  0.88624416281E+03  0.88624416281E+03  0.00000000000E+00 0.  1.
         22   -1    0    0    0    0 -0.00000000000E+00 -0.00000000000E+00 -0.18656100021E+04  0.18656100021E+04  0.00000000000E+00 0.  1.
         24    2    1    2    0    0  0.44192726577E+03  0.58719766122E+02 -0.11214530443E+04  0.12094641737E+04  0.79993360428E+02 0.  0.
         25    2    1    2    0    0 -0.44495817955E+03 -0.53955093508E+02 -0.62041522646E+03  0.77553869275E+03  0.12508507931E+03 0.  0.
        -24    2    1    2    0    0  0.30309137784E+01 -0.47646726141E+01  0.76250243154E+03  0.76685129840E+03  0.81357650050E+02 0.  0.
        -13    1    3    3    0    0  0.34692063376E+03  0.12250147101E+02 -0.85344969782E+03  0.92134704587E+03  0.00000000000E+00 0.  1.
         14    1    3    3    0    0  0.95006632010E+02  0.46469619021E+02 -0.26800334650E+03  0.28811712784E+03  0.00000000000E+00 0. -1.
         13    1    5    5    0    0 -0.91116925238E+01 -0.22045973824E+02  0.68631666153E+02  0.72659159790E+02  0.00000000000E+00 0. -1.
        -14    1    5    5    0    0  0.12142606302E+02  0.17281301210E+02  0.69387076538E+03  0.69419213861E+03  0.00000000000E+00 0.  1.
          5    1    4    4  501    0 -0.38050732404E+03 -0.14202746053E+02 -0.56609457198E+03  0.68225221031E+03  0.41800000000E+01 0.  1.
         -5    1    4    4    0  501 -0.64450855503E+02 -0.39752347455E+02 -0.54320654488E+02  0.93286482447E+02  0.41800000000E+01 0.  1.
</event>
<event>
11    1  0.8864208E-009  0.3177664E+03  0.7561462E-02  0.9929404E-01
         22   -1    0    0    0    0  0.00000000000E+00  0.00000000000E+00  0.62376792389E+03  0.62376792389E+03  0.00000000000E+00 0.  1.
         22   -1    0    0    0    0 -0.00000000000E+00 -0.00000000000E+00 -0.30959095277E+03  0.30959095277E+03  0.00000000000E+00 0.  1.
        -24    2    1    2    0    0  0.34433519449E+02 -0.48869577945E+02 -0.50210022566E+02  0.11224423669E+03  0.80646260878E+02 0.  0.
         25    2    1    2    0    0 -0.31143328832E+03  0.10301577323E+03 -0.28398954605E+01  0.35108360362E+03  0.12509472057E+03 0.  0.
         24    2    1    2    0    0  0.27699976887E+03 -0.54146195288E+02  0.36722688915E+03  0.47003103635E+03  0.80080613109E+02 0.  0.
        -13    1    5    5    0    0  0.17548790372E+03 -0.70852054090E+02  0.21669147301E+03  0.28769986513E+03  0.00000000000E+00 0.  1.
         14    1    5    5    0    0  0.10151186515E+03  0.16705858802E+02  0.15053541614E+03  0.18233117122E+03  0.00000000000E+00 0. -1.
         11    1    3    3    0    0  0.12398637148E+02  0.22352641428E+02 -0.92705880638E+01  0.27190266365E+02  0.00000000000E+00 0. -1.
        -12    1    3    3    0    0  0.22034882301E+02 -0.71222219373E+02 -0.40939434502E+02  0.85053970324E+02  0.00000000000E+00 0.  1.
          5    1    4    4  501    0 -0.29400570298E+03  0.58519950927E+02  0.14302150708E+02  0.30014323573E+03  0.41800000000E+01 0. -1.
         -5    1    4    4    0  501 -0.17427585341E+02  0.44495822306E+02 -0.17142046169E+02  0.50940367886E+02  0.41800000000E+01 0. -1.
</event>
<event>
11    1  0.8864208E-009  0.1353072E+03  0.7561462E-02  0.1112915E+00
         22   -1    0    0    0    0  0.00000000000E+00  0.00000000000E+00  0.62238706428E+03  0.62238706428E+03  0.00000000000E+00 0. -1.
         22   -1    0    0    0    0 -0.00000000000E+00 -0.00000000000E+00 -0.57541591093E+03  0.57541591093E+03  0.00000000000E+00 0.  1.
         24    2    1    2    0    0 -0.99534160724E+01 -0.51951316536E+02 -0.48353189389E+03  0.49385685525E+03  0.85401939608E+02 0.  0.
         25    2    1    2    0    0 -0.23890056578E+01  0.39568525953E+02 -0.32348979503E+02  0.13514868445E+03  0.12508930746E+03 0.  0.
        -24    2    1    2    0    0  0.12342421730E+02  0.12382790583E+02  0.56285202675E+03  0.56879743550E+03  0.80140188074E+02 0.  0.
        -11    1    3    3    0    0 -0.87604884111E+01 -0.31147892571E+02 -0.46453208725E+03  0.46565759680E+03  0.00000000000E+00 0.  1.
         12    1    3    3    0    0 -0.11929276614E+01 -0.20803423965E+02 -0.18999806638E+02  0.28199258454E+02  0.00000000000E+00 0. -1.
         13    1    5    5    0    0 -0.94727230191E+01  0.18323692166E+02  0.51945007569E+03  0.51985947265E+03  0.00000000000E+00 0. -1.
        -14    1    5    5    0    0  0.21815144749E+02 -0.59409015831E+01  0.43401951060E+02  0.48937962849E+02  0.00000000000E+00 0.  1.
          5    1    4    4  501    0  0.55926354573E+02  0.20641346809E+02  0.98990655900E+01  0.60574633581E+02  0.41800000000E+01 0. -1.
         -5    1    4    4    0  501 -0.58315360231E+02  0.18927179144E+02 -0.42248045093E+02  0.74574050871E+02  0.41800000000E+01 0. -1.
</event>
<event>
11    1  0.8864208E-009  0.1524172E+03  0.7561462E-02  0.1094434E+00
         22   -1    0    0    0    0  0.00000000000E+00  0.00000000000E+00  0.52444834183E+03  0.52444834183E+03  0.00000000000E+00 0. -1.
         22   -1    0    0    0    0 -0.00000000000E+00 -0.00000000000E+00 -0.41667328485E+03  0.41667328485E+03  0.00000000000E+00 0.  1.
        -24    2    1    2    0    0  0.11183414083E+02 -0.93983267448E+01 -0.34003757277E+03  0.34982186871E+03  0.80847953808E+02 0.  0.
         25    2    1    2    0    0 -0.87283242547E+02  0.48196059994E+02  0.37637571643E+02  0.16433168059E+03  0.12508832806E+03 0.  0.
         24    2    1    2    0    0  0.76099828463E+02 -0.38797733249E+02  0.41017505811E+03  0.42696807738E+03  0.82229634602E+02 0.  0.
        -11    1    5    5    0    0 -0.64847925634E+01 -0.79390648877E+01  0.34776401248E+01  0.10824752502E+02  0.00000000000E+00 0.  1.
         12    1    5    5    0    0  0.82584621027E+02 -0.30858668361E+02  0.40669741799E+03  0.41614332488E+03  0.00000000000E+00 0. -1.
         13    1    3    3    0    0 -0.52581039699E+01 -0.43189449563E+02 -0.15406607378E+03  0.16009163407E+03  0.00000000000E+00 0. -1.
        -14    1    3    3    0    0  0.16441518053E+02  0.33791122818E+02 -0.18597149900E+03  0.18973023464E+03  0.00000000000E+00 0.  1.
          5    1    4    4  501    0 -0.62604552602E+02  0.63458575758E+02  0.75188348997E+02  0.11669224939E+03  0.41800000000E+01 0.  1.
         -5    1    4    4    0  501 -0.24678689945E+02 -0.15262515764E+02 -0.37550777354E+02  0.47639431196E+02  0.41800000000E+01 0.  1.
</event>
<event>
11    1  0.8864208E-009  0.1632737E+03  0.7561462E-02  0.1084038E+00
         22   -1    0    0    0    0  0.00000000000E+00  0.00000000000E+00  0.35757907598E+02  0.35757907598E+02  0.00000000000E+00 0. -1.
         22   -1    0    0    0    0 -0.00000000000E+00 -0.00000000000E+00 -0.28407676458E+04  0.28407676458E+04  0.00000000000E+00 0. -1.
         24    2    1    2    0    0  0.67878639647E+01 -0.30554719195E+02 -0.12033542837E+04  0.12064149318E+04  0.79973680360E+02 0.  0.
         25    2    1    2    0    0 -0.11100980749E+03  0.23086323321E+02 -0.14866939201E+04  0.14962496595E+04  0.12509226875E+03 0.  0.
        -24    2    1    2    0    0  0.10422194352E+03  0.74683958746E+01 -0.11496153435E+03  0.17386096211E+03  0.78060805247E+02 0.  0.
        -11    1    3    3    0    0  0.50703681870E+01  0.16488244787E+02 -0.70382943420E+02  0.72466058084E+02  0.00000000000E+00 0.  1.
         12    1    3    3    0    0  0.17174957777E+01 -0.47042963983E+02 -0.11329713403E+04  0.11339488737E+04  0.00000000000E+00 0. -1.
         13    1    5    5    0    0  0.98483926208E+02  0.71107328955E+01 -0.53831162592E+02  0.11246083901E+03  0.00000000000E+00 0. -1.
        -14    1    5    5    0    0  0.57380173154E+01  0.35766297914E+00 -0.61130371761E+02  0.61400123103E+02  0.00000000000E+00 0.  1.
          5    1    4    4  501    0 -0.10075429605E+03  0.24637389322E+02 -0.14790861413E+04  0.14827244231E+04  0.41800000000E+01 0.  1.
         -5    1    4    4    0  501 -0.10255511437E+02 -0.15510660016E+01 -0.76077788554E+01  0.13525236401E+02  0.41800000000E+01 0.  1.
</event>
<event>
11    1  0.8864208E-009  0.1335092E+03  0.7561462E-02  0.1115031E+00
         22   -1    0    0    0    0  0.00000000000E+00  0.00000000000E+00  0.90995171488E+03  0.90995171488E+03  0.00000000000E+00 0.  1.
         22   -1    0    0    0    0 -0.00000000000E+00 -0.00000000000E+00 -0.15416590818E+03  0.15416590818E+03  0.00000000000E+00 0.  1.
        -24    2    1    2    0    0  0.26356676185E+02 -0.19129166308E+01 -0.11307647100E+03  0.14109624316E+03  0.80146914544E+02 0.  0.
         25    2    1    2    0    0 -0.24039094199E+02 -0.44975906658E+02  0.16654057270E+03  0.21443597900E+03  0.12508523697E+03 0.  0.
         24    2    1    2    0    0 -0.23175819863E+01  0.46888823289E+02  0.70232170499E+03  0.70858540090E+03  0.81446670439E+02 0.  0.
        -11    1    5    5    0    0 -0.33321617710E+02  0.29190494713E+02  0.56378895723E+03  0.56552666028E+03  0.00000000000E+00 0.  1.
         12    1    5    5    0    0  0.31004035724E+02  0.17698328576E+02  0.13853274776E+03  0.14305874062E+03  0.00000000000E+00 0. -1.
         13    1    3    3    0    0  0.51211024634E+02 -0.59311045659E+01 -0.10050342979E+03  0.11295435559E+03  0.00000000000E+00 0. -1.
        -14    1    3    3    0    0 -0.24854348449E+02  0.40181879350E+01 -0.12573041203E+02  0.28141887573E+02  0.00000000000E+00 0.  1.
          5    1    4    4  501    0  0.23703590114E+02 -0.67152678188E+02  0.51901750928E+02  0.88219082525E+02  0.41800000000E+01 0. -1.
         -5    1    4    4    0  501 -0.47742684313E+02  0.22176771530E+02  0.11463882177E+03  0.12621689648E+03  0.41800000000E+01 0. -1.
</event>
<event>
11    1  0.8864208E-009  0.1639382E+03  0.7561462E-02  0.1083431E+00
         22   -1    0    0    0    0  0.00000000000E+00  0.00000000000E+00  0.57986216454E+03  0.57986216454E+03  0.00000000000E+00 0.  1.
         22   -1    0    0    0    0 -0.00000000000E+00 -0.00000000000E+00 -0.84234592010E+03  0.84234592010E+03  0.00000000000E+00 0. -1.
         24    2    1    2    0    0  0.88143871274E+02  0.59296003681E+02 -0.71109945890E+03  0.72352089773E+03  0.80837435072E+02 0.  0.
         25    2    1    2    0    0 -0.71914162741E+02 -0.77835054849E+02 -0.66417571443E+02  0.17689649624E+03  0.12510449241E+03 0.  0.
        -24    2    1    2    0    0 -0.16229708533E+02  0.18539051168E+02  0.51503327479E+03  0.52179069067E+03  0.79994692766E+02 0.  0.
        -13    1    3    3    0    0  0.52293828189E+02 -0.11332021634E+02 -0.24922037736E+03  0.25489969727E+03  0.00000000000E+00 0.  1.
         14    1    3    3    0    0  0.35850043085E+02  0.70628025315E+02 -0.46187908154E+03  0.46862120046E+03  0.00000000000E+00 0. -1.
         13    1    5    5    0    0  0.10293969068E+01 -0.30797334397E+02  0.16134908715E+03  0.16426522270E+03  0.00000000000E+00 0. -1.
        -14    1    5    5    0    0 -0.17259105440E+02  0.49336385565E+02  0.35368418764E+03  0.35752546797E+03  0.00000000000E+00 0.  1.
          5    1    4    4  501    0 -0.29011725511E+02  0.24074371980E+02 -0.53374512697E+02  0.65479512895E+02  0.41800000000E+01 0.  1.
         -5    1    4    4    0  501 -0.42902437230E+02 -0.10190942683E+03 -0.13043058746E+02  0.11141698335E+03  0.41800000000E+01 0.  1.
</event>
<event>
11    1  0.8864208E-009  0.1664455E+03  0.7561462E-02  0.1081167E+00
         22   -1    0    0    0    0  0.00000000000E+00  0.00000000000E+00  0.69087325208E+03  0.69087325208E+03  0.00000000000E+00 0.  1.
         22   -1    0    0    0    0 -0.00000000000E+00 -0.00000000000E+00 -0.15038061447E+04  0.15038061447E+04  0.00000000000E+00 0.  1.
        -24    2    1    2    0    0 -0.44657836681E+02  0.10236266106E+03 -0.13489488694E+04  0.13557983205E+04  0.77804863514E+02 0.  0.
         25    2    1    2    0    0  0.39642084536E+02 -0.78910686896E+02 -0.10914651562E+03  0.18803904328E+03  0.12508928233E+03 0.  0.
         24    2    1    2    0    0  0.50157521449E+01 -0.23451974167E+02  0.64516249237E+03  0.65084203305E+03  0.82374495847E+02 0.  0.
        -11    1    5    5    0    0  0.20829188052E+02 -0.49714832329E+02  0.46171345500E+03  0.46484915204E+03  0.00000000000E+00 0.  1.
         12    1    5    5    0    0 -0.15813435907E+02  0.26262858162E+02  0.18344903737E+03  0.18599288101E+03  0.00000000000E+00 0. -1.
         13    1    3    3    0    0 -0.52290819196E+02  0.27371712671E+02 -0.70079455628E+03  0.70327558648E+03  0.00000000000E+00 0. -1.
        -14    1    3    3    0    0  0.76329825144E+01  0.74990948392E+02 -0.64815431314E+03  0.65252273401E+03  0.00000000000E+00 0.  1.
          5    1    4    4  501    0  0.32649256838E+02 -0.11319339157E+03 -0.84215568334E+02  0.14487391834E+03  0.41800000000E+01 0.  1.
         -5    1    4    4    0  501  0.69928276985E+01  0.34282704669E+02 -0.24930947287E+02  0.43165124942E+02  0.41800000000E+01 0.  1.
</event>
<event>
11    1  0.8864208E-009  0.2529603E+03  0.7561462E-02  0.1022334E+00
         22   -1    0    0    0    0  0.00000000000E+00  0.00000000000E+00  0.93244222729E+02  0.93244222729E+02  0.00000000000E+00 0.  1.
         22   -1    0    0    0    0 -0.00000000000E+00 -0.00000000000E+00 -0.40935253802E+04  0.40935253802E+04  0.00000000000E+00 0.  1.
        -24    2    1    2    0    0 -0.31406193381E+02  0.29507234159E+02 -0.29348161199E+04  0.29362466483E+04  0.80880751162E+02 0.  0.
         25    2    1    2    0    0 -0.16750805935E+03 -0.12836313248E+03 -0.96120452924E+03  0.99201685165E+03  0.12508894120E+03 0.  0.
         24    2    1    2    0    0  0.19891425273E+03  0.98855898322E+02 -0.10426050825E+03  0.25850610293E+03  0.81337464310E+02 0.  0.
        -11    1    5    5    0    0  0.11500839421E+03  0.15762893480E+02 -0.33414735005E+02  0.12079711944E+03  0.00000000000E+00 0.  1.
         12    1    5    5    0    0  0.83905858522E+02  0.83093004842E+02 -0.70845773242E+02  0.13770898349E+03  0.00000000000E+00 0. -1.
         11    1    3    3    0    0  0.79561498393E+01 -0.21829514656E+02 -0.46130545247E+03  0.46189019097E+03  0.00000000000E+00 0. -1.
        -12    1    3    3    0    0 -0.39362343220E+02  0.51336748815E+02 -0.24735106675E+04  0.24743564573E+04  0.00000000000E+00 0.  1.
          5    1    4    4  501    0 -0.78462078286E+02 -0.19617015306E+02 -0.16866831749E+03  0.18710317673E+03  0.41800000000E+01 0.  1.
         -5    1    4    4    0  501 -0.89045981068E+02 -0.10874611718E+03 -0.79253621175E+03  0.80491367492E+03  0.41800000000E+01 0.  1.
</event>
<event>
11    1  0.8864208E-009  0.1931926E+03  0.7561462E-02  0.1059445E+00
         22   -1    0    0    0    0  0.00000000000E+00  0.00000000000E+00  0.28228589837E+04  0.28228589837E+04  0.00000000000E+00 0. -1.
         22   -1    0    0    0    0 -0.00000000000E+00 -0.00000000000E+00 -0.16350730346E+03  0.16350730346E+03  0.00000000000E+00 0. -1.
         24    2    1    2    0    0 -0.79087895584E+02 -0.12295624031E+03 -0.10160546713E+03  0.19534930252E+03  0.80402405331E+02 0.  0.
         25    2    1    2    0    0  0.19529442073E+02  0.18694401664E+03  0.96622824921E+03  0.99225618134E+03  0.12508331375E+03 0.  0.
        -24    2    1    2    0    0  0.59558453511E+02 -0.63987776326E+02  0.17947288981E+04  0.17987608033E+04  0.82746387948E+02 0.  0.
        -13    1    3    3    0    0 -0.20020923761E+02  0.43910247837E+01  0.24043428620E+01  0.20637329078E+02  0.00000000000E+00 0.  1.
         14    1    3    3    0    0 -0.59066971823E+02 -0.12734726510E+03 -0.10400980999E+03  0.17471197344E+03  0.00000000000E+00 0. -1.
         13    1    5    5    0    0  0.63361291371E+02 -0.52449430289E+02  0.85367211096E+03  0.85762559955E+03  0.00000000000E+00 0. -1.
        -14    1    5    5    0    0 -0.38028378598E+01 -0.11538346037E+02  0.94105678718E+03  0.94113520373E+03  0.00000000000E+00 0.  1.
          5    1    4    4  501    0 -0.33637450583E+02  0.62451284306E+02  0.16482253557E+03  0.17948699570E+03  0.41800000000E+01 0. -1.
         -5    1    4    4    0  501  0.53166892655E+02  0.12449273233E+03  0.80140571365E+03  0.81276918565E+03  0.41800000000E+01 0. -1.
</event>
<event>
11    1  0.8864208E-009  0.1640586E+03  0.7561462E-02  0.1083321E+00
         22   -1    0    0    0    0  0.00000000000E+00  0.00000000000E+00  0.61261860840E+03  0.61261860840E+03  0.00000000000E+00 0.  1.
         22   -1    0    0    0    0 -0.00000000000E+00 -0.00000000000E+00 -0.13507702515E+03  0.13507702515E+03  0.00000000000E+00 0.  1.
         24    2    1    2    0    0 -0.20491951793E+02 -0.95341458881E+02 -0.42875846868E+02  0.13380653768E+03  0.80968743425E+02 0.  0.
         25    2    1    2    0    0  0.20993628497E+02  0.17209687290E+03  0.31853171936E+03  0.38362477215E+03  0.12508974166E+03 0.  0.
        -24    2    1    2    0    0 -0.50167670339E+00 -0.76755414016E+02  0.20188571075E+03  0.23026432371E+03  0.79825893717E+02 0.  0.
        -13    1    3    3    0    0  0.25029025473E+01 -0.10258833519E+03 -0.35704097507E+02  0.10865272025E+03  0.00000000000E+00 0.  1.
         14    1    3    3    0    0 -0.22994854340E+02  0.72468763137E+01 -0.71717493608E+01  0.25153817431E+02  0.00000000000E+00 0. -1.
         13    1    5    5    0    0 -0.18902311020E+02  0.90169007310E+01  0.58909609045E+02  0.62521547473E+02  0.00000000000E+00 0. -1.
        -14    1    5    5    0    0  0.18400634316E+02 -0.85772314747E+02  0.14297610171E+03  0.16774277624E+03  0.00000000000E+00 0.  1.
          5    1    4    4  501    0 -0.42791629642E+02  0.10232940637E+03  0.11863003302E+03  0.16245918906E+03  0.41800000000E+01 0. -1.
         -5    1    4    4    0  501  0.63785258138E+02  0.69767466527E+02  0.19990168634E+03  0.22116558309E+03  0.41800000000E+01 0. -1.
</event>
<event>
11    1  0.8864208E-009  0.2976049E+03  0.7561462E-02  0.1001210E+00
         22   -1    0    0    0    0  0.00000000000E+00  0.00000000000E+00  0.33848052161E+03  0.33848052161E+03  0.00000000000E+00 0.  1.
         22   -1    0    0    0    0 -0.00000000000E+00 -0.00000000000E+00 -0.15187884902E+04  0.15187884902E+04  0.00000000000E+00 0. -1.
         24    2    1    2    0    0 -0.22133816361E+02  0.25368239558E+03 -0.10826639953E+04  0.11150733732E+04  0.79891408831E+02 0.  0.
         25    2    1    2    0    0  0.58724912310E+00 -0.35489998625E+03 -0.31295868889E+03  0.48943208894E+03  0.12508510555E+03 0.  0.
        -24    2    1    2    0    0  0.21546567237E+02  0.10121759067E+03  0.21531471561E+03  0.25276354968E+03  0.82581656982E+02 0.  0.
        -13    1    3    3    0    0 -0.17152251602E+02  0.12507075585E+03 -0.37169527348E+03  0.39254843018E+03  0.00000000000E+00 0.  1.
         14    1    3    3    0    0 -0.49815647584E+01  0.12861163973E+03 -0.71096872187E+03  0.72252494305E+03  0.00000000000E+00 0. -1.
         13    1    5    5    0    0 -0.13219581390E+02 -0.80663667513E+00  0.15144076553E+01  0.13330469812E+02  0.00000000000E+00 0. -1.
        -14    1    5    5    0    0  0.34766148627E+02  0.10202422735E+03  0.21380030795E+03  0.23943307987E+03  0.00000000000E+00 0.  1.
          5    1    4    4  501    0 -0.22107435425E+02 -0.35012115551E+03 -0.30397760667E+03  0.46421268832E+03  0.41800000000E+01 0.  1.
         -5    1    4    4    0  501  0.22694684548E+02 -0.47788307381E+01 -0.89810822196E+01  0.25219400623E+02  0.41800000000E+01 0.  1.
</event>
<event>
11    1  0.8864208E-009  0.2301072E+03  0.7561462E-02  0.1035065E+00
         22   -1    0    0    0    0  0.00000000000E+00  0.00000000000E+00  0.12494342485E+04  0.12494342485E+04  0.00000000000E+00 0.  1.
         22   -1    0    0    0    0 -0.00000000000E+00 -0.00000000000E+00 -0.98635623090E+03  0.98635623090E+03  0.00000000000E+00 0.  1.
        -24    2    1    2    0    0 -0.31652210213E+01  0.40936550916E+02 -0.93228996423E+03  0.93660442855E+03  0.79858990439E+02 0.  0.
         25    2    1    2    0    0  0.48722272007E+02  0.15607244163E+03  0.22594893159E+03  0.30566818922E+03  0.12509058873E+03 0.  0.
         24    2    1    2    0    0 -0.45557050985E+02 -0.19700899255E+03  0.96941905023E+03  0.99351786162E+03  0.80102798808E+02 0.  0.
        -11    1    5    5    0    0  0.20287972722E+02 -0.86227642563E+02  0.38542092822E+03  0.39546946796E+03  0.00000000000E+00 0.  1.
         12    1    5    5    0    0 -0.65845023707E+02 -0.11078134998E+03  0.58399812201E+03  0.59804839366E+03  0.00000000000E+00 0. -1.
         11    1    3    3    0    0  0.36536051380E+02  0.12041672906E+02 -0.30947130029E+03  0.31185312351E+03  0.00000000000E+00 0. -1.
        -12    1    3    3    0    0 -0.39701272401E+02  0.28894878010E+02 -0.62281866394E+03  0.62475130504E+03  0.00000000000E+00 0.  1.
          5    1    4    4  501    0  0.58869551164E+02  0.10432762600E+03  0.65219565498E+02  0.13645857146E+03  0.41800000000E+01 0.  1.
         -5    1    4    4    0  501 -0.10147279157E+02  0.51744815629E+02  0.16072936609E+03  0.16920961776E+03  0.41800000000E+01 0.  1.
</event>
<event>
11    1  0.8864208E-009  0.1953485E+03  0.7561462E-02  0.1057863E+00
         22   -1    0    0    0    0  0.00000000000E+00  0.00000000000E+00  0.15227625579E+04  0.15227625579E+04  0.00000000000E+00 0. -1.
         22   -1    0    0    0    0 -0.00000000000E+00 -0.00000000000E+00 -0.16786565469E+03  0.16786565469E+03  0.00000000000E+00 0.  1.
         24    2    1    2    0    0 -0.64849414712E+02 -0.44357687016E+02 -0.10412952665E+03  0.15435688989E+03  0.82522967403E+02 0.  0.
         25    2    1    2    0    0  0.11796580854E+03  0.17309815898E+03  0.42715470027E+03  0.49192138228E+03  0.12508638515E+03 0.  0.
        -24    2    1    2    0    0 -0.53116393826E+02 -0.12874047196E+03  0.10318717296E+04  0.10443499404E+04  0.80697405928E+02 0.  0.
        -11    1    3    3    0    0 -0.41068705164E+02  0.12779875449E+02 -0.73839854848E+02  0.85453425468E+02  0.00000000000E+00 0.  1.
         12    1    3    3    0    0 -0.23780709549E+02 -0.57137562464E+02 -0.30289671805E+02  0.68903464420E+02  0.00000000000E+00 0. -1.
         13    1    5    5    0    0 -0.42350091885E+02 -0.13692602421E+02  0.33894360330E+03  0.34185345378E+03  0.00000000000E+00 0. -1.
        -14    1    5    5    0    0 -0.10766301941E+02 -0.11504786954E+03  0.69292812630E+03  0.70249648665E+03  0.00000000000E+00 0.  1.
          5    1    4    4  501    0  0.66165558988E+01  0.18355842434E+02 -0.41164894629E+01  0.20374828807E+02  0.41800000000E+01 0.  1.
         -5    1    4    4    0  501  0.11134925264E+03  0.15474231654E+03  0.43127118974E+03  0.47154655347E+03  0.41800000000E+01 0.  1.
</event>
<event>
11    1  0.8864208E-009  0.3335400E+03  0.7561462E-02  0.9869174E-01
         22   -1    0    0    0    0  0.00000000000E+00  0.00000000000E+00  0.15959284345E+04  0.15959284345E+04  0.00000000000E+00 0.  1.
         22   -1    0    0    0    0 -0.00000000000E+00 -0.00000000000E+00 -0.16123081751E+04  0.16123081751E+04  0.00000000000E+00 0. -1.
         24    2    1    2    0    0  0.25024476063E+02 -0.37179200099E+02 -0.15246231617E+04  0.15274157857E+04  0.80713566893E+02 0.  0.
         25    2    1    2    0    0  0.42684188771E+02  0.33070695149E+03  0.42998446308E+03  0.55832173651E+03  0.12508994858E+03 0.  0.
        -24    2    1    2    0    0 -0.67708664833E+02 -0.29352775139E+03  0.10782589579E+04  0.11224990875E+04  0.81356111200E+02 0.  0.
        -11    1    3    3    0    0  0.41385627392E+02 -0.45187200849E+01 -0.39215715773E+03  0.39436078069E+03  0.00000000000E+00 0.  1.
         12    1    3    3    0    0 -0.16361151329E+02 -0.32660480014E+02 -0.11324660039E+04  0.11330550050E+04  0.00000000000E+00 0. -1.
         13    1    5    5    0    0 -0.45975928014E+02 -0.52670334878E+02  0.22255022658E+03  0.23327355933E+03  0.00000000000E+00 0. -1.
        -14    1    5    5    0    0 -0.21732736819E+02 -0.24085741651E+03  0.85570873136E+03  0.88922552813E+03  0.00000000000E+00 0.  1.
          5    1    4    4  501    0  0.67415876002E+01  0.26779204807E+03  0.39616871642E+03  0.47825218691E+03  0.41800000000E+01 0.  1.
         -5    1    4    4    0  501  0.35942601171E+02  0.62914903422E+02  0.33815746658E+02  0.80069549602E+02  0.41800000000E+01 0.  1.
</event>
<event>
11    1  0.8864208E-009  0.1407882E+03  0.7561462E-02  0.1106681E+00
         22   -1    0    0    0    0  0.00000000000E+00  0.00000000000E+00  0.62352633922E+03  0.62352633922E+03  0.00000000000E+00 0. -1.
         22   -1    0    0    0    0 -0.00000000000E+00 -0.00000000000E+00 -0.46576898310E+03  0.46576898310E+03  0.00000000000E+00 0.  1.
        -24    2    1    2    0    0  0.14069262860E+01 -0.65151673018E+02 -0.38440684588E+03  0.39788230880E+03  0.79340963954E+02 0.  0.
         25    2    1    2    0    0  0.49767673439E+00  0.59052228723E+02 -0.48791635338E+01  0.13841541070E+03  0.12509039245E+03 0.  0.
         24    2    1    2    0    0 -0.19046030204E+01  0.60994442948E+01  0.54704336553E+03  0.55299760283E+03  0.80678833816E+02 0.  0.
        -13    1    5    5    0    0 -0.25377949700E+02  0.23297931110E+02  0.45855564169E+03  0.45984792100E+03  0.00000000000E+00 0.  1.
         14    1    5    5    0    0  0.23473346680E+02 -0.17198486816E+02  0.88487723844E+02  0.93149681825E+02  0.00000000000E+00 0. -1.
         11    1    3    3    0    0 -0.38597860809E+02 -0.38677169073E+02 -0.21143514038E+03  0.21838163122E+03  0.00000000000E+00 0. -1.
        -12    1    3    3    0    0  0.40004787095E+02 -0.26474503945E+02 -0.17297170550E+03  0.17950067758E+03  0.00000000000E+00 0.  1.
          5    1    4    4  501    0 -0.13750107934E+02 -0.12001456968E+02  0.46071071160E+02  0.49730437716E+02  0.41800000000E+01 0. -1.
         -5    1    4    4    0  501  0.14247784669E+02  0.71053685691E+02 -0.50950234694E+02  0.88684972987E+02  0.41800000000E+01 0. -1.
</event>
<event>
11    1  0.8864208E-009  0.1970138E+03  0.7561462E-02  0.1056656E+00
         22   -1    0    0    0    0  0.00000000000E+00  0.00000000000E+00  0.17538533538E+04  0.17538533538E+04  0.00000000000E+00 0. -1.
         22   -1    0    0    0    0 -0.00000000000E+00 -0.00000000000E+00 -0.99441253614E+03  0.99441253614E+03  0.00000000000E+00 0. -1.
         24    2    1    2    0    0  0.52471099758E+02  0.98868417095E+02 -0.94258267030E+03  0.95307586233E+03  0.85809840903E+02 0.  0.
         25    2    1    2    0    0 -0.33398083339E+02  0.63648713374E+02  0.84088632000E+02  0.16698976665E+03  0.12509233969E+03 0.  0.
        -24    2    1    2    0    0 -0.19073016419E+02 -0.16251713047E+03  0.16179348560E+04  0.16282002610E+04  0.80915350641E+02 0.  0.
        -13    1    3    3    0    0 -0.15424328374E+02 -0.47839557556E+01 -0.77545653392E+02  0.79209371279E+02  0.00000000000E+00 0.  1.
         14    1    3    3    0    0  0.67895428132E+02  0.10365237285E+03 -0.86503701691E+03  0.87386649105E+03  0.00000000000E+00 0. -1.
         11    1    5    5    0    0 -0.37589942583E+02 -0.15838839122E+03  0.14900384962E+04  0.14989044687E+04  0.00000000000E+00 0. -1.
        -12    1    5    5    0    0  0.18516926164E+02 -0.41287392475E+01  0.12789635983E+03  0.12929579227E+03  0.00000000000E+00 0.  1.
          5    1    4    4  501    0  0.98335533260E+01 -0.91466571585E+01  0.80950875692E+02  0.82163719387E+02  0.41800000000E+01 0. -1.
         -5    1    4    4    0  501 -0.43231636665E+02  0.72795370533E+02  0.31377563082E+01  0.84826047264E+02  0.41800000000E+01 0. -1.
</event>
<event>
11    1  0.9245007E-009  0.9775880E+03  0.7561462E-02  0.8700628E-01
         22   -1    0    0    0    0  0.00000000000E+00  0.00000000000E+00  0.99624167266E+03  0.99624167266E+03  0.00000000000E+00 0. -1.
         22   -1    0    0    0    0 -0.00000000000E+00 -0.00000000000E+00 -0.13394295108E+04  0.13394295108E+04  0.00000000000E+00 0. -1.
        -24    2    1    2    0    0  0.17143239766E+03  0.44313913057E+02 -0.18871860345E+03  0.27163845525E+03  0.82582983868E+02 0.  0.
         25    2    1    2    0    0 -0.28273017448E+02 -0.99494583307E+03 -0.38115764452E+03  0.10731477359E+04  0.12509332071E+03 0.  0.
         24    2    1    2    0    0 -0.14315938021E+03  0.95063192001E+03  0.22668840985E+03  0.99088499226E+03  0.79181924937E+02 0.  0.
        -13    1    5    5    0    0 -0.92639990611E+00  0.23139858024E+03  0.50359579161E+02  0.23681690896E+03  0.00000000000E+00 0.  1.
         14    1    5    5    0    0 -0.14223298030E+03  0.71923333977E+03  0.17632883069E+03  0.75406808330E+03  0.00000000000E+00 0. -1.
         11    1    3    3    0    0  0.16810177551E+03  0.52189093496E+02 -0.14781394541E+03  0.22984967014E+03  0.00000000000E+00 0. -1.
        -12    1    3    3    0    0  0.33306221507E+01 -0.78751804387E+01 -0.40904658044E+02  0.41788785105E+02  0.00000000000E+00 0.  1.
          5    1    4    4  501    0 -0.17486755143E+02 -0.72537919518E+03 -0.33583861033E+03  0.79955350540E+03  0.41800000000E+01 0.  1.
         -5    1    4    4    0  501 -0.10786262305E+02 -0.26956663789E+03 -0.45319034189E+02  0.27359423053E+03  0.41800000000E+01 0.  1.
</event>
<event>
11    1  0.8864208E-009  0.2005317E+03  0.7561462E-02  0.1054148E+00
         22   -1    0    0    0    0  0.00000000000E+00  0.00000000000E+00  0.86426340660E+03  0.86426340660E+03  0.00000000000E+00 0. -1.
         22   -1    0    0    0    0 -0.00000000000E+00 -0.00000000000E+00 -0.40482883794E+04  0.40482883794E+04  0.00000000000E+00 0.  1.
        -24    2    1    2    0    0  0.68085834869E+02 -0.14367714139E+03 -0.33957535087E+04  0.34002522720E+04  0.72765512834E+02 0.  0.
         25    2    1    2    0    0 -0.17852829632E+02  0.14769273775E+03 -0.63303247020E+03  0.66220135664E+03  0.12509460462E+03 0.  0.
         24    2    1    2    0    0 -0.50233005237E+02 -0.40155963541E+01  0.84476100608E+03  0.85009815733E+03  0.80661266261E+02 0.  0.
        -13    1    5    5    0    0 -0.62581306618E+02 -0.17372726292E+02  0.42412852369E+03  0.42907253019E+03  0.00000000000E+00 0.  1.
         14    1    5    5    0    0  0.12348301381E+02  0.13357129937E+02  0.42063248238E+03  0.42102562713E+03  0.00000000000E+00 0. -1.
         13    1    3    3    0    0 -0.40979385780E+01 -0.38899951597E+02 -0.43146861541E+03  0.43323800089E+03  0.00000000000E+00 0. -1.
        -14    1    3    3    0    0  0.72183773447E+02 -0.10477718980E+03 -0.29642848932E+04  0.29670142711E+04  0.00000000000E+00 0.  1.
          5    1    4    4  501    0 -0.39544428590E+02  0.15257441696E+03 -0.43152600036E+03  0.45942885840E+03  0.41800000000E+01 0. -1.
         -5    1    4    4    0  501  0.21691598958E+02 -0.48816792147E+01 -0.20150646984E+03  0.20277249824E+03  0.41800000000E+01 0. -1.
</event>
<event>
11    1  0.8864208E-009  0.2016243E+03  0.7561462E-02  0.1053381E+00
         22   -1    0    0    0    0  0.00000000000E+00  0.00000000000E+00  0.33682908726E+03  0.33682908726E+03  0.00000000000E+00 0. -1.
         22   -1    0    0    0    0 -0.00000000000E+00 -0.00000000000E+00 -0.12289327759E+04  0.12289327759E+04  0.00000000000E+00 0.  1.
         24    2    1    2    0    0 -0.15711299108E+03  0.40556929572E+01 -0.11387937272E+04  0.11523380173E+04  0.79566402367E+02 0.  0.
         25    2    1    2    0    0  0.18621653751E+03 -0.52799363796E+02  0.14403289686E+03  0.27176661399E+03  0.12508895013E+03 0.  0.
        -24    2    1    2    0    0 -0.29103546422E+02  0.48743670838E+02  0.10265714164E+03  0.14165723193E+03  0.79406049952E+02 0.  0.
        -13    1    3    3    0    0 -0.73375209630E+02 -0.35369243839E+02 -0.44441559234E+03  0.45181868433E+03  0.00000000000E+00 0.  1.
         14    1    3    3    0    0 -0.83737781454E+02  0.39424936797E+02 -0.69437813482E+03  0.70051933293E+03  0.00000000000E+00 0. -1.
         13    1    5    5    0    0 -0.49202504603E+02  0.14967345984E+02  0.83172899607E+02  0.97788747481E+02  0.00000000000E+00 0. -1.
        -14    1    5    5    0    0  0.20098958181E+02  0.33776324855E+02  0.19484242028E+02  0.43868484451E+02  0.00000000000E+00 0.  1.
          5    1    4    4  501    0  0.85506788947E+02 -0.76394936610E+02  0.31764371772E+02  0.11905479835E+03  0.41800000000E+01 0.  1.
         -5    1    4    4    0  501  0.10070974856E+03  0.23595572814E+02  0.11226852509E+03  0.15271181564E+03  0.41800000000E+01 0.  1.
</event>
<event>
11    1  0.8864208E-009  0.1692737E+03  0.7561462E-02  0.1078665E+00
         22   -1    0    0    0    0  0.00000000000E+00  0.00000000000E+00  0.13614199068E+04  0.13614199068E+04  0.00000000000E+00 0. -1.
         22   -1    0    0    0    0 -0.00000000000E+00 -0.00000000000E+00 -0.18285273612E+03  0.18285273612E+03  0.00000000000E+00 0. -1.
         24    2    1    2    0    0  0.21611488886E+02  0.11253446812E+03 -0.14266740538E+03  0.19896271064E+03  0.78109594168E+02 0.  0.
         25    2    1    2    0    0 -0.36593469792E+02 -0.94605005839E+02  0.72401563738E+03  0.74171080202E+03  0.12508829480E+03 0.  0.
        -24    2    1    2    0    0  0.14981980906E+02 -0.17929462284E+02  0.59721893863E+03  0.60359913021E+03  0.84353565235E+02 0.  0.
        -13    1    3    3    0    0  0.27685953286E+02  0.33779907045E+01 -0.18220565917E+02  0.33315339603E+02  0.00000000000E+00 0.  1.
         14    1    3    3    0    0 -0.60744644001E+01  0.10915647742E+03 -0.12444683946E+03  0.16564737104E+03  0.00000000000E+00 0. -1.
         13    1    5    5    0    0  0.42783279988E+01  0.33989740831E+02  0.25755902759E+03  0.25982736435E+03  0.00000000000E+00 0. -1.
        -14    1    5    5    0    0  0.10703652908E+02 -0.51919203115E+02  0.33965991104E+03  0.34377176587E+03  0.00000000000E+00 0.  1.
          5    1    4    4  501    0 -0.67235911706E+02 -0.92115845787E+02  0.66798738243E+03  0.67766556084E+03  0.41800000000E+01 0. -1.
         -5    1    4    4    0  501  0.30642441914E+02 -0.24891600521E+01  0.56028254953E+02  0.64045241176E+02  0.41800000000E+01 0. -1.
</event>
<event>
11    1  0.8864208E-009  0.2714470E+03  0.7561462E-02  0.1013056E+00
         22   -1    0    0    0    0  0.00000000000E+00  0.00000000000E+00  0.16342919313E+04  0.16342919313E+04  0.00000000000E+00 0. -1.
         22   -1    0    0    0    0 -0.00000000000E+00 -0.00000000000E+00 -0.12286619405E+04  0.12286619405E+04  0.00000000000E+00 0.  1.
         24    2    1    2    0    0  0.17246488667E+03 -0.69546955137E+01 -0.54981277207E+03  0.58197126401E+03  0.81264770218E+02 0.  0.
         25    2    1    2    0    0 -0.40250929465E+03  0.69187281028E+02 -0.58266919558E+03  0.72246252442E+03  0.12509234817E+03 0.  0.
        -24    2    1    2    0    0  0.23004440798E+03 -0.62232585514E+02  0.15381119585E+04  0.15585200834E+04  0.80019555975E+02 0.  0.
        -13    1    3    3    0    0  0.83377159708E+02  0.37243683202E+02 -0.25989656653E+03  0.27547244507E+03  0.00000000000E+00 0.  1.
         14    1    3    3    0    0  0.89087726966E+02 -0.44198378715E+02 -0.28991620553E+03  0.30649881894E+03  0.00000000000E+00 0. -1.
         11    1    5    5    0    0  0.15453642745E+03 -0.10973749360E+02  0.11123304457E+04  0.11230676520E+04  0.00000000000E+00 0. -1.
        -12    1    5    5    0    0  0.75507980531E+02 -0.51258836154E+02  0.42578151276E+03  0.43545243140E+03  0.00000000000E+00 0.  1.
          5    1    4    4  501    0 -0.18866645358E+03  0.81075553102E+01 -0.17220411863E+03  0.25560221836E+03  0.41800000000E+01 0. -1.
         -5    1    4    4    0  501 -0.21384284108E+03  0.61079725718E+02 -0.41046507696E+03  0.46686030606E+03  0.41800000000E+01 0. -1.
</event>
<event>
11    1  0.8864208E-009  0.2189838E+03  0.7561462E-02  0.1041856E+00
         22   -1    0    0    0    0  0.00000000000E+00  0.00000000000E+00  0.93973956153E+03  0.93973956153E+03  0.00000000000E+00 0. -1.
         22   -1    0    0    0    0 -0.00000000000E+00 -0.00000000000E+00 -0.39049867382E+03  0.39049867382E+03  0.00000000000E+00 0. -1.
        -24    2    1    2    0    0 -0.26850273088E+01 -0.37365729215E+02 -0.23982303080E+03  0.25554301410E+03  0.79898303227E+02 0.  0.
         25    2    1    2    0    0 -0.64274010678E+02  0.20109386153E+03 -0.15545502194E+02  0.24588348032E+03  0.12508850331E+03 0.  0.
         24    2    1    2    0    0  0.66959037986E+02 -0.16372813231E+03  0.80460942070E+03  0.82881174093E+03  0.90786386337E+02 0.  0.
        -13    1    5    5    0    0  0.65837509074E+02 -0.49104798392E+02  0.27845284612E+03  0.29031335887E+03  0.00000000000E+00 0.  1.
         14    1    5    5    0    0  0.11215289120E+01 -0.11462333392E+03  0.52615657458E+03  0.53849838206E+03  0.00000000000E+00 0. -1.
         13    1    3    3    0    0  0.38528895323E+01 -0.61182584452E+02 -0.14234263559E+03  0.15498251290E+03  0.00000000000E+00 0. -1.
        -14    1    3    3    0    0 -0.65379168411E+01  0.23816855237E+02 -0.97480395216E+02  0.10056050120E+03  0.00000000000E+00 0.  1.
          5    1    4    4  501    0  0.23349106949E+02  0.12072245546E+03  0.12452616887E+02  0.12365933897E+03  0.41800000000E+01 0.  1.
         -5    1    4    4    0  501 -0.87623117627E+02  0.80371406074E+02 -0.27998119081E+02  0.12222414135E+03  0.41800000000E+01 0.  1.
</event>
<event>
11    1  0.8864208E-009  0.1486939E+03  0.7561462E-02  0.1098221E+00
         22   -1    0    0    0    0  0.00000000000E+00  0.00000000000E+00  0.34392565205E+03  0.34392565205E+03  0.00000000000E+00 0.  1.
         22   -1    0    0    0    0 -0.00000000000E+00 -0.00000000000E+00 -0.63697532847E+03  0.63697532847E+03  0.00000000000E+00 0. -1.
         24    2    1    2    0    0 -0.59867376281E+02  0.13105139806E+02 -0.35274386495E+03  0.36700165058E+03  0.80660584178E+02 0.  0.
         25    2    1    2    0    0  0.89649059103E+02  0.61116577753E+02 -0.24090794461E+03  0.29232891970E+03  0.12508944656E+03 0.  0.
        -24    2    1    2    0    0 -0.29781682822E+02 -0.74221717559E+02  0.30060213314E+03  0.32157041024E+03  0.81547987731E+02 0.  0.
        -13    1    3    3    0    0  0.17048502645E+02 -0.58752410779E+01 -0.33173636933E+02  0.37757914237E+02  0.00000000000E+00 0.  1.
         14    1    3    3    0    0 -0.76915878926E+02  0.18980380884E+02 -0.31957022802E+03  0.32924373635E+03  0.00000000000E+00 0. -1.
         11    1    5    5    0    0  0.21679643658E+02 -0.19057485578E+01  0.32129312994E+02  0.38806334279E+02  0.00000000000E+00 0. -1.
        -12    1    5    5    0    0 -0.51461326480E+02 -0.72315969001E+02  0.26847282015E+03  0.28276407596E+03  0.00000000000E+00 0.  1.
          5    1    4    4  501    0  0.93316759974E+02  0.16964619261E+01 -0.88644868195E+02  0.12878773518E+03  0.41800000000E+01 0. -1.
         -5    1    4    4    0  501 -0.36677008708E+01  0.59420115827E+02 -0.15226307641E+03  0.16354118452E+03  0.41800000000E+01 0. -1.
</event>
<event>
11    1  0.8864208E-009  0.1316216E+03  0.7561462E-02  0.1117292E+00
         22   -1    0    0    0    0  0.00000000000E+00  0.00000000000E+00  0.81584913000E+03  0.81584913000E+03  0.00000000000E+00 0.  1.
         22   -1    0    0    0    0 -0.00000000000E+00 -0.00000000000E+00 -0.81768495392E+02  0.81768495392E+02  0.00000000000E+00 0. -1.
        -24    2    1    2    0    0  0.40294172173E+02  0.68371106113E+00  0.52951688849E+00  0.89198065580E+02  0.79573404748E+02 0.  0.
         25    2    1    2    0    0 -0.41354532685E+02  0.23398251713E+02  0.94542061382E+02  0.16384109457E+03  0.12509207546E+03 0.  0.
         24    2    1    2    0    0  0.10603605120E+01 -0.24081962774E+02  0.63900905633E+03  0.64457846524E+03  0.81041708243E+02 0.  0.
        -13    1    5    5    0    0  0.38938664124E+02 -0.21011789092E+02  0.41694632686E+03  0.41928743640E+03  0.00000000000E+00 0.  1.
         14    1    5    5    0    0 -0.37878303612E+02 -0.30701736825E+01  0.22206272948E+03  0.22529102884E+03  0.00000000000E+00 0. -1.
         13    1    3    3    0    0  0.45414383841E+02  0.22085270464E+02 -0.24281767024E+02  0.56034182789E+02  0.00000000000E+00 0. -1.
        -14    1    3    3    0    0 -0.51202116675E+01 -0.21401559403E+02  0.24811283912E+02  0.33163882791E+02  0.00000000000E+00 0.  1.
          5    1    4    4  501    0 -0.58177754109E+02  0.21665126812E+02  0.11872207107E+03  0.13403891731E+03  0.41800000000E+01 0.  1.
         -5    1    4    4    0  501  0.16823221424E+02  0.17331249014E+01 -0.24180009692E+02  0.29802177264E+02  0.41800000000E+01 0.  1.
</event>
<event>
11    1  0.8864208E-009  0.5479864E+03  0.7561462E-02  0.9292256E-01
         22   -1    0    0    0    0  0.00000000000E+00  0.00000000000E+00  0.23066765008E+03  0.23066765008E+03  0.00000000000E+00 0.  1.
         22   -1    0    0    0    0 -0.00000000000E+00 -0.00000000000E+00 -0.41038813663E+04  0.41038813663E+04  0.00000000000E+00 0.  1.
         24    2    1    2    0    0  0.44029330554E+02  0.22660814470E+02 -0.92063572893E+03  0.92538013658E+03  0.79411317419E+02 0.  0.
         25    2    1    2    0    0 -0.87463095862E+02  0.51122572825E+03 -0.27945864256E+04  0.28450594676E+04  0.12509414812E+03 0.  0.
        -24    2    1    2    0    0  0.43433765308E+02 -0.53388654272E+03 -0.15799156165E+03  0.56410941213E+03  0.79603786503E+02 0.  0.
        -13    1    3    3    0    0 -0.17801864806E+02 -0.64242011619E+00 -0.42322746802E+03  0.42360218222E+03  0.00000000000E+00 0.  1.
         14    1    3    3    0    0  0.61831195360E+02  0.23303234586E+02 -0.49740826091E+03  0.50177795436E+03  0.00000000000E+00 0. -1.
         13    1    5    5    0    0 -0.12686968363E+02 -0.17692806686E+02 -0.11410889214E+02  0.24580540420E+02  0.00000000000E+00 0. -1.
        -14    1    5    5    0    0  0.56120733670E+02 -0.51619373604E+03 -0.14658067244E+03  0.53952887171E+03  0.00000000000E+00 0.  1.
          5    1    4    4  501    0  0.12781831672E+02  0.33349472915E+02 -0.37324329102E+03  0.37497145126E+03  0.41800000000E+01 0.  1.
         -5    1    4    4    0  501 -0.10024492753E+03  0.47787625534E+03 -0.24213431346E+04  0.24700880164E+04  0.41800000000E+01 0.  1.
</event>
<event>
11    1  0.8864208E-009  0.1798996E+03  0.7561462E-02  0.1069724E+00
         22   -1    0    0    0    0  0.00000000000E+00  0.00000000000E+00  0.20504224618E+04  0.20504224618E+04  0.00000000000E+00 0. -1.
         22   -1    0    0    0    0 -0.00000000000E+00 -0.00000000000E+00 -0.11534526886E+04  0.11534526886E+04  0.00000000000E+00 0.  1.
        -24    2    1    2    0    0 -0.35510232054E+02 -0.77876170657E+00 -0.11097336257E+04  0.11135355048E+04  0.84799866514E+02 0.  0.
         25    2    1    2    0    0  0.13795588578E+03  0.75935685641E+02  0.22308113431E+03  0.30035621245E+03  0.12510238647E+03 0.  0.
         24    2    1    2    0    0 -0.10244565372E+03 -0.75156923934E+02  0.17836222647E+04  0.17899834331E+04  0.81170393356E+02 0.  0.
        -13    1    5    5    0    0 -0.21226606170E+01  0.14277094186E+02  0.10468199211E+03  0.10567242109E+03  0.00000000000E+00 0.  1.
         14    1    5    5    0    0 -0.10032299311E+03 -0.89434018121E+02  0.16789402726E+04  0.16843110121E+04  0.00000000000E+00 0. -1.
         11    1    3    3    0    0  0.19131100539E+02 -0.25569001425E+02 -0.38915478704E+03  0.39046282937E+03  0.00000000000E+00 0. -1.
        -12    1    3    3    0    0 -0.54641332593E+02  0.24790239718E+02 -0.72057883870E+03  0.72307267546E+03  0.00000000000E+00 0.  1.
          5    1    4    4  501    0  0.12726728761E+03  0.98924710801E+02  0.22233418801E+03  0.27465073177E+03  0.41800000000E+01 0.  1.
         -5    1    4    4    0  501  0.10688598164E+02 -0.22989025161E+02  0.74694630083E+00  0.25705480687E+02  0.41800000000E+01 0.  1.
</event>
<event>
11    1  0.8864208E-009  0.1547884E+03  0.7561462E-02  0.1092084E+00
         22   -1    0    0    0    0  0.00000000000E+00  0.00000000000E+00  0.14229852836E+04  0.14229852836E+04  0.00000000000E+00 0. -1.
         22   -1    0    0    0    0 -0.00000000000E+00 -0.00000000000E+00 -0.20783390046E+03  0.20783390046E+03  0.00000000000E+00 0.  1.
         24    2    1    2    0    0 -0.16617098750E+01  0.48894002735E+02 -0.17416386145E+03  0.19865448952E+03  0.82080270403E+02 0.  0.
         25    2    1    2    0    0 -0.11588571455E+02  0.49346064119E+02  0.23622378912E+03  0.27206341247E+03  0.12508993894E+03 0.  0.
        -24    2    1    2    0    0  0.13250281330E+02 -0.98240066854E+02  0.11530914554E+04  0.11601012820E+04  0.79927462544E+02 0.  0.
        -11    1    3    3    0    0 -0.23904266118E+02 -0.14037012522E+02 -0.38285473815E+02  0.47267633370E+02  0.00000000000E+00 0.  1.
         12    1    3    3    0    0  0.22242556243E+02  0.62931015257E+02 -0.13587838764E+03  0.15138685615E+03  0.00000000000E+00 0. -1.
         13    1    5    5    0    0  0.25752242230E+02 -0.10241852063E+03  0.11106597171E+04  0.11156691887E+04  0.00000000000E+00 0. -1.
        -14    1    5    5    0    0 -0.12501960899E+02  0.41784537749E+01  0.42431738342E+02  0.44432093368E+02  0.00000000000E+00 0.  1.
          5    1    4    4  501    0  0.49773136995E+02 -0.50382458790E+00  0.54976703194E+02  0.74280073369E+02  0.41800000000E+01 0.  1.
         -5    1    4    4    0  501 -0.61361708450E+02  0.49849888706E+02  0.18124708593E+03  0.19778333910E+03  0.41800000000E+01 0.  1.
</event>
<event>
11    1  0.8864208E-009  0.1697100E+03  0.7561462E-02  0.1078284E+00
         22   -1    0    0    0    0  0.00000000000E+00  0.00000000000E+00  0.13645201853E+04  0.13645201853E+04  0.00000000000E+00 0. -1.
         22   -1    0    0    0    0 -0.00000000000E+00 -0.00000000000E+00 -0.41228596561E+03  0.41228596561E+03  0.00000000000E+00 0.  1.
         24    2    1    2    0    0 -0.19346312265E+02  0.11264656588E+03 -0.35517012917E+03  0.38169808336E+03  0.80523770329E+02 0.  0.
         25    2    1    2    0    0 -0.13187695661E+02 -0.12393478023E+03  0.14250717329E+03  0.22691104902E+03  0.12508630885E+03 0.  0.
        -24    2    1    2    0    0  0.32534007926E+02  0.11288214352E+02  0.11648971756E+04  0.11681970185E+04  0.80702905663E+02 0.  0.
        -11    1    3    3    0    0 -0.42862937168E+02  0.95659669628E+02 -0.31615465093E+03  0.33307922043E+03  0.00000000000E+00 0.  1.
         12    1    3    3    0    0  0.23516624903E+02  0.16986896248E+02 -0.39015478235E+02  0.48618862933E+02  0.00000000000E+00 0. -1.
         11    1    5    5    0    0  0.34149306776E+02  0.18954414430E+02  0.11545894213E+04  0.11552498330E+04  0.00000000000E+00 0. -1.
        -12    1    5    5    0    0 -0.16152988506E+01 -0.76662000781E+01  0.10307754338E+02  0.12947185544E+02  0.00000000000E+00 0.  1.
          5    1    4    4  501    0  0.51755791925E+02 -0.36844395530E+02  0.77267848237E+02  0.10011974956E+03  0.41800000000E+01 0. -1.
         -5    1    4    4    0  501 -0.64943487586E+02 -0.87090384698E+02  0.65239325056E+02  0.12679129947E+03  0.41800000000E+01 0. -1.
</event>
<event>
11    1  0.8864208E-009  0.1343504E+03  0.7561462E-02  0.1114036E+00
         22   -1    0    0    0    0  0.00000000000E+00  0.00000000000E+00  0.98663326132E+03  0.98663326132E+03  0.00000000000E+00 0.  1.
         22   -1    0    0    0    0 -0.00000000000E+00 -0.00000000000E+00 -0.13288947804E+03  0.13288947804E+03  0.00000000000E+00 0.  1.
         24    2    1    2    0    0  0.23897975743E+02  0.11891078258E+02 -0.80595302278E+02  0.11818016644E+03  0.82209719650E+02 0.  0.
         25    2    1    2    0    0  0.20507049518E+02 -0.35549990110E+02  0.11089253080E+03  0.17213052387E+03  0.12508965978E+03 0.  0.
        -24    2    1    2    0    0 -0.44405025261E+02  0.23658911852E+02  0.82344655476E+03  0.82921204906E+03  0.83647136071E+02 0.  0.
        -11    1    3    3    0    0 -0.58240004531E+01  0.23099720721E+02 -0.82973877070E+02  0.86326012039E+02  0.00000000000E+00 0.  1.
         12    1    3    3    0    0  0.29721976196E+02 -0.11208642462E+02  0.23785747918E+01  0.31854154405E+02  0.00000000000E+00 0. -1.
         11    1    5    5    0    0  0.33111553777E+01  0.43625334570E+02  0.46482642256E+03  0.46688085919E+03  0.00000000000E+00 0. -1.
        -12    1    5    5    0    0 -0.47716180638E+02 -0.19966422719E+02  0.35862013220E+03  0.36233118987E+03  0.00000000000E+00 0.  1.
          5    1    4    4  501    0  0.40716150414E+02  0.33149979773E+02  0.19995769001E+02  0.56338523600E+02  0.41800000000E+01 0. -1.
         -5    1    4    4    0  501 -0.20209100895E+02 -0.68699969883E+02  0.90896761797E+02  0.11579200027E+03  0.41800000000E+01 0. -1.
</event>
<event>
11    1  0.8864208E-009  0.1325844E+03  0.7561462E-02  0.1116134E+00
         22   -1    0    0    0    0  0.00000000000E+00  0.00000000000E+00  0.25239699463E+03  0.25239699463E+03  0.00000000000E+00 0.  1.
         22   -1    0    0    0    0 -0.00000000000E+00 -0.00000000000E+00 -0.43458779487E+03  0.43458779487E+03  0.00000000000E+00 0. -1.
        -24    2    1    2    0    0  0.40856033382E+02  0.47429244073E+01 -0.31013115590E+03  0.32303113563E+03  0.80474032628E+02 0.  0.
         25    2    1    2    0    0 -0.64077601401E+02  0.12475725093E+01 -0.64593479289E+02  0.15468407786E+03  0.12508937180E+03 0.  0.
         24    2    1    2    0    0  0.23221568018E+02 -0.59904969166E+01  0.19253383495E+03  0.20926957601E+03  0.78417794984E+02 0.  0.
        -11    1    5    5    0    0  0.15058940044E+02  0.11750742134E+02  0.18832631737E+03  0.18929250759E+03  0.00000000000E+00 0.  1.
         12    1    5    5    0    0  0.81626279744E+01 -0.17741239050E+02  0.42075175760E+01  0.19977068419E+02  0.00000000000E+00 0. -1.
         13    1    3    3    0    0  0.47769623300E+02 -0.27092457080E+02 -0.15297531146E+03  0.16253425503E+03  0.00000000000E+00 0. -1.
        -14    1    3    3    0    0 -0.69135899179E+01  0.31835381487E+02 -0.15715584444E+03  0.16049688060E+03  0.00000000000E+00 0.  1.
          5    1    4    4  501    0  0.27852332078E+02 -0.60405337356E+01 -0.54727798365E+02  0.61845329361E+02  0.41800000000E+01 0.  1.
         -5    1    4    4    0  501 -0.91929933478E+02  0.72881062449E+01 -0.98656809239E+01  0.92838748494E+02  0.41800000000E+01 0.  1.
</event>
<event>
11    1  0.8864208E-009  0.1307695E+03  0.7561462E-02  0.1118327E+00
         22   -1    0    0    0    0  0.00000000000E+00  0.00000000000E+00  0.16349423726E+03  0.16349423726E+03  0.00000000000E+00 0.  1.
         22   -1    0    0    0    0 -0.00000000000E+00 -0.00000000000E+00 -0.13390454349E+04  0.13390454349E+04  0.00000000000E+00 0. -1.
        -24    2    1    2    0    0 -0.38277504519E+02 -0.14659895547E+01 -0.12608228990E+04  0.12639694927E+04  0.80480924870E+02 0.  0.
         25    2    1    2    0    0  0.27681877287E+02  0.23697840955E+02  0.18475582738E+02  0.13159641983E+03  0.12509355123E+03 0.  0.
         24    2    1    2    0    0  0.10595627231E+02 -0.22231851400E+02  0.66796118624E+02  0.10697375966E+03  0.79844481705E+02 0.  0.
        -13    1    5    5    0    0  0.36048855077E+02 -0.18106329373E+02  0.70199241389E+02  0.80964761516E+02  0.00000000000E+00 0.  1.
         14    1    5    5    0    0 -0.25453227845E+02 -0.41255220275E+01 -0.34031227653E+01  0.26008998141E+02  0.00000000000E+00 0. -1.
         11    1    3    3    0    0 -0.46713736080E+02  0.27926872334E+02 -0.97441360777E+03  0.97593235541E+03  0.00000000000E+00 0. -1.
        -12    1    3    3    0    0  0.84362315616E+01 -0.29392861889E+02 -0.28640929128E+03  0.28803713730E+03  0.00000000000E+00 0.  1.
          5    1    4    4  501    0  0.24580839373E+02 -0.33344496082E+02 -0.34121619552E+02  0.53831500110E+02  0.41800000000E+01 0. -1.
         -5    1    4    4    0  501  0.31010379146E+01  0.57042337036E+02  0.52597202290E+02  0.77764919723E+02  0.41800000000E+01 0. -1.
</event>
<event>
11    1  0.8864208E-009  0.1262756E+03  0.7561462E-02  0.1123932E+00
         22   -1    0    0    0    0  0.00000000000E+00  0.00000000000E+00  0.59675702263E+03  0.59675702263E+03  0.00000000000E+00 0. -1.
         22   -1    0    0    0    0 -0.00000000000E+00 -0.00000000000E+00 -0.12438207480E+04  0.12438207480E+04  0.00000000000E+00 0.  1.
         24    2    1    2    0    0  0.16012468770E+02  0.51876858306E+01 -0.12011574073E+04  0.12040097042E+04  0.81098330683E+02 0.  0.
         25    2    1    2    0    0 -0.54232429808E+02  0.75289531562E+01  0.84547174173E+02  0.16060982640E+03  0.12509776216E+03 0.  0.
        -24    2    1    2    0    0  0.38219961038E+02 -0.12716638987E+02  0.46954650778E+03  0.47595824010E+03  0.66632162029E+02 0.  0.
        -13    1    3    3    0    0  0.41119861335E+02 -0.24389820937E+01 -0.34502122696E+03  0.34747149334E+03  0.00000000000E+00 0.  1.
         14    1    3    3    0    0 -0.25107392564E+02  0.76266679242E+01 -0.85613618038E+03  0.85653821081E+03  0.00000000000E+00 0. -1.
         13    1    5    5    0    0  0.32696583490E+02 -0.36282642147E+02  0.38262113234E+03  0.38572584514E+03  0.00000000000E+00 0. -1.
        -14    1    5    5    0    0  0.55233775479E+01  0.23566003160E+02  0.86925375436E+02  0.90232394954E+02  0.00000000000E+00 0.  1.
          5    1    4    4  501    0 -0.44978481555E+02  0.60020467647E+02  0.21893820298E+02  0.78245332812E+02  0.41800000000E+01 0. -1.
         -5    1    4    4    0  501 -0.92539482529E+01 -0.52491514491E+02  0.62653353875E+02  0.82364493586E+02  0.41800000000E+01 0. -1.
</event>
<event>
11    1  0.8864208E-009  0.1589237E+03  0.7561462E-02  0.1088094E+00
         22   -1    0    0    0    0  0.00000000000E+00  0.00000000000E+00  0.50096146270E+02  0.50096146270E+02  0.00000000000E+00 0. -1.
         22   -1    0    0    0    0 -0.00000000000E+00 -0.00000000000E+00 -0.14279669016E+04  0.14279669016E+04  0.00000000000E+00 0.  1.
         24    2    1    2    0    0  0.15855963428E+02  0.95456971416E+01 -0.86414560823E+03  0.86816739335E+03  0.81390778027E+02 0.  0.
         25    2    1    2    0    0  0.39090879194E+02 -0.90869892324E+02 -0.42714212131E+03  0.45594379404E+03  0.12509563283E+03 0.  0.
        -24    2    1    2    0    0 -0.54946842623E+02  0.81324195182E+02 -0.86583025776E+02  0.15395186047E+03  0.81066483538E+02 0.  0.
        -11    1    3    3    0    0 -0.15787846620E+01  0.15594738237E+02 -0.82210858426E+03  0.82225799646E+03  0.00000000000E+00 0.  1.
         12    1    3    3    0    0  0.17434748090E+02 -0.60490410959E+01 -0.42037023965E+02  0.45909396892E+02  0.00000000000E+00 0. -1.
         13    1    5    5    0    0  0.16014399379E+02  0.36961052137E+02 -0.12476567911E+02  0.42169243643E+02  0.00000000000E+00 0. -1.
        -14    1    5    5    0    0 -0.70961242002E+02  0.44363143045E+02 -0.74106457866E+02  0.11178261683E+03  0.00000000000E+00 0.  1.
          5    1    4    4  501    0  0.12534972496E+02 -0.10531530286E+03 -0.19688465107E+03  0.22367270012E+03  0.41800000000E+01 0. -1.
         -5    1    4    4    0  501  0.26555906698E+02  0.14445410537E+02 -0.23025747025E+03  0.23227109392E+03  0.41800000000E+01 0. -1.
</event>
<event>
11    1  0.8864208E-009  0.1369066E+03  0.7561462E-02  0.1111063E+00
         22   -1    0    0    0    0  0.00000000000E+00  0.00000000000E+00  0.49083631769E+03  0.49083631769E+03  0.00000000000E+00 0. -1.
         22   -1    0    0    0    0 -0.00000000000E+00 -0.00000000000E+00 -0.16093836109E+03  0.16093836109E+03  0.00000000000E+00 0. -1.
        -24    2    1    2    0    0 -0.27008794839E+01 -0.33016058638E+02 -0.96973655892E+02  0.13135629421E+03  0.82178045808E+02 0.  0.
         25    2    1    2    0    0  0.54923874919E+02  0.99579813539E+01  0.76774224793E+02  0.15699989647E+03  0.12505555753E+03 0.  0.
         24    2    1    2    0    0 -0.52222995435E+02  0.23058077284E+02  0.35009738770E+03  0.36341848810E+03  0.79031009353E+02 0.  0.
        -13    1    5    5    0    0  0.81362848754E+01 -0.54715762927E+01  0.34401151468E+01  0.10390941773E+02  0.00000000000E+00 0.  1.
         14    1    5    5    0    0 -0.60359280311E+02  0.28529653576E+02  0.34665727255E+03  0.35302754633E+03  0.00000000000E+00 0. -1.
         13    1    3    3    0    0 -0.18988817199E+02 -0.53919532244E+02 -0.44049152056E+02  0.72167991055E+02  0.00000000000E+00 0. -1.
        -14    1    3    3    0    0  0.16287937715E+02  0.20903473606E+02 -0.52924503835E+02  0.59188303152E+02  0.00000000000E+00 0.  1.
          5    1    4    4  501    0 -0.19950673540E+02  0.47788103368E+02  0.38683500672E+02  0.64773588926E+02  0.41800000000E+01 0. -1.
         -5    1    4    4    0  501  0.74874548459E+02 -0.37830122014E+02  0.38090724121E+02  0.92226307541E+02  0.41800000000E+01 0. -1.
</event>
<event>
11    1  0.8864208E-009  0.1733197E+03  0.7561462E-02  0.1075178E+00
         22   -1    0    0    0    0  0.00000000000E+00  0.00000000000E+00  0.10819395899E+04  0.10819395899E+04  0.00000000000E+00 0. -1.
         22   -1    0    0    0    0 -0.00000000000E+00 -0.00000000000E+00 -0.18347107948E+03  0.18347107948E+03  0.00000000000E+00 0. -1.
         24    2    1    2    0    0  0.66966441659E+01  0.12133080956E+03 -0.10902967548E+03  0.18202704242E+03  0.80500705869E+02 0.  0.
         25    2    1    2    0    0 -0.68347423788E+02 -0.10446685231E+03  0.19016083516E+03  0.25960743532E+03  0.12510069414E+03 0.  0.
        -24    2    1    2    0    0  0.61650779622E+02 -0.16863957251E+02  0.81733735069E+03  0.82377619161E+03  0.80508740756E+02 0.  0.
        -13    1    3    3    0    0 -0.87317931556E+01  0.37041267292E+02  0.60646571158E+01  0.38536732610E+02  0.00000000000E+00 0.  1.
         14    1    3    3    0    0  0.15428437322E+02  0.84289542266E+02 -0.11509433259E+03  0.14349030981E+03  0.00000000000E+00 0. -1.
         13    1    5    5    0    0  0.40680246772E+02 -0.46913223018E+02  0.61687141153E+03  0.61998876711E+03  0.00000000000E+00 0. -1.
        -14    1    5    5    0    0  0.20970532850E+02  0.30049265768E+02  0.20046593916E+03  0.20378742450E+03  0.00000000000E+00 0.  1.
          5    1    4    4  501    0 -0.72080905595E+01  0.13151500949E+02 -0.10714259609E+02  0.18899373156E+02  0.41800000000E+01 0. -1.
         -5    1    4    4    0  501 -0.61139333229E+02 -0.11761835326E+03  0.20087509477E+03  0.24070806216E+03  0.41800000000E+01 0. -1.
</event>
<event>
11    1  0.1942978E-008  0.1346113E+03  0.7561462E-02  0.1113729E+00
         22   -1    0    0    0    0  0.00000000000E+00  0.00000000000E+00  0.22722749720E+04  0.22722749720E+04  0.00000000000E+00 0.  1.
         22   -1    0    0    0    0 -0.00000000000E+00 -0.00000000000E+00 -0.23700640398E+04  0.23700640398E+04  0.00000000000E+00 0. -1.
        -24    2    1    2    0    0 -0.10875054249E+03  0.29149984123E+02 -0.22441533666E+04  0.22483969863E+04  0.79926672726E+02 0.  0.
         25    2    1    2    0    0  0.22986396088E+01 -0.49181433196E+02 -0.84660243320E+02  0.15886824084E+03  0.12509062329E+03 0.  0.
         24    2    1    2    0    0  0.10645190288E+03  0.20031449073E+02  0.22310245422E+04  0.22350737847E+04  0.79693467987E+02 0.  0.
        -13    1    5    5    0    0  0.10196007225E+03  0.27829411012E+02  0.22051062345E+04  0.22076376147E+04  0.00000000000E+00 0.  1.
         14    1    5    5    0    0  0.44918306291E+01 -0.77979619397E+01  0.25918307656E+02  0.27436170006E+02  0.00000000000E+00 0. -1.
         11    1    3    3    0    0 -0.23995245708E+02  0.27565228565E+02 -0.12807575689E+04  0.12812788783E+04  0.00000000000E+00 0. -1.
        -12    1    3    3    0    0 -0.84755296781E+02  0.15847555582E+01 -0.96339579774E+03  0.96711810804E+03  0.00000000000E+00 0.  1.
          5    1    4    4  501    0 -0.33567813757E+02  0.53282748928E+01 -0.86942695681E+02  0.93443530359E+02  0.41800000000E+01 0.  1.
         -5    1    4    4    0  501  0.35866453366E+02 -0.54509708089E+02  0.22824523606E+01  0.65424710482E+02  0.41800000000E+01 0.  1.
</event>
<event>
11    1  0.8864208E-009  0.1568163E+03  0.7561462E-02  0.1090110E+00
         22   -1    0    0    0    0  0.00000000000E+00  0.00000000000E+00  0.33827533950E+03  0.33827533950E+03  0.00000000000E+00 0. -1.
         22   -1    0    0    0    0 -0.00000000000E+00 -0.00000000000E+00 -0.54526661628E+03  0.54526661628E+03  0.00000000000E+00 0. -1.
         24    2    1    2    0    0  0.77020313401E+02  0.37037093006E+01 -0.45943969416E+03  0.47298455207E+03  0.81753946638E+02 0.  0.
         25    2    1    2    0    0 -0.93892371249E+02 -0.91056660163E+02  0.72315824400E+02  0.19489234968E+03  0.12508539789E+03 0.  0.
        -24    2    1    2    0    0  0.16872057848E+02  0.87352950862E+02  0.18013259299E+03  0.21566505403E+03  0.78412117129E+02 0.  0.
        -11    1    3    3    0    0  0.64780459483E+02  0.84643815855E+01 -0.15428080342E+03  0.16754318843E+03  0.00000000000E+00 0.  1.
         12    1    3    3    0    0  0.12239853918E+02 -0.47606722850E+01 -0.30515889074E+03  0.30544136364E+03  0.00000000000E+00 0. -1.
         11    1    5    5    0    0  0.10004524062E+02  0.58504119689E+02  0.17598136229E+03  0.18572092611E+03  0.00000000000E+00 0. -1.
        -12    1    5    5    0    0  0.68675337860E+01  0.28848831174E+02  0.41512306965E+01  0.29944127917E+02  0.00000000000E+00 0.  1.
          5    1    4    4  501    0 -0.78919510217E+02 -0.12511762951E+02 -0.93072248748E+01  0.80553895871E+02  0.41800000000E+01 0. -1.
         -5    1    4    4    0  501 -0.14972861031E+02 -0.78544897212E+02  0.81623049275E+02  0.11433845380E+03  0.41800000000E+01 0. -1.
</event>
<event>
11    1  0.8864208E-009  0.1504128E+03  0.7561462E-02  0.1096458E+00
         22   -1    0    0    0    0  0.00000000000E+00  0.00000000000E+00  0.46781469162E+03  0.46781469162E+03  0.00000000000E+00 0.  1.
         22   -1    0    0    0    0 -0.00000000000E+00 -0.00000000000E+00 -0.88935899273E+03  0.88935899273E+03  0.00000000000E+00 0.  1.
        -24    2    1    2    0    0 -0.23357333538E+02  0.60451432786E+02 -0.70967564966E+03  0.71717832586E+03  0.80655332207E+02 0.  0.
         25    2    1    2    0    0 -0.44086441959E+02 -0.10842353039E+03 -0.12450253156E+03  0.21177484475E+03  0.12509367769E+03 0.  0.
         24    2    1    2    0    0  0.67443775497E+02  0.47972097609E+02  0.41263388011E+03  0.42822051374E+03  0.79095539523E+02 0.  0.
        -13    1    5    5    0    0  0.80614048535E+02  0.48807287510E+02  0.39561737892E+03  0.40668647216E+03  0.00000000000E+00 0.  1.
         14    1    5    5    0    0 -0.13170273038E+02 -0.83518990096E+00  0.17016501190E+02  0.21534041581E+02  0.00000000000E+00 0. -1.
         11    1    3    3    0    0  0.11778056110E+02  0.25339276241E+01 -0.15147354063E+02  0.19354217371E+02  0.00000000000E+00 0. -1.
        -12    1    3    3    0    0 -0.35135389648E+02  0.57917505162E+02 -0.69452829559E+03  0.69782410849E+03  0.00000000000E+00 0.  1.
          5    1    4    4  501    0 -0.31024867610E+02 -0.40807804167E+02  0.17148097568E+02  0.54215762849E+02  0.41800000000E+01 0. -1.
         -5    1    4    4    0  501 -0.13061574349E+02 -0.67615726228E+02 -0.14165062912E+03  0.15755908190E+03  0.41800000000E+01 0. -1.
</event>
<event>
11    1  0.8864208E-009  0.1795935E+03  0.7561462E-02  0.1069972E+00
         22   -1    0    0    0    0  0.00000000000E+00  0.00000000000E+00  0.77760913236E+03  0.77760913236E+03  0.00000000000E+00 0. -1.
         22   -1    0    0    0    0 -0.00000000000E+00 -0.00000000000E+00 -0.51225149878E+03  0.51225149878E+03  0.00000000000E+00 0.  1.
        -24    2    1    2    0    0 -0.96609651227E+02  0.81250643135E+02 -0.41728309017E+03  0.44278156735E+03  0.77428982468E+02 0.  0.
         25    2    1    2    0    0  0.13123284160E+03 -0.84450582094E+02  0.47251839416E+02  0.20551059096E+03  0.12509159499E+03 0.  0.
         24    2    1    2    0    0 -0.34623190376E+02  0.31999389591E+01  0.63538888432E+03  0.64156847283E+03  0.81743905518E+02 0.  0.
        -11    1    5    5    0    0 -0.18324468804E+02 -0.20372272730E+02  0.66041962409E+02  0.71500744416E+02  0.00000000000E+00 0.  1.
         12    1    5    5    0    0 -0.16298721572E+02  0.23572211689E+02  0.56934692191E+03  0.57006772842E+03  0.00000000000E+00 0. -1.
         13    1    3    3    0    0 -0.33060211975E+02  0.48664166120E+02 -0.88080654043E+02  0.10592157616E+03  0.00000000000E+00 0. -1.
        -14    1    3    3    0    0 -0.63549439252E+02  0.32586477015E+02 -0.32920243612E+03  0.33685999119E+03  0.00000000000E+00 0.  1.
          5    1    4    4  501    0  0.10513496850E+03 -0.13766036032E+02 -0.15657473588E+02  0.10726366686E+03  0.41800000000E+01 0. -1.
         -5    1    4    4    0  501  0.26097873104E+02 -0.70684546062E+02  0.62909313004E+02  0.98246924100E+02  0.41800000000E+01 0. -1.
</event>
<event>
11    1  0.8864208E-009  0.1988796E+03  0.7561462E-02  0.1055319E+00
         22   -1    0    0    0    0  0.00000000000E+00  0.00000000000E+00  0.80769861633E+03  0.80769861633E+03  0.00000000000E+00 0. -1.
         22   -1    0    0    0    0 -0.00000000000E+00 -0.00000000000E+00 -0.11394377558E+04  0.11394377558E+04  0.00000000000E+00 0. -1.
         24    2    1    2    0    0 -0.87591886129E+02 -0.73015122568E+01 -0.10823073253E+04  0.10892229437E+04  0.85392179069E+02 0.  0.
         25    2    1    2    0    0  0.59093177530E+02  0.15985242376E+03  0.24732999435E+03  0.32536909584E+03  0.12509245145E+03 0.  0.
        -24    2    1    2    0    0  0.28498708599E+02 -0.15255091150E+03  0.50323819147E+03  0.53254433251E+03  0.79188583440E+02 0.  0.
        -11    1    3    3    0    0 -0.50681251923E+02 -0.69706134170E+01 -0.21023938808E+03  0.21637416447E+03  0.00000000000E+00 0.  1.
         12    1    3    3    0    0 -0.36910634206E+02 -0.33089883981E+00 -0.87206793717E+03  0.87284877926E+03  0.00000000000E+00 0. -1.
         11    1    5    5    0    0  0.54258833834E+02 -0.12149045417E+03  0.40668743827E+03  0.42790025000E+03  0.00000000000E+00 0. -1.
        -12    1    5    5    0    0 -0.25760125234E+02 -0.31060457331E+02  0.96550753197E+02  0.10464408251E+03  0.00000000000E+00 0.  1.
          5    1    4    4  501    0  0.90226995294E+02  0.67752469682E+02  0.14990626923E+03  0.18767170747E+03  0.41800000000E+01 0. -1.
         -5    1    4    4    0  501 -0.31133817765E+02  0.92099954077E+02  0.97423725121E+02  0.13769738838E+03  0.41800000000E+01 0. -1.
</event>
<event>
11    1  0.8864208E-009  0.1666943E+03  0.7561462E-02  0.1080945E+00
         22   -1    0    0    0    0  0.00000000000E+00  0.00000000000E+00  0.30711525604E+03  0.30711525604E+03  0.00000000000E+00 0.  1.
         22   -1    0    0    0    0 -0.00000000000E+00 -0.00000000000E+00 -0.71827946379E+03  0.71827946379E+03  0.00000000000E+00 0. -1.
        -24    2    1    2    0    0  0.34762716270E+02  0.11762714918E+02 -0.63678356866E+03  0.64336751475E+03  0.84152467685E+02 0.  0.
         25    2    1    2    0    0  0.85802905861E+02  0.23058146956E+02  0.83686593298E+02  0.17476821310E+03  0.12508663245E+03 0.  0.
         24    2    1    2    0    0 -0.12056562213E+03 -0.34820861874E+02  0.14193276762E+03  0.20725899198E+03  0.84040570998E+02 0.  0.
        -13    1    5    5    0    0 -0.74330875763E+02 -0.45123696334E+02  0.13323251102E+03  0.15909786000E+03  0.00000000000E+00 0.  1.
         14    1    5    5    0    0 -0.46234746368E+02  0.10302834460E+02  0.87002565967E+01  0.48161131989E+02  0.00000000000E+00 0. -1.
         13    1    3    3    0    0  0.32392445604E+02 -0.15629307487E+02 -0.57016559889E+03  0.57129883243E+03  0.00000000000E+00 0. -1.
        -14    1    3    3    0    0  0.23702706658E+01  0.27392022405E+02 -0.66617969771E+02  0.72068682317E+02  0.00000000000E+00 0.  1.
          5    1    4    4  501    0  0.91418360364E+02  0.57145941126E+01  0.27866570396E+01  0.91734459474E+02  0.41800000000E+01 0. -1.
         -5    1    4    4    0  501 -0.56154545034E+01  0.17343552844E+02  0.80899936258E+02  0.83033753625E+02  0.41800000000E+01 0. -1.
</event>
<event>
11    1  0.8864208E-009  0.2538872E+03  0.7561462E-02  0.1021849E+00
         22   -1    0    0    0    0  0.00000000000E+00  0.00000000000E+00  0.18104661740E+04  0.18104661740E+04  0.00000000000E+00 0. -1.
         22   -1    0    0    0    0 -0.00000000000E+00 -0.00000000000E+00 -0.14016323419E+03  0.14016323419E+03  0.00000000000E+00 0. -1.
         24    2    1    2    0    0  0.34050517790E+02  0.43499266940E+02 -0.76748293429E+02  0.12337070168E+03  0.79236390016E+02 0.  0.
         25    2    1    2    0    0 -0.20276419248E+03 -0.16132547963E+03  0.69419630322E+03  0.75145863862E+03  0.12506938081E+03 0.  0.
        -24    2    1    2    0    0  0.16871367469E+03  0.11782621269E+03  0.10528549300E+04  0.10758000679E+04  0.80591327025E+02 0.  0.
        -13    1    3    3    0    0  0.12982089613E+02  0.64616733814E+02 -0.60173461959E+02  0.89245181739E+02  0.00000000000E+00 0.  1.
         14    1    3    3    0    0  0.21068428176E+02 -0.21117466874E+02 -0.16574831470E+02  0.34125519941E+02  0.00000000000E+00 0. -1.
         11    1    5    5    0    0  0.54242675824E+02  0.22004191475E+02  0.49002828424E+03  0.49351207855E+03  0.00000000000E+00 0. -1.
        -12    1    5    5    0    0  0.11447099887E+03  0.95822021216E+02  0.56282664576E+03  0.58228798932E+03  0.00000000000E+00 0.  1.
          5    1    4    4  501    0 -0.17757787332E+03 -0.16929036009E+03  0.67587814572E+03  0.71904232655E+03  0.41800000000E+01 0.  1.
         -5    1    4    4    0  501 -0.25186319165E+02  0.79648804564E+01  0.18318157499E+02  0.32416312065E+02  0.41800000000E+01 0.  1.
</event>
<event>
11    1  0.8864208E-009  0.2083218E+03  0.7561462E-02  0.1048790E+00
         22   -1    0    0    0    0  0.00000000000E+00  0.00000000000E+00  0.25169743913E+03  0.25169743913E+03  0.00000000000E+00 0.  1.
         22   -1    0    0    0    0 -0.00000000000E+00 -0.00000000000E+00 -0.84900255218E+03  0.84900255218E+03  0.00000000000E+00 0. -1.
         24    2    1    2    0    0 -0.28939258037E+02 -0.16186864711E+02 -0.58115850903E+03  0.58750714993E+03  0.79498071380E+02 0.  0.
         25    2    1    2    0    0  0.10925402018E+03 -0.12970081256E+03 -0.17135080912E+03  0.27160084050E+03  0.12508866884E+03 0.  0.
        -24    2    1    2    0    0 -0.80314762141E+02  0.14588767727E+03  0.15520420511E+03  0.24159200088E+03  0.80899160740E+02 0.  0.
        -13    1    3    3    0    0 -0.12975299341E+02 -0.47367277022E+02 -0.39898799113E+03  0.40199929651E+03  0.00000000000E+00 0.  1.
         14    1    3    3    0    0 -0.15963958695E+02  0.31180412310E+02 -0.18217051790E+03  0.18550785342E+03  0.00000000000E+00 0. -1.
         13    1    5    5    0    0 -0.31123295642E+02  0.50133085980E+01  0.92286510133E+01  0.32847538633E+02  0.00000000000E+00 0. -1.
        -14    1    5    5    0    0 -0.49191466499E+02  0.14087436868E+03  0.14597555409E+03  0.20874446225E+03  0.00000000000E+00 0.  1.
          5    1    4    4  501    0 -0.30057066787E+01  0.20694705878E+02 -0.29072850129E+02  0.36055625617E+02  0.41800000000E+01 0. -1.
         -5    1    4    4    0  501  0.11225972686E+03 -0.15039551844E+03 -0.14227795899E+03  0.23554521489E+03  0.41800000000E+01 0. -1.
</event>
<event>
11    1  0.8864208E-009  0.3219828E+03  0.7561462E-02  0.9912942E-01
         22   -1    0    0    0    0  0.00000000000E+00  0.00000000000E+00  0.14463344737E+04  0.14463344737E+04  0.00000000000E+00 0.  1.
         22   -1    0    0    0    0 -0.00000000000E+00 -0.00000000000E+00 -0.55040940760E+03  0.55040940760E+03  0.00000000000E+00 0. -1.
         24    2    1    2    0    0  0.18054188562E+03  0.46634414696E+02 -0.38419733872E+03  0.43458131976E+03  0.80518242057E+02 0.  0.
         25    2    1    2    0    0 -0.78398948600E+02  0.24688757830E+03  0.50850425140E+02  0.29211805986E+03  0.12508926292E+03 0.  0.
        -24    2    1    2    0    0 -0.10214293702E+03 -0.29352199300E+03  0.12292719797E+04  0.12700445017E+04  0.72904706861E+02 0.  0.
        -13    1    3    3    0    0  0.10774807822E+03  0.65509034343E+02 -0.21179898341E+03  0.24649521560E+03  0.00000000000E+00 0.  1.
         14    1    3    3    0    0  0.72793807406E+02 -0.18874619647E+02 -0.17239835531E+03  0.18808610416E+03  0.00000000000E+00 0. -1.
         11    1    5    5    0    0 -0.10552417964E+02 -0.31289696824E+02  0.62750294042E+02  0.70908377887E+02  0.00000000000E+00 0. -1.
        -12    1    5    5    0    0 -0.91590519058E+02 -0.26223229617E+03  0.11665216857E+04  0.11991361238E+04  0.00000000000E+00 0.  1.
          5    1    4    4  501    0  0.19009279562E+01  0.16673480060E+03  0.62199933586E+02  0.17801800863E+03  0.41800000000E+01 0.  1.
         -5    1    4    4    0  501 -0.80299876556E+02  0.80152777698E+02 -0.11349508446E+02  0.11410005123E+03  0.41800000000E+01 0.  1.
</event>
<event>
11    1  0.8864208E-009  0.2592973E+03  0.7561462E-02  0.1019060E+00
         22   -1    0    0    0    0  0.00000000000E+00  0.00000000000E+00  0.11382975146E+04  0.11382975146E+04  0.00000000000E+00 0.  1.
         22   -1    0    0    0    0 -0.00000000000E+00 -0.00000000000E+00 -0.82330379010E+03  0.82330379010E+03  0.00000000000E+00 0.  1.
         24    2    1    2    0    0 -0.11305114378E+02 -0.66988078393E+01 -0.69564895120E+03  0.70034411844E+03  0.79885801556E+02 0.  0.
         25    2    1    2    0    0 -0.37771730673E+02  0.22793036657E+03  0.46869283501E+02  0.26688927418E+03  0.12511674265E+03 0.  0.
        -24    2    1    2    0    0  0.49076845052E+02 -0.22123155873E+03  0.96377339224E+03  0.99436791211E+03  0.92501101311E+02 0.  0.
        -13    1    3    3    0    0  0.20041026655E+02 -0.31945029840E+02 -0.24293703077E+03  0.24584655499E+03  0.00000000000E+00 0.  1.
         14    1    3    3    0    0 -0.31346141033E+02  0.25246222001E+02 -0.45271192043E+03  0.45449756345E+03  0.00000000000E+00 0. -1.
         13    1    5    5    0    0  0.33873708092E+02 -0.87003964089E+02  0.22937489421E+03  0.24764886424E+03  0.00000000000E+00 0. -1.
        -14    1    5    5    0    0  0.15203136959E+02 -0.13422759464E+03  0.73439849804E+03  0.74671904787E+03  0.00000000000E+00 0.  1.
          5    1    4    4  501    0 -0.47042885495E+02  0.16195418871E+03 -0.22994604478E+02  0.17025985009E+03  0.41800000000E+01 0.  1.
         -5    1    4    4    0  501  0.92711548218E+01  0.65976177864E+02  0.69863887979E+02  0.96629424094E+02  0.41800000000E+01 0.  1.
</event>
<event>
11    1  0.8864208E-009  0.1304177E+03  0.7561462E-02  0.1118757E+00
         22   -1    0    0    0    0  0.00000000000E+00  0.00000000000E+00  0.71848529254E+02  0.71848529254E+02  0.00000000000E+00 0. -1.
         22   -1    0    0    0    0 -0.00000000000E+00 -0.00000000000E+00 -0.14258290711E+04  0.14258290711E+04  0.00000000000E+00 0. -1.
         24    2    1    2    0    0 -0.26713343069E+02  0.27520353650E+02 -0.12436038259E+04  0.12469064822E+04  0.82184712409E+02 0.  0.
         25    2    1    2    0    0  0.18342488963E+02  0.33936668772E+01 -0.10420461449E+03  0.16387262106E+03  0.12509064863E+03 0.  0.
        -24    2    1    2    0    0  0.83708541063E+01 -0.30914020528E+02 -0.61721014418E+01  0.86898497100E+02  0.80545056324E+02 0.  0.
        -11    1    3    3    0    0  0.23694326394E+02  0.39128777832E+01 -0.15209117390E+03  0.15397550745E+03  0.00000000000E+00 0.  1.
         12    1    3    3    0    0 -0.50407669463E+02  0.23607475867E+02 -0.10915126520E+04  0.10929309747E+04  0.00000000000E+00 0. -1.
         11    1    5    5    0    0 -0.14741334463E+02 -0.52708788864E+02 -0.66004376612E+01  0.55127934322E+02  0.00000000000E+00 0. -1.
        -12    1    5    5    0    0  0.23112188569E+02  0.21794768337E+02  0.42833621946E+00  0.31770562778E+02  0.00000000000E+00 0.  1.
          5    1    4    4  501    0  0.39357065968E+02 -0.25700028474E+02 -0.11650879379E+03  0.12570298936E+03  0.41800000000E+01 0.  1.
         -5    1    4    4    0  501 -0.21014577005E+02  0.29093695351E+02  0.12304179293E+02  0.38169631698E+02  0.41800000000E+01 0.  1.
</event>
<event>
11    1  0.8864208E-009  0.1657108E+03  0.7561462E-02  0.1081826E+00
         22   -1    0    0    0    0  0.00000000000E+00  0.00000000000E+00  0.68939588724E+03  0.68939588724E+03  0.00000000000E+00 0. -1.
         22   -1    0    0    0    0 -0.00000000000E+00 -0.00000000000E+00 -0.35499034147E+03  0.35499034147E+03  0.00000000000E+00 0.  1.
         24    2    1    2    0    0  0.73353048359E+02  0.81708244831E+02 -0.30723018337E+03  0.33611262949E+03  0.80773802368E+02 0.  0.
         25    2    1    2    0    0 -0.84406997994E+02 -0.47539380018E+02  0.18602265514E+03  0.24420540222E+03  0.12508923330E+03 0.  0.
        -24    2    1    2    0    0  0.11053949634E+02 -0.34168864814E+02  0.45561307400E+03  0.46406819700E+03  0.80537675264E+02 0.  0.
        -11    1    3    3    0    0  0.37968703421E+02 -0.87393979920E+01 -0.96988840486E+02  0.10452193404E+03  0.00000000000E+00 0.  1.
         12    1    3    3    0    0  0.35384344938E+02  0.90447642823E+02 -0.21024134289E+03  0.23159069545E+03  0.00000000000E+00 0. -1.
         13    1    5    5    0    0  0.31822410552E+02  0.10499384122E+02  0.11086689460E+03  0.11582042651E+03  0.00000000000E+00 0. -1.
        -14    1    5    5    0    0 -0.20768460917E+02 -0.44668248935E+02  0.34474617941E+03  0.34824777049E+03  0.00000000000E+00 0.  1.
          5    1    4    4  501    0 -0.63457605174E+02 -0.45152489310E+01  0.13564295181E+02  0.65182187990E+02  0.41800000000E+01 0. -1.
         -5    1    4    4    0  501 -0.20949392819E+02 -0.43024131086E+02  0.17245835996E+03  0.17902321423E+03  0.41800000000E+01 0. -1.
</event>
<event>
11    1  0.8864208E-009  0.1692870E+03  0.7561462E-02  0.1078654E+00
         22   -1    0    0    0    0  0.00000000000E+00  0.00000000000E+00  0.44735732343E+04  0.44735732343E+04  0.00000000000E+00 0.  1.
         22   -1    0    0    0    0 -0.00000000000E+00 -0.00000000000E+00 -0.15190491080E+03  0.15190491080E+03  0.00000000000E+00 0. -1.
         24    2    1    2    0    0  0.11942760314E+03  0.15081651017E+01 -0.55548011257E+02  0.15781003394E+03  0.86909138202E+02 0.  0.
         25    2    1    2    0    0 -0.87628406480E+02 -0.85636337012E+02  0.12842088125E+03  0.21714460801E+03  0.12509012034E+03 0.  0.
        -24    2    1    2    0    0 -0.31799196664E+02  0.84128171910E+02  0.42487954535E+04  0.42505235032E+04  0.81231193568E+02 0.  0.
        -11    1    3    3    0    0  0.45334518218E+02  0.34946701855E+01  0.22022155271E+02  0.50521347810E+02  0.00000000000E+00 0.  1.
         12    1    3    3    0    0  0.74093084926E+02 -0.19865050838E+01 -0.77570166528E+02  0.10728868613E+03  0.00000000000E+00 0. -1.
         11    1    5    5    0    0 -0.27978406136E+02 -0.65146053455E+01  0.74484447692E+03  0.74539823322E+03  0.00000000000E+00 0. -1.
        -12    1    5    5    0    0 -0.38207905286E+01  0.90642777255E+02  0.35039509766E+04  0.35051252700E+04  0.00000000000E+00 0.  1.
          5    1    4    4  501    0 -0.10528382774E+03 -0.42158962605E+02  0.46503413936E+02  0.12264624910E+03  0.41800000000E+01 0.  1.
         -5    1    4    4    0  501  0.17655421257E+02 -0.43477374407E+02  0.81917467318E+02  0.94498358911E+02  0.41800000000E+01 0.  1.
</event>
<event>
11    1  0.8864208E-009  0.3054546E+03  0.7561462E-02  0.9979088E-01
         22   -1    0    0    0    0  0.00000000000E+00  0.00000000000E+00  0.78721161869E+03  0.78721161869E+03  0.00000000000E+00 0. -1.
         22   -1    0    0    0    0 -0.00000000000E+00 -0.00000000000E+00 -0.15692210303E+04  0.15692210303E+04  0.00000000000E+00 0. -1.
         24    2    1    2    0    0 -0.26638407776E+03  0.30239718904E+02 -0.12085724624E+04  0.12405027362E+04  0.79528134590E+02 0.  0.
         25    2    1    2    0    0  0.34712033855E+03  0.25249622540E+01 -0.23933167700E+03  0.43980144829E+03  0.12508699947E+03 0.  0.
        -24    2    1    2    0    0 -0.80736260785E+02 -0.32764681158E+02  0.66589472780E+03  0.67612846447E+03  0.78371192561E+02 0.  0.
        -13    1    3    3    0    0 -0.13093645525E+03  0.33131481678E+02 -0.44647266466E+03  0.46645459659E+03  0.00000000000E+00 0.  1.
         14    1    3    3    0    0 -0.13544762252E+03 -0.28917627741E+01 -0.76209979773E+03  0.77404813961E+03  0.00000000000E+00 0. -1.
         11    1    5    5    0    0 -0.53936936227E+02 -0.32552856304E+01  0.56600781536E+03  0.56858124927E+03  0.00000000000E+00 0. -1.
        -12    1    5    5    0    0 -0.26799324558E+02 -0.29509395528E+02  0.99886912441E+02  0.10754721520E+03  0.00000000000E+00 0.  1.
          5    1    4    4  501    0  0.25370312513E+03 -0.49738517575E+02 -0.19505297720E+03  0.32388629509E+03  0.41800000000E+01 0.  1.
         -5    1    4    4    0  501  0.93417213419E+02  0.52263479829E+02 -0.44278699803E+02  0.11591515321E+03  0.41800000000E+01 0. -1.
</event>
<event>
11    1  0.8864208E-009  0.1379533E+03  0.7561462E-02  0.1109866E+00
         22   -1    0    0    0    0  0.00000000000E+00  0.00000000000E+00  0.12965042826E+04  0.12965042826E+04  0.00000000000E+00 0.  1.
         22   -1    0    0    0    0 -0.00000000000E+00 -0.00000000000E+00 -0.95633644681E+02  0.95633644681E+02  0.00000000000E+00 0. -1.
        -24    2    1    2    0    0  0.26859249509E+02 -0.12931409585E+02 -0.44895312482E+02  0.96715703111E+02  0.80310008763E+02 0.  0.
         25    2    1    2    0    0 -0.72649995320E+02  0.43961980109E+02  0.23236599752E+03  0.27722268488E+03  0.12509109758E+03 0.  0.
         24    2    1    2    0    0  0.45790745811E+02 -0.31030570524E+02  0.10133999529E+04  0.10181995393E+04  0.81799441322E+02 0.  0.
        -11    1    5    5    0    0  0.29173514245E+02  0.25267818033E+02  0.49021353233E+03  0.49173047886E+03  0.00000000000E+00 0.  1.
         12    1    5    5    0    0  0.16617231566E+02 -0.56298388557E+02  0.52318642054E+03  0.52646906042E+03  0.00000000000E+00 0. -1.
         11    1    3    3    0    0  0.46680970060E+02 -0.64184045754E+01 -0.55913613338E+02  0.73120729206E+02  0.00000000000E+00 0. -1.
        -12    1    3    3    0    0 -0.19821720551E+02 -0.65130050099E+01  0.11018300856E+02  0.23594973906E+02  0.00000000000E+00 0.  1.
          5    1    4    4  501    0 -0.19383335926E+02  0.74263521546E+02  0.71303595436E+02  0.10484493057E+03  0.41800000000E+01 0. -1.
         -5    1    4    4    0  501 -0.53266659393E+02 -0.30301541437E+02  0.16106240209E+03  0.17237775431E+03  0.41800000000E+01 0. -1.
</event>
<event>
11    1  0.8864208E-009  0.1458778E+03  0.7561462E-02  0.1101167E+00
         22   -1    0    0    0    0  0.00000000000E+00  0.00000000000E+00  0.43795915248E+03  0.43795915248E+03  0.00000000000E+00 0.  1.
         22   -1    0    0    0    0 -0.00000000000E+00 -0.00000000000E+00 -0.36198705235E+03  0.36198705235E+03  0.00000000000E+00 0.  1.
         24    2    1    2    0    0  0.62867902961E+02  0.29445756690E+02 -0.24690349917E+03  0.26892402707E+03  0.80866362755E+02 0.  0.
         25    2    1    2    0    0 -0.93561642979E+02 -0.64066159251E+02 -0.25528532897E+02  0.17075468668E+03  0.12508878141E+03 0.  0.
        -24    2    1    2    0    0  0.30693740018E+02  0.34620402560E+02  0.34840413220E+03  0.36026749107E+03  0.79161530038E+02 0.  0.
        -13    1    3    3    0    0  0.55971755533E+02 -0.13049938461E+02 -0.18346666899E+03  0.19225804779E+03  0.00000000000E+00 0.  1.
         14    1    3    3    0    0  0.68961474285E+01  0.42495695151E+02 -0.63436830186E+02  0.76665979285E+02  0.00000000000E+00 0. -1.
         11    1    5    5    0    0  0.55448957164E+02  0.95944878809E+01  0.22619311851E+03  0.23308789739E+03  0.00000000000E+00 0. -1.
        -12    1    5    5    0    0 -0.24755217146E+02  0.25025914680E+02  0.12221101369E+03  0.12717959368E+03  0.00000000000E+00 0.  1.
          5    1    4    4  501    0 -0.61774826112E+02 -0.60223980402E+02 -0.73170741442E+02  0.11320108992E+03  0.41800000000E+01 0.  1.
         -5    1    4    4    0  501 -0.31786816867E+02 -0.38421788486E+01  0.47642208545E+02  0.57553596759E+02  0.41800000000E+01 0.  1.
</event>
<event>
11    1  0.8864208E-009  0.1723885E+03  0.7561462E-02  0.1075972E+00
         22   -1    0    0    0    0  0.00000000000E+00  0.00000000000E+00  0.48903622496E+02  0.48903622496E+02  0.00000000000E+00 0.  1.
         22   -1    0    0    0    0 -0.00000000000E+00 -0.00000000000E+00 -0.91085825905E+03  0.91085825905E+03  0.00000000000E+00 0.  1.
         24    2    1    2    0    0 -0.10958125552E+03  0.45106016384E+02 -0.41741940271E+03  0.43805704655E+03  0.60103360967E+02 0.  0.
         25    2    1    2    0    0  0.11191573212E+03 -0.40146668996E+02 -0.38640092805E+03  0.42319119937E+03  0.12509287709E+03 0.  0.
        -24    2    1    2    0    0 -0.23344766008E+01 -0.49593473888E+01 -0.58134305792E+02  0.98513635624E+02  0.79342888695E+02 0.  0.
        -13    1    3    3    0    0 -0.10105536801E+03  0.15732253398E+02 -0.32392608566E+03  0.33968779809E+03  0.00000000000E+00 0.  1.
         14    1    3    3    0    0 -0.85258875102E+01  0.29373762987E+02 -0.93493317053E+02  0.98369248464E+02  0.00000000000E+00 0. -1.
         11    1    5    5    0    0  0.38456816376E+02 -0.44041254574E+01 -0.26980867683E+02  0.47183580489E+02  0.00000000000E+00 0. -1.
        -12    1    5    5    0    0 -0.40791292977E+02 -0.55522193145E+00 -0.31153438109E+02  0.51330055135E+02  0.00000000000E+00 0.  1.
          5    1    4    4  501    0  0.45586854176E+01  0.29491748615E+01 -0.22210173189E+03  0.22220740526E+03  0.41800000000E+01 0. -1.
         -5    1    4    4    0  501  0.10735704670E+03 -0.43095843857E+02 -0.16429919616E+03  0.20098379411E+03  0.41800000000E+01 0. -1.
</event>
<event>
11    1  0.8864208E-009  0.1154449E+04  0.7561462E-02  0.8544562E-01
         22   -1    0    0    0    0  0.00000000000E+00  0.00000000000E+00  0.15409765921E+04  0.15409765921E+04  0.00000000000E+00 0.  1.
         22   -1    0    0    0    0 -0.00000000000E+00 -0.00000000000E+00 -0.13216743741E+04  0.13216743741E+04  0.00000000000E+00 0.  1.
        -24    2    1    2    0    0  0.16475692390E+03 -0.11384723096E+04 -0.68301941936E+03  0.13422093345E+04  0.10838047119E+03 0.  0.
         25    2    1    2    0    0 -0.20242312745E+03  0.11209425903E+04  0.82817155206E+03  0.14138615395E+04  0.12509564342E+03 0.  0.
         24    2    1    2    0    0  0.37666203558E+02  0.17529719378E+02  0.74150085382E+02  0.10658009224E+03  0.64304330701E+02 0.  0.
        -11    1    5    5    0    0  0.23981160981E+02 -0.18847104274E+02  0.55817860234E+02  0.63607727067E+02  0.00000000000E+00 0.  1.
         12    1    5    5    0    0  0.13685042577E+02  0.36376823652E+02  0.18332225147E+02  0.42972365168E+02  0.00000000000E+00 0. -1.
         13    1    3    3    0    0  0.41537289565E+02 -0.51423453438E+03 -0.25612526408E+03  0.57598841453E+03  0.00000000000E+00 0. -1.
        -14    1    3    3    0    0  0.12321963433E+03 -0.62423777527E+03 -0.42689415528E+03  0.76622091995E+03  0.00000000000E+00 0.  1.
          5    1    4    4  501    0 -0.17659072121E+03  0.73919774638E+03  0.60045964495E+03  0.96859013452E+03  0.41800000000E+01 0.  1.
         -5    1    4    4    0  501 -0.25832406245E+02  0.38174484388E+03  0.22771190711E+03  0.44527140497E+03  0.41800000000E+01 0.  1.
</event>
<event>
11    1  0.8864208E-009  0.1748748E+03  0.7561462E-02  0.1073866E+00
         22   -1    0    0    0    0  0.00000000000E+00  0.00000000000E+00  0.65145813956E+03  0.65145813956E+03  0.00000000000E+00 0. -1.
         22   -1    0    0    0    0 -0.00000000000E+00 -0.00000000000E+00 -0.29575368362E+03  0.29575368362E+03  0.00000000000E+00 0. -1.
        -24    2    1    2    0    0 -0.11011246900E+03 -0.37127330738E+02 -0.19223030673E+03  0.23889874600E+03  0.81344486569E+02 0.  0.
         25    2    1    2    0    0  0.14081302076E+03  0.70958817221E+02  0.57030949763E+02  0.20919960939E+03  0.12509391184E+03 0.  0.
         24    2    1    2    0    0 -0.30700551753E+02 -0.33831486482E+02  0.49090381291E+03  0.49911346779E+03  0.77721341035E+02 0.  0.
        -13    1    5    5    0    0 -0.17342168712E+02 -0.22397470628E+02  0.47102916135E+02  0.54964372229E+02  0.00000000000E+00 0.  1.
         14    1    5    5    0    0 -0.13358383042E+02 -0.11434015854E+02  0.44380089677E+03  0.44414909556E+03  0.00000000000E+00 0. -1.
         11    1    3    3    0    0 -0.10285607657E+03 -0.34109058515E+01 -0.16701365985E+03  0.19617484381E+03  0.00000000000E+00 0. -1.
        -12    1    3    3    0    0 -0.72563924310E+01 -0.33716424887E+02 -0.25216646880E+02  0.42723902188E+02  0.00000000000E+00 0.  1.
          5    1    4    4  501    0  0.45221367341E+02 -0.31509863836E+02  0.39441533643E+02  0.67903980438E+02  0.41800000000E+01 0.  1.
         -5    1    4    4    0  501  0.95591653416E+02  0.10246868106E+03  0.17589416120E+02  0.14129562895E+03  0.41800000000E+01 0.  1.
</event>
<event>
11    1  0.8864208E-009  0.1510255E+03  0.7561462E-02  0.1095835E+00
         22   -1    0    0    0    0  0.00000000000E+00  0.00000000000E+00  0.71736600905E+03  0.71736600905E+03  0.00000000000E+00 0. -1.
         22   -1    0    0    0    0 -0.00000000000E+00 -0.00000000000E+00 -0.30833789610E+03  0.30833789610E+03  0.00000000000E+00 0. -1.
        -24    2    1    2    0    0  0.57191314844E+02 -0.69711799683E+02 -0.26288811183E+03  0.28985863036E+03  0.82324265852E+02 0.  0.
         25    2    1    2    0    0  0.40516493093E+01  0.30304785129E+02  0.12793169702E+03  0.18151428473E+03  0.12508445386E+03 0.  0.
         24    2    1    2    0    0 -0.61242964154E+02  0.39407014554E+02  0.54398452775E+03  0.55433099006E+03  0.77846429899E+02 0.  0.
        -11    1    5    5    0    0 -0.50811913787E+02  0.61366770612E+02  0.35762292437E+03  0.36639034806E+03  0.00000000000E+00 0.  1.
         12    1    5    5    0    0 -0.10431050367E+02 -0.21959756057E+02  0.18636160338E+03  0.18794064199E+03  0.00000000000E+00 0. -1.
         11    1    3    3    0    0 -0.38354804073E+00 -0.48902381536E+02 -0.18175775437E+03  0.18822186723E+03  0.00000000000E+00 0. -1.
        -12    1    3    3    0    0  0.57574862885E+02 -0.20809418148E+02 -0.81130357458E+02  0.10163676314E+03  0.00000000000E+00 0.  1.
          5    1    4    4  501    0  0.12968462320E+02  0.70474878224E+02  0.35134670231E+02  0.79917500761E+02  0.41800000000E+01 0.  1.
         -5    1    4    4    0  501 -0.89168130106E+01 -0.40170093095E+02  0.92797026786E+02  0.10159678397E+03  0.41800000000E+01 0.  1.
</event>
<event>
11    1  0.8864208E-009  0.1340656E+03  0.7561462E-02  0.1114372E+00
         22   -1    0    0    0    0  0.00000000000E+00  0.00000000000E+00  0.31906122271E+03  0.31906122271E+03  0.00000000000E+00 0. -1.
         22   -1    0    0    0    0 -0.00000000000E+00 -0.00000000000E+00 -0.24199366984E+03  0.24199366984E+03  0.00000000000E+00 0.  1.
        -24    2    1    2    0    0  0.37976687391E+02  0.34916335909E+02 -0.14107418852E+03  0.17042052480E+03  0.80497511181E+02 0.  0.
         25    2    1    2    0    0 -0.48566631585E+02  0.59042134961E+01 -0.19700012667E+02  0.13577334472E+03  0.12511088361E+03 0.  0.
         24    2    1    2    0    0  0.10589944194E+02 -0.40820549405E+02  0.23784175406E+03  0.25486102304E+03  0.81283312667E+02 0.  0.
        -13    1    5    5    0    0 -0.32770490651E+02 -0.32656859463E+02  0.10123273932E+03  0.11130338287E+03  0.00000000000E+00 0.  1.
         14    1    5    5    0    0  0.43360434844E+02 -0.81636899420E+01  0.13660901474E+03  0.14355764017E+03  0.00000000000E+00 0. -1.
         11    1    3    3    0    0  0.41794424724E+02 -0.12814582841E+01 -0.24874491600E+02  0.48653431592E+02  0.00000000000E+00 0. -1.
        -12    1    3    3    0    0 -0.38177373326E+01  0.36197794193E+02 -0.11619969692E+03  0.12176709320E+03  0.00000000000E+00 0.  1.
          5    1    4    4  501    0  0.30545279509E+02  0.10734269729E+02  0.28141247398E+02  0.43100357910E+02  0.41800000000E+01 0. -1.
         -5    1    4    4    0  501 -0.79111911094E+02 -0.48300562329E+01 -0.47841260064E+02  0.92672986812E+02  0.41800000000E+01 0. -1.
</event>
<event>
11    1  0.8864208E-009  0.1292950E+03  0.7561462E-02  0.1120138E+00
         22   -1    0    0    0    0  0.00000000000E+00  0.00000000000E+00  0.18946220819E+03  0.18946220819E+03  0.00000000000E+00 0. -1.
         22   -1    0    0    0    0 -0.00000000000E+00 -0.00000000000E+00 -0.91716486735E+03  0.91716486735E+03  0.00000000000E+00 0.  1.
        -24    2    1    2    0    0  0.14255039993E+02  0.28874843138E+02 -0.78043735361E+03  0.78570572961E+03  0.84935669186E+02 0.  0.
         25    2    1    2    0    0 -0.44145336684E+02 -0.21614391900E+02 -0.85194269734E+02  0.15912673538E+03  0.12508901482E+03 0.  0.
         24    2    1    2    0    0  0.29890296691E+02 -0.72604512376E+01  0.13792896418E+03  0.16179461056E+03  0.78784217064E+02 0.  0.
        -13    1    5    5    0    0  0.18068799569E+02 -0.24763652501E+02  0.10164499201E+02  0.32296084083E+02  0.00000000000E+00 0.  1.
         14    1    5    5    0    0  0.11821497122E+02  0.17503201264E+02  0.12776446497E+03  0.12949852647E+03  0.00000000000E+00 0. -1.
         13    1    3    3    0    0 -0.22119172004E+02  0.29943857996E+02 -0.16300929745E+03  0.16720623032E+03  0.00000000000E+00 0. -1.
        -14    1    3    3    0    0  0.36374211997E+02 -0.10690148577E+01 -0.61742805616E+03  0.61849949929E+03  0.00000000000E+00 0.  1.
          5    1    4    4  501    0 -0.44122655211E+02 -0.46711168001E+01  0.22572467523E+02  0.49956148021E+02  0.41800000000E+01 0. -1.
         -5    1    4    4    0  501 -0.22681472886E-01 -0.16943275100E+02 -0.10776673726E+03  0.10917058736E+03  0.41800000000E+01 0. -1.
</event>
<event>
11    1  0.8864208E-009  0.1903322E+03  0.7561462E-02  0.1061579E+00
         22   -1    0    0    0    0  0.00000000000E+00  0.00000000000E+00  0.65457436088E+03  0.65457436088E+03  0.00000000000E+00 0. -1.
         22   -1    0    0    0    0 -0.00000000000E+00 -0.00000000000E+00 -0.16768793390E+03  0.16768793390E+03  0.00000000000E+00 0. -1.
         24    2    1    2    0    0 -0.48496964977E+02 -0.28426084718E+02 -0.94765522221E+02  0.13660554310E+03  0.80750060673E+02 0.  0.
         25    2    1    2    0    0  0.13315294045E+03 -0.82028409248E+02  0.28152155160E+03  0.34548556783E+03  0.12509007988E+03 0.  0.
        -24    2    1    2    0    0 -0.84655975476E+02  0.11045449397E+03  0.30013039760E+03  0.34017118386E+03  0.79191851499E+02 0.  0.
        -11    1    3    3    0    0  0.20455437643E+02 -0.18169078004E+02 -0.17198270450E+02  0.32315953199E+02  0.00000000000E+00 0.  1.
         12    1    3    3    0    0 -0.68952402620E+02 -0.10257006714E+02 -0.77567251771E+02  0.10428958990E+03  0.00000000000E+00 0. -1.
         13    1    5    5    0    0 -0.90681950091E+02  0.78121944494E+02  0.18425271232E+03  0.21971644518E+03  0.00000000000E+00 0. -1.
        -14    1    5    5    0    0  0.60259746149E+01  0.32332549472E+02  0.11587768528E+03  0.12045473868E+03  0.00000000000E+00 0.  1.
          5    1    4    4  501    0  0.13776370769E+03 -0.77984940870E+02  0.16489339230E+03  0.22862150683E+03  0.41800000000E+01 0.  1.
         -5    1    4    4    0  501 -0.46107672392E+01 -0.40434683778E+01  0.11662815930E+03  0.11686406100E+03  0.41800000000E+01 0.  1.
</event>
<event>
11    1  0.8864208E-009  0.1395146E+03  0.7561462E-02  0.1108102E+00
         22   -1    0    0    0    0  0.00000000000E+00  0.00000000000E+00  0.76161214649E+03  0.76161214649E+03  0.00000000000E+00 0.  1.
         22   -1    0    0    0    0 -0.00000000000E+00 -0.00000000000E+00 -0.47602236109E+03  0.47602236109E+03  0.00000000000E+00 0. -1.
        -24    2    1    2    0    0  0.54820746577E+02 -0.27588542701E+02 -0.44960306267E+03  0.45996171103E+03  0.75202524619E+02 0.  0.
         25    2    1    2    0    0 -0.85746708085E+02  0.55530383474E+02  0.44064771995E+03  0.46930658064E+03  0.12506850963E+03 0.  0.
         24    2    1    2    0    0  0.30925961508E+02 -0.27941840772E+02  0.29454512812E+03  0.30836621591E+03  0.81214093933E+02 0.  0.
        -11    1    5    5    0    0  0.35543028178E+02  0.42530495371E+01  0.25341317395E+03  0.25592895892E+03  0.00000000000E+00 0.  1.
         12    1    5    5    0    0 -0.46170666703E+01 -0.32194890309E+02  0.41131954173E+02  0.52437256991E+02  0.00000000000E+00 0. -1.
         11    1    3    3    0    0  0.41248605928E+02 -0.46281001755E+02 -0.40514244084E+03  0.40985823889E+03  0.00000000000E+00 0. -1.
        -12    1    3    3    0    0  0.13572140648E+02  0.18692459053E+02 -0.44460621822E+02  0.50103472136E+02  0.00000000000E+00 0.  1.
          5    1    4    4  501    0 -0.80966766126E+02 -0.18738672487E+02  0.18177406947E+03  0.19991508146E+03  0.41800000000E+01 0. -1.
         -5    1    4    4    0  501 -0.47799419587E+01  0.74269055960E+02  0.25887365047E+03  0.26939149918E+03  0.41800000000E+01 0. -1.
</event>
<event>
11    1  0.8864208E-009  0.2056564E+03  0.7561462E-02  0.1050594E+00
         22   -1    0    0    0    0  0.00000000000E+00  0.00000000000E+00  0.22359257123E+03  0.22359257123E+03  0.00000000000E+00 0.  1.
         22   -1    0    0    0    0 -0.00000000000E+00 -0.00000000000E+00 -0.13133470143E+04  0.13133470143E+04  0.00000000000E+00 0.  1.
        -24    2    1    2    0    0  0.69335886357E+02 -0.12337803758E+02 -0.94822636706E+03  0.95422647352E+03  0.80344464801E+02 0.  0.
         25    2    1    2    0    0 -0.79728602019E+02  0.17298252682E+03 -0.27722014686E+03  0.35885786426E+03  0.12509337453E+03 0.  0.
         24    2    1    2    0    0  0.10392715663E+02 -0.16064472306E+03  0.13569207086E+03  0.22385524776E+03  0.76053259417E+02 0.  0.
        -13    1    5    5    0    0 -0.19772788176E+02 -0.12968561869E+03  0.81124498014E+02  0.15424171623E+03  0.00000000000E+00 0.  1.
         14    1    5    5    0    0  0.30165503839E+02 -0.30959104367E+02  0.54567572845E+02  0.69613531524E+02  0.00000000000E+00 0. -1.
         13    1    3    3    0    0  0.50403370851E+02 -0.36607461554E+02 -0.37210041190E+03  0.37727883928E+03  0.00000000000E+00 0. -1.
        -14    1    3    3    0    0  0.18932515506E+02  0.24269657797E+02 -0.57612595517E+03  0.57694763424E+03  0.00000000000E+00 0.  1.
          5    1    4    4  501    0 -0.55385642423E+02  0.44057620162E+02 -0.26191073323E+02  0.75578356708E+02  0.41800000000E+01 0.  1.
         -5    1    4    4    0  501 -0.24342959597E+02  0.12892490666E+03 -0.25102907353E+03  0.28327950755E+03  0.41800000000E+01 0.  1.
</event>
<event>
11    1  0.8864208E-009  0.1325449E+03  0.7561462E-02  0.1116181E+00
         22   -1    0    0    0    0  0.00000000000E+00  0.00000000000E+00  0.51969194755E+03  0.51969194755E+03  0.00000000000E+00 0.  1.
         22   -1    0    0    0    0 -0.00000000000E+00 -0.00000000000E+00 -0.43829791091E+03  0.43829791091E+03  0.00000000000E+00 0.  1.
        -24    2    1    2    0    0  0.67814849111E+01  0.42053382909E+02 -0.38906857623E+03  0.39942176845E+03  0.79680088812E+02 0.  0.
         25    2    1    2    0    0 -0.23855727961E+02 -0.73733180125E+02  0.99260475032E+02  0.17749891835E+03  0.12509015350E+03 0.  0.
         24    2    1    2    0    0  0.17074243050E+02  0.31679797216E+02  0.37120213785E+03  0.38106917166E+03  0.78278650479E+02 0.  0.
        -11    1    5    5    0    0 -0.29474885621E+01  0.27732242898E+02  0.35182300973E+03  0.35292661441E+03  0.00000000000E+00 0.  1.
         12    1    5    5    0    0  0.20021731612E+02  0.39475543180E+01  0.19379128113E+02  0.28142557245E+02  0.00000000000E+00 0. -1.
         13    1    3    3    0    0  0.25861228132E+02  0.11949781328E+02 -0.43364023671E+02  0.51884862371E+02  0.00000000000E+00 0. -1.
        -14    1    3    3    0    0 -0.19079743221E+02  0.30103601582E+02 -0.34570455256E+03  0.34753690608E+03  0.00000000000E+00 0.  1.
          5    1    4    4  501    0  0.17872838775E+01 -0.60428681572E+02  0.12478631699E+03  0.13872244680E+03  0.41800000000E+01 0. -1.
         -5    1    4    4    0  501 -0.25643011839E+02 -0.13304498553E+02 -0.25525841954E+02  0.38776471544E+02  0.41800000000E+01 0. -1.
</event>
<event>
11    1  0.8864208E-009  0.1348165E+03  0.7561462E-02  0.1113489E+00
         22   -1    0    0    0    0  0.00000000000E+00  0.00000000000E+00  0.13360558258E+04  0.13360558258E+04  0.00000000000E+00 0.  1.
         22   -1    0    0    0    0 -0.00000000000E+00 -0.00000000000E+00 -0.89887838459E+02  0.89887838459E+02  0.00000000000E+00 0.  1.
         24    2    1    2    0    0 -0.96786185720E+01 -0.54683596653E+02 -0.39523435443E+02  0.10587189334E+03  0.81011014375E+02 0.  0.
         25    2    1    2    0    0  0.26818431997E+02  0.26459105939E+01  0.25081551406E+03  0.28157271881E+03  0.12509414354E+03 0.  0.
        -24    2    1    2    0    0 -0.17139813425E+02  0.52037686060E+02  0.10348759087E+04  0.10384990521E+04  0.67159815295E+02 0.  0.
        -13    1    3    3    0    0 -0.72043358891E+01 -0.51331883416E+02 -0.63253220298E+02  0.81779181878E+02  0.00000000000E+00 0.  1.
         14    1    3    3    0    0 -0.24742826829E+01 -0.33517132379E+01  0.23729784855E+02  0.24092711464E+02  0.00000000000E+00 0. -1.
         13    1    5    5    0    0 -0.38310805723E+00 -0.16296341900E+02  0.18768527772E+03  0.18839182839E+03  0.00000000000E+00 0. -1.
        -14    1    5    5    0    0 -0.16756705368E+02  0.68334027959E+02  0.84719063100E+03  0.85010722371E+03  0.00000000000E+00 0.  1.
          5    1    4    4  501    0  0.67981319201E+02  0.68476130263E+01  0.21830573351E+03  0.22878639656E+03  0.41800000000E+01 0. -1.
         -5    1    4    4    0  501 -0.41162887204E+02 -0.42017024324E+01  0.32509780548E+02  0.52786322259E+02  0.41800000000E+01 0. -1.
</event>
<event>
11    1  0.8864208E-009  0.1307978E+03  0.7561462E-02  0.1118293E+00
         22   -1    0    0    0    0  0.00000000000E+00  0.00000000000E+00  0.22177709203E+03  0.22177709203E+03  0.00000000000E+00 0.  1.
         22   -1    0    0    0    0 -0.00000000000E+00 -0.00000000000E+00 -0.26265843660E+03  0.26265843660E+03  0.00000000000E+00 0. -1.
         24    2    1    2    0    0 -0.26651876251E+02 -0.30580822485E+02 -0.11953958008E+03  0.15131892249E+03  0.83439774000E+02 0.  0.
         25    2    1    2    0    0  0.35830811316E+02  0.10348844402E+02 -0.80882170289E+02  0.15354923788E+03  0.12507796514E+03 0.  0.
        -24    2    1    2    0    0 -0.91789350643E+01  0.20231978084E+02  0.15954040580E+03  0.17956736825E+03  0.79358130467E+02 0.  0.
        -13    1    3    3    0    0 -0.31755781367E+02  0.13106021852E+02 -0.14214119756E+02  0.37178470375E+02  0.00000000000E+00 0.  1.
         14    1    3    3    0    0  0.51039051153E+01 -0.43686844337E+02 -0.10532546033E+03  0.11414045211E+03  0.00000000000E+00 0. -1.
         11    1    5    5    0    0 -0.55207200941E+01  0.13049090296E+02 -0.48526347443E+01  0.14976821154E+02  0.00000000000E+00 0. -1.
        -12    1    5    5    0    0 -0.36582149702E+01  0.71828877874E+01  0.16439304055E+03  0.16459054710E+03  0.00000000000E+00 0.  1.
          5    1    4    4  501    0  0.80592601009E+02  0.22731122524E+02 -0.53964732815E+02  0.99707251774E+02  0.41800000000E+01 0. -1.
         -5    1    4    4    0  501 -0.44761789693E+02 -0.12382278123E+02 -0.26917437474E+02  0.53841986110E+02  0.41800000000E+01 0. -1.
</event>
<event>
11    1  0.8864208E-009  0.1432001E+03  0.7561462E-02  0.1104037E+00
         22   -1    0    0    0    0  0.00000000000E+00  0.00000000000E+00  0.17758182453E+04  0.17758182453E+04  0.00000000000E+00 0. -1.
         22   -1    0    0    0    0 -0.00000000000E+00 -0.00000000000E+00 -0.10435434880E+04  0.10435434880E+04  0.00000000000E+00 0. -1.
        -24    2    1    2    0    0 -0.14120712335E+01 -0.69863115372E+02 -0.10294652005E+04  0.10349750456E+04  0.80572309421E+02 0.  0.
         25    2    1    2    0    0 -0.10153608760E+02  0.44172814991E+02  0.43493921160E+03  0.45483197923E+03  0.12508268541E+03 0.  0.
         24    2    1    2    0    0  0.11565679994E+02  0.25690300381E+02  0.13268007462E+04  0.13295547086E+04  0.80757331170E+02 0.  0.
        -13    1    5    5    0    0 -0.24105118076E+02  0.33716295233E+02  0.42580731352E+03  0.42781972083E+03  0.00000000000E+00 0.  1.
         14    1    5    5    0    0  0.35670798070E+02 -0.80259948523E+01  0.90099343265E+03  0.90173498773E+03  0.00000000000E+00 0. -1.
         11    1    3    3    0    0  0.13729400057E+02 -0.41633174420E+02 -0.91670963393E+03  0.91775725035E+03  0.00000000000E+00 0. -1.
        -12    1    3    3    0    0 -0.15141471291E+02 -0.28229940953E+02 -0.11275556657E+03  0.11721779520E+03  0.00000000000E+00 0.  1.
          5    1    4    4  501    0  0.40315261019E+02  0.66350935732E+02  0.25615358320E+03  0.26769366359E+03  0.41800000000E+01 0.  1.
         -5    1    4    4    0  501 -0.50468869779E+02 -0.22178120741E+02  0.17878562841E+03  0.18713831564E+03  0.41800000000E+01 0.  1.
</event>
<event>
11    1  0.8864208E-009  0.1289008E+03  0.7561462E-02  0.1120627E+00
         22   -1    0    0    0    0  0.00000000000E+00  0.00000000000E+00  0.27395449262E+03  0.27395449262E+03  0.00000000000E+00 0. -1.
         22   -1    0    0    0    0 -0.00000000000E+00 -0.00000000000E+00 -0.18848354267E+03  0.18848354267E+03  0.00000000000E+00 0. -1.
        -24    2    1    2    0    0  0.24166803797E+02 -0.28959828609E+02 -0.11239745006E+03  0.14232065376E+03  0.78735478848E+02 0.  0.
         25    2    1    2    0    0 -0.37266980776E+01 -0.71200681572E+01  0.26180896401E+02  0.12805238987E+03  0.12508953420E+03 0.  0.
         24    2    1    2    0    0 -0.20440105719E+02  0.36079896766E+02  0.17168750361E+03  0.19206499165E+03  0.75450680914E+02 0.  0.
        -11    1    5    5    0    0 -0.35442983525E+02  0.16324727757E+02  0.32789175958E+02  0.50968930512E+02  0.00000000000E+00 0.  1.
         12    1    5    5    0    0  0.15002877806E+02  0.19755169010E+02  0.13889832765E+03  0.14109606114E+03  0.00000000000E+00 0. -1.
         11    1    3    3    0    0  0.17507422710E+02 -0.54456979672E+02 -0.94503621303E+02  0.11046722104E+03  0.00000000000E+00 0. -1.
        -12    1    3    3    0    0  0.66593810870E+01  0.25497151063E+02 -0.17893828756E+02  0.31853432725E+02  0.00000000000E+00 0.  1.
          5    1    4    4  501    0 -0.33109751704E+02  0.50349599229E+02  0.16774384034E+02  0.62691228734E+02  0.41800000000E+01 0. -1.
         -5    1    4    4    0  501  0.29383053627E+02 -0.57469667386E+02  0.94065123678E+01  0.65361161134E+02  0.41800000000E+01 0. -1.
</event>
<event>
11    1  0.8864208E-009  0.1428147E+03  0.7561462E-02  0.1104455E+00
         22   -1    0    0    0    0  0.00000000000E+00  0.00000000000E+00  0.52081392454E+03  0.52081392454E+03  0.00000000000E+00 0.  1.
         22   -1    0    0    0    0 -0.00000000000E+00 -0.00000000000E+00 -0.29817104782E+03  0.29817104782E+03  0.00000000000E+00 0. -1.
         24    2    1    2    0    0  0.44922815676E+02  0.21407444043E+02 -0.25830372925E+03  0.27515172165E+03  0.80692721809E+02 0.  0.
         25    2    1    2    0    0  0.32374166597E+02  0.25265349990E+02  0.22505427109E+03  0.26073731168E+03  0.12509235066E+03 0.  0.
        -24    2    1    2    0    0 -0.77296982273E+02 -0.46672794033E+02  0.25589233489E+03  0.28309593902E+03  0.80679926040E+02 0.  0.
        -11    1    3    3    0    0  0.15874180697E+02  0.36042559371E+02 -0.46820988181E+02  0.61182192124E+02  0.00000000000E+00 0.  1.
         12    1    3    3    0    0  0.29048634979E+02 -0.14635115328E+02 -0.21148274107E+03  0.21396952953E+03  0.00000000000E+00 0. -1.
         11    1    5    5    0    0 -0.38343153961E+01  0.15644570922E+02  0.98838040494E+01  0.18898258025E+02  0.00000000000E+00 0. -1.
        -12    1    5    5    0    0 -0.73462666877E+02 -0.62317364955E+02  0.24600853084E+03  0.26419768100E+03  0.00000000000E+00 0.  1.
          5    1    4    4  501    0 -0.31397659261E+02  0.42047710223E+01  0.17228885985E+03  0.17522675804E+03  0.41800000000E+01 0. -1.
         -5    1    4    4    0  501  0.63771825858E+02  0.21060578968E+02  0.52765411246E+02  0.85510553639E+02  0.41800000000E+01 0. -1.
</event>
<event>
11    1  0.8864208E-009  0.1772511E+03  0.7561462E-02  0.1071888E+00
         22   -1    0    0    0    0  0.00000000000E+00  0.00000000000E+00  0.28598457362E+04  0.28598457362E+04  0.00000000000E+00 0. -1.
         22   -1    0    0    0    0 -0.00000000000E+00 -0.00000000000E+00 -0.47977070152E+03  0.47977070152E+03  0.00000000000E+00 0.  1.
         24    2    1    2    0    0 -0.12286441451E+03  0.23987764649E+02 -0.45776393084E+03  0.48148064338E+03  0.81269406104E+02 0.  0.
         25    2    1    2    0    0  0.16173490514E+03 -0.44063649114E+02  0.12386172769E+04  0.12561529497E+04  0.12509072578E+03 0.  0.
        -24    2    1    2    0    0 -0.38870490630E+02  0.20075884465E+02  0.15992216887E+04  0.16019828447E+04  0.83216999588E+02 0.  0.
        -11    1    3    3    0    0 -0.45959092241E+01  0.85093956778E+01 -0.16594102898E+03  0.16622261367E+03  0.00000000000E+00 0.  1.
         12    1    3    3    0    0 -0.11826850528E+03  0.15478368971E+02 -0.29182290186E+03  0.31525802971E+03  0.00000000000E+00 0. -1.
         13    1    5    5    0    0 -0.14528886552E+02 -0.31684953358E+02  0.45550973306E+03  0.45684148424E+03  0.00000000000E+00 0. -1.
        -14    1    5    5    0    0 -0.24341604078E+02  0.51760837823E+02  0.11437119556E+04  0.11451413604E+04  0.00000000000E+00 0.  1.
          5    1    4    4  501    0  0.11011918378E+03  0.15074334550E+02  0.96743826317E+03  0.97381093424E+03  0.41800000000E+01 0.  1.
         -5    1    4    4    0  501  0.51615721356E+02 -0.59137983664E+02  0.27117901372E+03  0.28234201545E+03  0.41800000000E+01 0.  1.
</event>
<event>
11    1  0.8864208E-009  0.1762119E+03  0.7561462E-02  0.1072749E+00
         22   -1    0    0    0    0  0.00000000000E+00  0.00000000000E+00  0.56461714216E+03  0.56461714216E+03  0.00000000000E+00 0.  1.
         22   -1    0    0    0    0 -0.00000000000E+00 -0.00000000000E+00 -0.86599717007E+03  0.86599717007E+03  0.00000000000E+00 0.  1.
        -24    2    1    2    0    0 -0.10197512114E+03  0.69204217507E+02 -0.80238100151E+03  0.81588977671E+03  0.81686639739E+02 0.  0.
         25    2    1    2    0    0  0.16021309926E+03 -0.34210908123E+02  0.17073540795E+03  0.26765139005E+03  0.12509222062E+03 0.  0.
         24    2    1    2    0    0 -0.58237978125E+02 -0.34993309384E+02  0.33026556565E+03  0.34707314546E+03  0.82269256999E+02 0.  0.
        -11    1    5    5    0    0 -0.29288739385E+02 -0.41320926036E+02  0.30167277646E+03  0.30589493824E+03  0.00000000000E+00 0.  1.
         12    1    5    5    0    0 -0.28949238740E+02  0.63276166520E+01  0.28592789186E+02  0.41178207216E+02  0.00000000000E+00 0. -1.
         11    1    3    3    0    0 -0.19529177188E+02  0.60172705459E+02 -0.28811564248E+03  0.29497926484E+03  0.00000000000E+00 0. -1.
        -12    1    3    3    0    0 -0.82445943948E+02  0.90315120481E+01 -0.51426535902E+03  0.52091051187E+03  0.00000000000E+00 0.  1.
          5    1    4    4  501    0  0.96639449998E+02  0.41920843450E+02  0.72184297574E+02  0.12776770182E+03  0.41800000000E+01 0.  1.
         -5    1    4    4    0  501  0.63573649262E+02 -0.76131751573E+02  0.98551110376E+02  0.13988368824E+03  0.41800000000E+01 0.  1.
</event>
<event>
11    1  0.8864208E-009  0.1570809E+03  0.7561462E-02  0.1089855E+00
         22   -1    0    0    0    0  0.00000000000E+00  0.00000000000E+00  0.12946877599E+03  0.12946877599E+03  0.00000000000E+00 0.  1.
         22   -1    0    0    0    0 -0.00000000000E+00 -0.00000000000E+00 -0.32081264140E+03  0.32081264140E+03  0.00000000000E+00 0.  1.
         24    2    1    2    0    0  0.16920286768E+02  0.11317404549E+02 -0.12791914080E+03  0.15238932897E+03  0.80279644056E+02 0.  0.
         25    2    1    2    0    0 -0.56289242828E+02  0.76109365722E+02 -0.71309728073E+02  0.17231916971E+03  0.12509078512E+03 0.  0.
        -24    2    1    2    0    0  0.39368956060E+02 -0.87426770272E+02  0.78850034711E+01  0.12557291872E+03  0.80703344254E+02 0.  0.
        -13    1    3    3    0    0  0.48056615102E+02  0.15986935292E+02 -0.69087318156E+02  0.85662581593E+02  0.00000000000E+00 0.  1.
         14    1    3    3    0    0 -0.31136328334E+02 -0.46695307426E+01 -0.58831822644E+02  0.66726747374E+02  0.00000000000E+00 0. -1.
         11    1    5    5    0    0  0.24368638221E+02  0.61377651359E+01  0.17055426306E+02  0.30370878422E+02  0.00000000000E+00 0. -1.
        -12    1    5    5    0    0  0.15000317839E+02 -0.93564535408E+02 -0.91704228354E+01  0.95202040295E+02  0.00000000000E+00 0.  1.
          5    1    4    4  501    0 -0.25224302386E+01  0.79057870188E+02  0.43868745764E+01  0.79329859205E+02  0.41800000000E+01 0. -1.
         -5    1    4    4    0  501 -0.53766812589E+02 -0.29485044655E+01 -0.75696602649E+02  0.92989310500E+02  0.41800000000E+01 0. -1.
</event>
<event>
11    1  0.8864208E-009  0.5390710E+03  0.7561462E-02  0.9310218E-01
         22   -1    0    0    0    0  0.00000000000E+00  0.00000000000E+00  0.31644588350E+03  0.31644588350E+03  0.00000000000E+00 0.  1.
         22   -1    0    0    0    0 -0.00000000000E+00 -0.00000000000E+00 -0.22265104235E+04  0.22265104235E+04  0.00000000000E+00 0. -1.
         24    2    1    2    0    0  0.25225614586E+03  0.44459291805E+03 -0.15625712725E+04  0.16462955514E+04  0.85813957432E+02 0.  0.
         25    2    1    2    0    0 -0.31083342611E+03 -0.47746824208E+03 -0.45948937396E+03  0.74254388156E+03  0.12509032850E+03 0.  0.
        -24    2    1    2    0    0  0.58577280248E+02  0.32875324029E+02  0.11199610641E+03  0.15411687400E+03  0.81833967934E+02 0.  0.
        -13    1    3    3    0    0  0.17485156943E+02  0.98984774665E+02 -0.30381114885E+03  0.32000770381E+03  0.00000000000E+00 0.  1.
         14    1    3    3    0    0  0.23477098892E+03  0.34560814338E+03 -0.12587601236E+04  0.13262878476E+04  0.00000000000E+00 0. -1.
         13    1    5    5    0    0  0.31227295667E+02 -0.22276528557E+02  0.19560986896E+02  0.43058331687E+02  0.00000000000E+00 0. -1.
        -14    1    5    5    0    0  0.27349984581E+02  0.55151852587E+02  0.92435119514E+02  0.11105854231E+03  0.00000000000E+00 0.  1.
          5    1    4    4  501    0 -0.26102347461E+03 -0.45957680450E+03 -0.40024095680E+03  0.66298898138E+03  0.41800000000E+01 0. -1.
         -5    1    4    4    0  501 -0.49809951494E+02 -0.17891437577E+02 -0.59248417164E+02  0.79554900181E+02  0.41800000000E+01 0. -1.
</event>
<event>
11    1  0.8864208E-009  0.1745972E+03  0.7561462E-02  0.1074099E+00
         22   -1    0    0    0    0  0.00000000000E+00  0.00000000000E+00  0.65891275351E+03  0.65891275351E+03  0.00000000000E+00 0.  1.
         22   -1    0    0    0    0 -0.00000000000E+00 -0.00000000000E+00 -0.44213915146E+03  0.44213915146E+03  0.00000000000E+00 0.  1.
        -24    2    1    2    0    0  0.16932892063E+02 -0.11991447972E+03 -0.39632172533E+03  0.42207061392E+03  0.80040539044E+02 0.  0.
         25    2    1    2    0    0  0.93692804204E+00  0.14042754468E+03  0.29572222528E+03  0.35046248415E+03  0.12510613546E+03 0.  0.
         24    2    1    2    0    0 -0.17869820105E+02 -0.20513064962E+02  0.31737310209E+03  0.32851880689E+03  0.80366686151E+02 0.  0.
        -13    1    5    5    0    0 -0.16396102135E+02 -0.39844197640E+02  0.29804403005E+03  0.30114221906E+03  0.00000000000E+00 0.  1.
         14    1    5    5    0    0 -0.14737179699E+01  0.19331132677E+02  0.19329072045E+02  0.27376587833E+02  0.00000000000E+00 0. -1.
         11    1    3    3    0    0 -0.24994800943E+02 -0.15705314007E+02 -0.12454809063E+03  0.12799853062E+03  0.00000000000E+00 0. -1.
        -12    1    3    3    0    0  0.41927693006E+02 -0.10420916571E+03 -0.27177363470E+03  0.29407208330E+03  0.00000000000E+00 0.  1.
          5    1    4    4  501    0  0.32189806601E+02 -0.64445280231E+01  0.88772060853E+02  0.94739995664E+02  0.41800000000E+01 0. -1.
         -5    1    4    4    0  501 -0.31252878559E+02  0.14687207270E+03  0.20695016443E+03  0.25572248849E+03  0.41800000000E+01 0. -1.
</event>
<event>
11    1  0.8864208E-009  0.1327727E+03  0.7561462E-02  0.1115908E+00
         22   -1    0    0    0    0  0.00000000000E+00  0.00000000000E+00  0.13201156019E+04  0.13201156019E+04  0.00000000000E+00 0. -1.
         22   -1    0    0    0    0 -0.00000000000E+00 -0.00000000000E+00 -0.95764719417E+03  0.95764719417E+03  0.00000000000E+00 0.  1.
         24    2    1    2    0    0 -0.24318107626E+02  0.37513944451E+02 -0.94114969339E+03  0.94559610182E+03  0.79941078427E+02 0.  0.
         25    2    1    2    0    0  0.28090864908E+02 -0.57893133516E+01  0.31978978892E+03  0.34457596001E+03  0.12507785689E+03 0.  0.
        -24    2    1    2    0    0 -0.37727572815E+01 -0.31724631100E+02  0.98382831222E+03  0.98759073425E+03  0.79978900474E+02 0.  0.
        -13    1    3    3    0    0 -0.41077286512E+02  0.38466634655E+02 -0.37514872675E+03  0.37934627009E+03  0.00000000000E+00 0.  1.
         14    1    3    3    0    0  0.16759178886E+02 -0.95269020405E+00 -0.56600096665E+03  0.56624983174E+03  0.00000000000E+00 0. -1.
         11    1    5    5    0    0 -0.15009172605E+02 -0.43911223196E+02  0.93246256647E+03  0.93361657475E+03  0.00000000000E+00 0. -1.
        -12    1    5    5    0    0  0.11236415324E+02  0.12186592097E+02  0.51365745753E+02  0.53974159493E+02  0.00000000000E+00 0.  1.
          5    1    4    4  501    0 -0.45532296356E+02 -0.15482771071E+02  0.79203446040E+02  0.92755401332E+02  0.41800000000E+01 0. -1.
         -5    1    4    4    0  501  0.73623161264E+02  0.96934577194E+01  0.24058634288E+03  0.25182055868E+03  0.41800000000E+01 0. -1.
</event>
<event>
11    1  0.8864208E-009  0.1414796E+03  0.7561462E-02  0.1105917E+00
         22   -1    0    0    0    0  0.00000000000E+00  0.00000000000E+00  0.16832989642E+04  0.16832989642E+04  0.00000000000E+00 0.  1.
         22   -1    0    0    0    0 -0.00000000000E+00 -0.00000000000E+00 -0.23640226517E+03  0.23640226517E+03  0.00000000000E+00 0.  1.
         24    2    1    2    0    0 -0.33690168813E+02  0.54381096824E+02 -0.19955368425E+03  0.23702827350E+03  0.11076280230E+03 0.  0.
         25    2    1    2    0    0  0.45888929595E+02 -0.11242511272E+03  0.45827485929E+03  0.49031515910E+03  0.12509160146E+03 0.  0.
        -24    2    1    2    0    0 -0.12198760781E+02  0.58044015893E+02  0.11881755240E+04  0.11923577968E+04  0.80237909996E+02 0.  0.
        -11    1    3    3    0    0 -0.54498938862E+02  0.38204416641E+02 -0.19987955714E+03  0.21066928858E+03  0.00000000000E+00 0.  1.
         12    1    3    3    0    0  0.20808770049E+02  0.16176680184E+02  0.32587289323E+00  0.26358984917E+02  0.00000000000E+00 0. -1.
         13    1    5    5    0    0 -0.30640626566E+02  0.24178126234E+01  0.19059202369E+03  0.19305443095E+03  0.00000000000E+00 0. -1.
        -14    1    5    5    0    0  0.18441865785E+02  0.55626203270E+02  0.99758350034E+03  0.99930336588E+03  0.00000000000E+00 0.  1.
          5    1    4    4  501    0  0.73608081341E+02 -0.22110827736E+02  0.16284159164E+03  0.18011633659E+03  0.41800000000E+01 0.  1.
         -5    1    4    4    0  501 -0.27719151747E+02 -0.90314284982E+02  0.29543326765E+03  0.31019882250E+03  0.41800000000E+01 0.  1.
</event>
<event>
11    1  0.8864208E-009  0.5673741E+03  0.7561462E-02  0.9254416E-01
         22   -1    0    0    0    0  0.00000000000E+00  0.00000000000E+00  0.71228524134E+03  0.71228524134E+03  0.00000000000E+00 0. -1.
         22   -1    0    0    0    0 -0.00000000000E+00 -0.00000000000E+00 -0.11298612129E+03  0.11298612129E+03  0.00000000000E+00 0. -1.
         24    2    1    2    0    0  0.14583690722E+03  0.27173268649E+02  0.30158399297E+03  0.34650587510E+03  0.84300810377E+02 0.  0.
         25    2    1    2    0    0 -0.18294855020E+03 -0.92722043653E+02  0.11823987127E+03  0.26776094649E+03  0.12509079866E+03 0.  0.
        -24    2    1    2    0    0  0.37111642981E+02  0.65548775004E+02  0.17947525581E+03  0.21100454105E+03  0.81471669577E+02 0.  0.
        -13    1    3    3    0    0  0.44757003619E+01  0.14615498773E+02  0.25396443417E+01  0.15494982784E+02  0.00000000000E+00 0.  1.
         14    1    3    3    0    0  0.14136120685E+03  0.12557769876E+02  0.29904434863E+03  0.33101089232E+03  0.00000000000E+00 0. -1.
         11    1    5    5    0    0  0.52562641455E+02  0.29980723686E+02  0.15164540019E+03  0.16327278545E+03  0.00000000000E+00 0. -1.
        -12    1    5    5    0    0 -0.15450998474E+02  0.35568051318E+02  0.27829855623E+02  0.47731755597E+02  0.00000000000E+00 0.  1.
          5    1    4    4  501    0 -0.12151535466E+03 -0.25455207409E+02  0.12511282204E+03  0.17630836520E+03  0.41800000000E+01 0. -1.
         -5    1    4    4    0  501 -0.61433195537E+02 -0.67266836243E+02 -0.68729507675E+01  0.91452581289E+02  0.41800000000E+01 0. -1.
</event>
<event>
11    1  0.8864208E-009  0.1337308E+03  0.7561462E-02  0.1114768E+00
         22   -1    0    0    0    0  0.00000000000E+00  0.00000000000E+00  0.14061116864E+04  0.14061116864E+04  0.00000000000E+00 0. -1.
         22   -1    0    0    0    0 -0.00000000000E+00 -0.00000000000E+00 -0.88881385037E+02  0.88881385037E+02  0.00000000000E+00 0.  1.
         24    2    1    2    0    0  0.24609078046E+02 -0.46076010085E+02 -0.35306035405E+02  0.10111766382E+03  0.79054793483E+02 0.  0.
         25    2    1    2    0    0  0.32261599604E+01  0.19263245009E+02  0.19244476237E+03  0.23035192278E+03  0.12508213719E+03 0.  0.
        -24    2    1    2    0    0 -0.27835238007E+02  0.26812765077E+02  0.11600915744E+04  0.11635234848E+04  0.80502881640E+02 0.  0.
        -13    1    3    3    0    0  0.14232480110E+02 -0.18597955891E+01 -0.51064945850E+02  0.53043859440E+02  0.00000000000E+00 0.  1.
         14    1    3    3    0    0  0.10376597937E+02 -0.44216214496E+02  0.15758910444E+02  0.48073804379E+02  0.00000000000E+00 0. -1.
         13    1    5    5    0    0 -0.25938617581E+02  0.21422489681E+02  0.11560144775E+04  0.11565038726E+04  0.00000000000E+00 0. -1.
        -14    1    5    5    0    0 -0.18966204251E+01  0.53902753953E+01  0.40770968431E+01  0.70196122786E+01  0.00000000000E+00 0.  1.
          5    1    4    4  501    0  0.17193307884E+02  0.25463504769E+02 -0.57404284804E+01  0.31534502220E+02  0.41800000000E+01 0.  1.
         -5    1    4    4    0  501 -0.13967147924E+02 -0.62002597600E+01  0.19818519085E+03  0.19881742056E+03  0.41800000000E+01 0.  1.
</event>
<event>
11    1  0.8864208E-009  0.1413129E+03  0.7561462E-02  0.1106101E+00
         22   -1    0    0    0    0  0.00000000000E+00  0.00000000000E+00  0.86358622909E+03  0.86358622909E+03  0.00000000000E+00 0. -1.
         22   -1    0    0    0    0 -0.00000000000E+00 -0.00000000000E+00 -0.31269274510E+03  0.31269274510E+03  0.00000000000E+00 0. -1.
         24    2    1    2    0    0  0.19727379626E+02  0.26880775445E+01 -0.28098118221E+03  0.29284095222E+03  0.80056250673E+02 0.  0.
         25    2    1    2    0    0 -0.11302641226E+02 -0.67765671763E+02  0.21814257800E+03  0.26068022177E+03  0.12509219686E+03 0.  0.
        -24    2    1    2    0    0 -0.84247383999E+01  0.65077594219E+02  0.61373208820E+03  0.62275780020E+03  0.82789686199E+02 0.  0.
        -11    1    3    3    0    0  0.31649535141E+02  0.47448094948E+01 -0.38527768517E+02  0.50085878636E+02  0.00000000000E+00 0.  1.
         12    1    3    3    0    0 -0.11922155515E+02 -0.20567319503E+01 -0.24245341370E+03  0.24275507359E+03  0.00000000000E+00 0. -1.
         13    1    5    5    0    0 -0.71687756470E+00  0.16599888561E+02  0.48023226588E+03  0.48051961397E+03  0.00000000000E+00 0. -1.
        -14    1    5    5    0    0 -0.77078608352E+01  0.48477705658E+02  0.13349982232E+03  0.14223818624E+03  0.00000000000E+00 0.  1.
          5    1    4    4  501    0  0.51932952240E+02 -0.32303658053E+02  0.56053061952E+02  0.83066094203E+02  0.41800000000E+01 0. -1.
         -5    1    4    4    0  501 -0.63235593466E+02 -0.35462013711E+02  0.16208951605E+03  0.17761412757E+03  0.41800000000E+01 0. -1.
</event>
<event>
11    1  0.8864208E-009  0.1576355E+03  0.7561462E-02  0.1089323E+00
         22   -1    0    0    0    0  0.00000000000E+00  0.00000000000E+00  0.68876112300E+03  0.68876112300E+03  0.00000000000E+00 0.  1.
         22   -1    0    0    0    0 -0.00000000000E+00 -0.00000000000E+00 -0.94945078215E+03  0.94945078215E+03  0.00000000000E+00 0. -1.
        -24    2    1    2    0    0  0.11673882457E+02  0.51225269925E+02 -0.69365418029E+03  0.70056458548E+03  0.82911451510E+02 0.  0.
         25    2    1    2    0    0  0.71608077220E+02 -0.98087473575E+02 -0.21547536437E+03  0.27717470524E+03  0.12508922966E+03 0.  0.
         24    2    1    2    0    0 -0.83281959677E+02  0.46862203649E+02  0.64843988551E+03  0.66047261444E+03  0.81350097519E+02 0.  0.
        -11    1    5    5    0    0 -0.95101150610E+02  0.55110571440E+02  0.59783338233E+03  0.60785372990E+03  0.00000000000E+00 0.  1.
         12    1    5    5    0    0  0.11819190933E+02 -0.82483677911E+01  0.50606503178E+02  0.52618884533E+02  0.00000000000E+00 0. -1.
         11    1    3    3    0    0  0.27277522650E+02  0.66639246207E+02 -0.60351295265E+03  0.60779333362E+03  0.00000000000E+00 0. -1.
        -12    1    3    3    0    0 -0.15603640193E+02 -0.15413976281E+02 -0.90141227633E+02  0.92771251858E+02  0.00000000000E+00 0.  1.
          5    1    4    4  501    0  0.58119770799E+02  0.14190270709E+02 -0.59575386003E+02  0.84533842678E+02  0.41800000000E+01 0.  1.
         -5    1    4    4    0  501  0.13488306421E+02 -0.11227774428E+03 -0.15589997837E+03  0.19264086256E+03  0.41800000000E+01 0.  1.
</event>
<event>
11    1  0.8864208E-009  0.1396295E+03  0.7561462E-02  0.1107973E+00
         22   -1    0    0    0    0  0.00000000000E+00  0.00000000000E+00  0.95456898217E+03  0.95456898217E+03  0.00000000000E+00 0. -1.
         22   -1    0    0    0    0 -0.00000000000E+00 -0.00000000000E+00 -0.27667410280E+03  0.27667410280E+03  0.00000000000E+00 0.  1.
        -24    2    1    2    0    0  0.50310427990E+02  0.11683451642E+02 -0.10682028590E+03  0.14420563191E+03  0.81957602389E+02 0.  0.
         25    2    1    2    0    0 -0.52633742922E+02 -0.73418553944E+02 -0.10821330145E+03  0.18846287913E+03  0.12509014047E+03 0.  0.
         24    2    1    2    0    0  0.23233149314E+01  0.61735102302E+02  0.89292846672E+03  0.89857457393E+03  0.79362444411E+02 0.  0.
        -11    1    5    5    0    0 -0.37462338902E+02  0.34110745202E+02  0.37963308765E+03  0.38299902221E+03  0.00000000000E+00 0.  1.
         12    1    5    5    0    0  0.39785653834E+02  0.27624357100E+02  0.51329537907E+03  0.51557555171E+03  0.00000000000E+00 0. -1.
         11    1    3    3    0    0  0.48432078198E+02  0.13059001065E+02 -0.15000941022E+02  0.52356775482E+02  0.00000000000E+00 0. -1.
        -12    1    3    3    0    0  0.18783497922E+01 -0.13755494223E+01 -0.91819344875E+02  0.91848856430E+02  0.00000000000E+00 0.  1.
          5    1    4    4  501    0  0.23908538536E+02 -0.39014284324E+02 -0.92076779926E+02  0.10290451107E+03  0.41800000000E+01 0.  1.
         -5    1    4    4    0  501 -0.76542281458E+02 -0.34404269620E+02 -0.16136521523E+02  0.85558368064E+02  0.41800000000E+01 0.  1.
</event>
<event>
11    1  0.8864208E-009  0.1581999E+03  0.7561462E-02  0.1088783E+00
         22   -1    0    0    0    0  0.00000000000E+00  0.00000000000E+00  0.50050789729E+02  0.50050789729E+02  0.00000000000E+00 0.  1.
         22   -1    0    0    0    0 -0.00000000000E+00 -0.00000000000E+00 -0.22531605374E+04  0.22531605374E+04  0.00000000000E+00 0. -1.
        -24    2    1    2    0    0  0.11939070142E+02 -0.94718006619E+02 -0.94478929960E+03  0.95303148414E+03  0.80796948898E+02 0.  0.
         25    2    1    2    0    0 -0.81314180903E+02  0.78040451237E+02 -0.12356107632E+04  0.12470303712E+04  0.12509388618E+03 0.  0.
         24    2    1    2    0    0  0.69375110760E+02  0.16677555382E+02 -0.22709684895E+02  0.10314947187E+03  0.70943899760E+02 0.  0.
        -11    1    5    5    0    0  0.50783830302E+02 -0.23791111721E+02 -0.13071059232E+02  0.57583565421E+02  0.00000000000E+00 0.  1.
         12    1    5    5    0    0  0.18591280458E+02  0.40468667103E+02 -0.96386256632E+01  0.45565906453E+02  0.00000000000E+00 0. -1.
         13    1    3    3    0    0  0.26072863487E+02 -0.10224148746E+02 -0.45078793586E+03  0.45165704970E+03  0.00000000000E+00 0. -1.
        -14    1    3    3    0    0 -0.14133793345E+02 -0.84493857872E+02 -0.49400136374E+03  0.50137443444E+03  0.00000000000E+00 0.  1.
          5    1    4    4  501    0 -0.36086280585E+02  0.10740266814E+03 -0.89484903027E+03  0.90200322181E+03  0.41800000000E+01 0.  1.
         -5    1    4    4    0  501 -0.45227900317E+02 -0.29362216900E+02 -0.34076173294E+03  0.34502714934E+03  0.41800000000E+01 0.  1.
</event>
<event>
11    1  0.8864208E-009  0.1478115E+03  0.7561462E-02  0.1099136E+00
         22   -1    0    0    0    0  0.00000000000E+00  0.00000000000E+00  0.53502950258E+03  0.53502950258E+03  0.00000000000E+00 0. -1.
         22   -1    0    0    0    0 -0.00000000000E+00 -0.00000000000E+00 -0.26573652006E+03  0.26573652006E+03  0.00000000000E+00 0.  1.
         24    2    1    2    0    0 -0.34774902965E+02 -0.46722722794E+02 -0.17370732925E+03  0.19959381056E+03  0.79190569362E+02 0.  0.
         25    2    1    2    0    0  0.99506487080E+02  0.81803968286E+02  0.41242639329E+02  0.18423918940E+03  0.12509873465E+03 0.  0.
        -24    2    1    2    0    0 -0.64731584115E+02 -0.35081245492E+02  0.40175767244E+03  0.41693302269E+03  0.83684205675E+02 0.  0.
        -11    1    3    3    0    0  0.14347960579E+02 -0.38733856224E+02 -0.11734903611E+03  0.12440647840E+03  0.00000000000E+00 0.  1.
         12    1    3    3    0    0 -0.49122863544E+02 -0.79888665698E+01 -0.56358293140E+02  0.75187332161E+02  0.00000000000E+00 0. -1.
         11    1    5    5    0    0 -0.44038452977E+02 -0.84267391017E+01  0.36208466591E+03  0.36485024402E+03  0.00000000000E+00 0. -1.
        -12    1    5    5    0    0 -0.20693131138E+02 -0.26654506391E+02  0.39673006525E+02  0.52082778669E+02  0.00000000000E+00 0.  1.
          5    1    4    4  501    0  0.10951923623E+03  0.78573488455E+02  0.70998515040E+02  0.15240248597E+03  0.41800000000E+01 0.  1.
         -5    1    4    4    0  501 -0.10012749151E+02  0.32304798310E+01 -0.29755875711E+02  0.31836703423E+02  0.41800000000E+01 0.  1.
</event>
<event>
11    1  0.1290621E-008  0.1736802E+03  0.7561462E-02  0.1074873E+00
         22   -1    0    0    0    0  0.00000000000E+00  0.00000000000E+00  0.73145613782E+03  0.73145613782E+03  0.00000000000E+00 0. -1.
         22   -1    0    0    0    0 -0.00000000000E+00 -0.00000000000E+00 -0.16436934927E+04  0.16436934927E+04  0.00000000000E+00 0. -1.
         24    2    1    2    0    0  0.27720714071E+02  0.32542869461E+02 -0.94721871446E+03  0.95119694507E+03  0.75662797576E+02 0.  0.
         25    2    1    2    0    0  0.89075684115E+02 -0.14499755362E+01 -0.67852029677E+03  0.69568180944E+03  0.12508719730E+03 0.  0.
        -24    2    1    2    0    0 -0.11679639819E+03 -0.31092893925E+02  0.71350165634E+03  0.72827087602E+03  0.81766060028E+02 0.  0.
        -13    1    3    3    0    0  0.25088489024E+02  0.28861916827E+02 -0.18244388843E+03  0.18640873088E+03  0.00000000000E+00 0.  1.
         14    1    3    3    0    0  0.26322250474E+01  0.36809526342E+01 -0.76477482604E+03  0.76478821419E+03  0.00000000000E+00 0. -1.
         13    1    5    5    0    0 -0.10130034223E+03 -0.39596736678E+02  0.40769016233E+03  0.42194896534E+03  0.00000000000E+00 0. -1.
        -14    1    5    5    0    0 -0.15496055957E+02  0.85038427530E+01  0.30581149401E+03  0.30632191067E+03  0.00000000000E+00 0.  1.
          5    1    4    4  501    0  0.97789893499E+02 -0.25026375523E+02 -0.30507060318E+03  0.32136385619E+03  0.41800000000E+01 0.  1.
         -5    1    4    4    0  501 -0.87142093846E+01  0.23576399987E+02 -0.37344969359E+03  0.37431795325E+03  0.41800000000E+01 0.  1.
</event>
<event>
11    1  0.8864208E-009  0.1909903E+03  0.7561462E-02  0.1061084E+00
         22   -1    0    0    0    0  0.00000000000E+00  0.00000000000E+00  0.56500948486E+03  0.56500948486E+03  0.00000000000E+00 0.  1.
         22   -1    0    0    0    0 -0.00000000000E+00 -0.00000000000E+00 -0.42719638477E+03  0.42719638477E+03  0.00000000000E+00 0. -1.
         24    2    1    2    0    0 -0.79601080569E+01 -0.84356578839E+02 -0.29884274433E+03  0.31856085797E+03  0.70672757702E+02 0.  0.
         25    2    1    2    0    0 -0.11357846783E+03  0.15320695177E+03  0.21632930088E+02  0.22910366541E+03  0.12509223564E+03 0.  0.
        -24    2    1    2    0    0  0.12153857589E+03 -0.68850372927E+02  0.41502291433E+03  0.44454134624E+03  0.76557101691E+02 0.  0.
        -11    1    3    3    0    0  0.52427854625E+01 -0.66638472018E+02 -0.11210905941E+03  0.13052438069E+03  0.00000000000E+00 0.  1.
         12    1    3    3    0    0 -0.13202893519E+02 -0.17718106821E+02 -0.18673368492E+03  0.18803647728E+03  0.00000000000E+00 0. -1.
         13    1    5    5    0    0  0.23425583174E+02 -0.21423525332E+02  0.27539177463E+02  0.42025369481E+02  0.00000000000E+00 0. -1.
        -14    1    5    5    0    0  0.98112992717E+02 -0.47426847595E+02  0.38748373686E+03  0.40251597676E+03  0.00000000000E+00 0.  1.
          5    1    4    4  501    0 -0.99317182721E+02  0.29810835541E+02  0.11077537518E+02  0.10436844799E+03  0.41800000000E+01 0. -1.
         -5    1    4    4    0  501 -0.14261285114E+02  0.12339611622E+03  0.10555392570E+02  0.12473521742E+03  0.41800000000E+01 0. -1.
</event>
<event>
11    1  0.8864208E-009  0.4517581E+03  0.7561462E-02  0.9508291E-01
         22   -1    0    0    0    0  0.00000000000E+00  0.00000000000E+00  0.32438984293E+03  0.32438984293E+03  0.00000000000E+00 0.  1.
         22   -1    0    0    0    0 -0.00000000000E+00 -0.00000000000E+00 -0.21704305743E+04  0.21704305743E+04  0.00000000000E+00 0.  1.
        -24    2    1    2    0    0  0.16837106466E+03  0.96995862589E+02 -0.11323142994E+04  0.11516934293E+04  0.80654013010E+02 0.  0.
         25    2    1    2    0    0 -0.37765560788E+03  0.28223796765E+03 -0.75719489421E+03  0.90070677656E+03  0.12508621418E+03 0.  0.
         24    2    1    2    0    0  0.20928454322E+03 -0.37923383024E+03  0.43468462188E+02  0.44242021136E+03  0.78916526737E+02 0.  0.
        -11    1    5    5    0    0  0.21018082088E+03 -0.38011743711E+03  0.48664637551E+02  0.43707378142E+03  0.00000000000E+00 0.  1.
         12    1    5    5    0    0 -0.89627765936E+00  0.88360686953E+00 -0.51961753628E+01  0.53464299437E+01  0.00000000000E+00 0. -1.
         11    1    3    3    0    0  0.12564645933E+03  0.28668843807E+02 -0.74802883117E+03  0.75904945005E+03  0.00000000000E+00 0. -1.
        -12    1    3    3    0    0  0.42724605327E+02  0.68327018781E+02 -0.38428546821E+03  0.39264397929E+03  0.00000000000E+00 0.  1.
          5    1    4    4  501    0 -0.33939753767E+03  0.19407766076E+03 -0.58943962693E+03  0.70732833477E+03  0.41800000000E+01 0.  1.
         -5    1    4    4    0  501 -0.38258070211E+02  0.88160306886E+02 -0.16775526728E+03  0.19337844178E+03  0.41800000000E+01 0.  1.
</event>
<event>
11    1  0.8864208E-009  0.1332754E+03  0.7561462E-02  0.1115309E+00
         22   -1    0    0    0    0  0.00000000000E+00  0.00000000000E+00  0.10748442530E+04  0.10748442530E+04  0.00000000000E+00 0. -1.
         22   -1    0    0    0    0 -0.00000000000E+00 -0.00000000000E+00 -0.52001724954E+03  0.52001724954E+03  0.00000000000E+00 0. -1.
        -24    2    1    2    0    0  0.24060149821E+02 -0.38854557288E+02 -0.43267691396E+03  0.44247101180E+03  0.80515321418E+02 0.  0.
         25    2    1    2    0    0 -0.50588493788E+02  0.25924914046E+02 -0.21930912915E+02  0.13913984646E+03  0.12509050747E+03 0.  0.
         24    2    1    2    0    0  0.26528343968E+02  0.12929643242E+02  0.10094348303E+04  0.10132506443E+04  0.82748188611E+02 0.  0.
        -13    1    5    5    0    0  0.23168746285E+02  0.25417378596E+02  0.15722238449E+03  0.16094008861E+03  0.00000000000E+00 0.  1.
         14    1    5    5    0    0  0.33595976824E+01 -0.12487735353E+02  0.85221244585E+03  0.85231055567E+03  0.00000000000E+00 0. -1.
         13    1    3    3    0    0  0.53054703999E+02 -0.25460305510E+02 -0.23651740065E+03  0.24372835203E+03  0.00000000000E+00 0. -1.
        -14    1    3    3    0    0 -0.28994554178E+02 -0.13394251777E+02 -0.19615951331E+03  0.19874265978E+03  0.00000000000E+00 0.  1.
          5    1    4    4  501    0  0.27586386184E+02  0.35877942691E+02 -0.37232412734E+02  0.58753386561E+02  0.41800000000E+01 0. -1.
         -5    1    4    4    0  501 -0.78174879972E+02 -0.99530286451E+01  0.15301499820E+02  0.80386459896E+02  0.41800000000E+01 0. -1.
</event>
<event>
11    1  0.8864208E-009  0.1503322E+03  0.7561462E-02  0.1096540E+00
         22   -1    0    0    0    0  0.00000000000E+00  0.00000000000E+00  0.11341352993E+03  0.11341352993E+03  0.00000000000E+00 0. -1.
         22   -1    0    0    0    0 -0.00000000000E+00 -0.00000000000E+00 -0.39007401518E+04  0.39007401518E+04  0.00000000000E+00 0.  1.
         24    2    1    2    0    0 -0.63130383746E+02  0.56246205979E+02 -0.31758606254E+04  0.31779963520E+04  0.80131270690E+02 0.  0.
         25    2    1    2    0    0  0.54360489301E+02 -0.51939177875E+02 -0.70218136052E+03  0.71718821832E+03  0.12509011330E+03 0.  0.
        -24    2    1    2    0    0  0.87698944444E+01 -0.43070281046E+01  0.90715364055E+02  0.11896911137E+03  0.76347302806E+02 0.  0.
        -11    1    3    3    0    0 -0.29131782173E+02 -0.18344861665E+02 -0.88323820670E+03  0.88390888922E+03  0.00000000000E+00 0.  1.
         12    1    3    3    0    0 -0.33998601573E+02  0.74591067644E+02 -0.22926224187E+04  0.22940874628E+04  0.00000000000E+00 0. -1.
         13    1    5    5    0    0  0.27039932830E+02 -0.40049187038E+01  0.96106192170E+02  0.99917953916E+02  0.00000000000E+00 0. -1.
        -14    1    5    5    0    0 -0.18270038386E+02 -0.30210940081E+00 -0.53908281151E+01  0.19051157458E+02  0.00000000000E+00 0.  1.
          5    1    4    4  501    0  0.66712361926E+02 -0.86260374606E+01 -0.16683469982E+03  0.17993398017E+03  0.41800000000E+01 0.  1.
         -5    1    4    4    0  501 -0.12351872625E+02 -0.43313140414E+02 -0.53534666070E+03  0.53725423815E+03  0.41800000000E+01 0.  1.
</event>
<event>
11    1  0.8864208E-009  0.1371654E+03  0.7561462E-02  0.1110766E+00
         22   -1    0    0    0    0  0.00000000000E+00  0.00000000000E+00  0.21577788439E+03  0.21577788439E+03  0.00000000000E+00 0.  1.
         22   -1    0    0    0    0 -0.00000000000E+00 -0.00000000000E+00 -0.95411657480E+03  0.95411657480E+03  0.00000000000E+00 0. -1.
         24    2    1    2    0    0 -0.59250991701E+01 -0.53592032685E+02 -0.81885995217E+03  0.82455052545E+03  0.80279106816E+02 0.  0.
         25    2    1    2    0    0 -0.91890122265E+01  0.10425468531E+03 -0.61375751661E+02  0.17426751999E+03  0.12509479716E+03 0.  0.
        -24    2    1    2    0    0  0.15114111397E+02 -0.50662652629E+02  0.14189701343E+03  0.17107641375E+03  0.79606759690E+02 0.  0.
        -13    1    3    3    0    0 -0.94247632190E+01 -0.50814961471E+02 -0.23255249161E+03  0.23822604355E+03  0.00000000000E+00 0.  1.
         14    1    3    3    0    0  0.34996640489E+01 -0.27770712147E+01 -0.58630746056E+03  0.58632448190E+03  0.00000000000E+00 0. -1.
         11    1    5    5    0    0  0.43299998351E+01 -0.92764914347E+01 -0.93710065421E+01  0.13878687097E+02  0.00000000000E+00 0. -1.
        -12    1    5    5    0    0  0.10784111562E+02 -0.41386161194E+02  0.15126801997E+03  0.15719772666E+03  0.00000000000E+00 0.  1.
          5    1    4    4  501    0 -0.36311340714E+02  0.88621470809E+02 -0.90112486003E+02  0.13156751532E+03  0.41800000000E+01 0.  1.
         -5    1    4    4    0  501  0.27122328487E+02  0.15633214505E+02  0.28736734342E+02  0.42700004672E+02  0.41800000000E+01 0.  1.
</event>
<event>
11    1  0.8864208E-009  0.1308188E+03  0.7561462E-02  0.1118267E+00
         22   -1    0    0    0    0  0.00000000000E+00  0.00000000000E+00  0.29743292398E+03  0.29743292398E+03  0.00000000000E+00 0.  1.
         22   -1    0    0    0    0 -0.00000000000E+00 -0.00000000000E+00 -0.20233298034E+04  0.20233298034E+04  0.00000000000E+00 0. -1.
        -24    2    1    2    0    0  0.36742242417E+02 -0.10138482002E+02 -0.19764299663E+04  0.19784844104E+04  0.81684573993E+02 0.  0.
         25    2    1    2    0    0 -0.62689328461E+02 -0.33531571261E+01  0.10977375276E+03  0.17787810430E+03  0.12509655322E+03 0.  0.
         24    2    1    2    0    0  0.25947086044E+02  0.13491639128E+02  0.14075933406E+03  0.16440021265E+03  0.79743113777E+02 0.  0.
        -11    1    5    5    0    0  0.47191758371E+02  0.85754321587E+01  0.13278405820E+03  0.14118146553E+03  0.00000000000E+00 0.  1.
         12    1    5    5    0    0 -0.21244672327E+02  0.49162069692E+01  0.79752758583E+01  0.23218747130E+02  0.00000000000E+00 0. -1.
         11    1    3    3    0    0  0.55644450973E+02 -0.29574114583E+02 -0.13970132176E+04  0.13984337179E+04  0.00000000000E+00 0. -1.
        -12    1    3    3    0    0 -0.18902208556E+02  0.19435632581E+02 -0.57941674864E+03  0.58005069253E+03  0.00000000000E+00 0.  1.
          5    1    4    4  501    0 -0.45786913359E+02 -0.23874629831E+02 -0.11989812660E+02  0.53175815858E+02  0.41800000000E+01 0.  1.
         -5    1    4    4    0  501 -0.16902415102E+02  0.20521472705E+02  0.12176356542E+03  0.12470228844E+03  0.41800000000E+01 0.  1.
</event>
<event>
11    1  0.8864208E-009  0.1410132E+03  0.7561462E-02  0.1106432E+00
         22   -1    0    0    0    0  0.00000000000E+00  0.00000000000E+00  0.28476296372E+03  0.28476296372E+03  0.00000000000E+00 0.  1.
         22   -1    0    0    0    0 -0.00000000000E+00 -0.00000000000E+00 -0.56452962172E+03  0.56452962172E+03  0.00000000000E+00 0.  1.
        -24    2    1    2    0    0 -0.69648473223E+00  0.66386366370E+01 -0.41380375182E+03  0.41959620887E+03  0.69158346490E+02 0.  0.
         25    2    1    2    0    0  0.37321195976E+02  0.47634425631E+02 -0.10181162490E+03  0.17226128632E+03  0.12508570513E+03 0.  0.
         24    2    1    2    0    0 -0.36624711244E+02 -0.54273062268E+02  0.23584871872E+03  0.25743509025E+03  0.79757587770E+02 0.  0.
        -11    1    5    5    0    0 -0.17023764099E+02 -0.73428325731E+02  0.16240651015E+03  0.17904581006E+03  0.00000000000E+00 0.  1.
         12    1    5    5    0    0 -0.19600947144E+02  0.19155263463E+02  0.73442208574E+02  0.78389280182E+02  0.00000000000E+00 0. -1.
         13    1    3    3    0    0  0.27186629037E+02  0.23855258909E+02 -0.19085102361E+03  0.19424803574E+03  0.00000000000E+00 0. -1.
        -14    1    3    3    0    0 -0.27883113769E+02 -0.17216622272E+02 -0.22295272821E+03  0.22534817313E+03  0.00000000000E+00 0.  1.
          5    1    4    4  501    0  0.59390295587E+02  0.45034766077E+02 -0.12128654834E+03  0.14241922824E+03  0.41800000000E+01 0. -1.
         -5    1    4    4    0  501 -0.22069099611E+02  0.25996595537E+01  0.19474923441E+02  0.29842058081E+02  0.41800000000E+01 0. -1.
</event>
<event>
11    1  0.8864208E-009  0.1383902E+03  0.7561462E-02  0.1109369E+00
         22   -1    0    0    0    0  0.00000000000E+00  0.00000000000E+00  0.10279644208E+04  0.10279644208E+04  0.00000000000E+00 0.  1.
         22   -1    0    0    0    0 -0.00000000000E+00 -0.00000000000E+00 -0.24231442694E+03  0.24231442694E+03  0.00000000000E+00 0.  1.
        -24    2    1    2    0    0  0.74962284200E+01 -0.87089591746E+01 -0.17504470313E+03  0.19319314594E+03  0.80937655842E+02 0.  0.
         25    2    1    2    0    0 -0.32809118088E+02  0.61654857113E+02  0.36813512355E+02  0.14792402307E+03  0.12509405371E+03 0.  0.
         24    2    1    2    0    0  0.25312889668E+02 -0.52945897939E+02  0.92388118465E+03  0.92916167876E+03  0.79630216830E+02 0.  0.
        -11    1    5    5    0    0  0.16853350867E+02 -0.66761222974E+02  0.87416966908E+03  0.87687724721E+03  0.00000000000E+00 0.  1.
         12    1    5    5    0    0  0.84595388006E+01  0.13815325036E+02  0.49711515573E+02  0.52284431556E+02  0.00000000000E+00 0. -1.
         11    1    3    3    0    0  0.32924852903E+02 -0.17461410653E+02 -0.36866156840E+02  0.52421945031E+02  0.00000000000E+00 0. -1.
        -12    1    3    3    0    0 -0.25428624483E+02  0.87524514788E+01 -0.13817854629E+03  0.14077120090E+03  0.00000000000E+00 0.  1.
          5    1    4    4  501    0 -0.28206342591E+02  0.19103620658E+02 -0.44345399051E+02  0.56076134866E+02  0.41800000000E+01 0. -1.
         -5    1    4    4    0  501 -0.46027754971E+01  0.42551236455E+02  0.81158911405E+02  0.91847888199E+02  0.41800000000E+01 0. -1.
</event>
<event>
11    1  0.8864208E-009  0.1395765E+03  0.7561462E-02  0.1108032E+00
         22   -1    0    0    0    0  0.00000000000E+00  0.00000000000E+00  0.13408525207E+04  0.13408525207E+04  0.00000000000E+00 0.  1.
         22   -1    0    0    0    0 -0.00000000000E+00 -0.00000000000E+00 -0.14835015028E+03  0.14835015028E+03  0.00000000000E+00 0.  1.
        -24    2    1    2    0    0 -0.79324099726E+01 -0.16503202879E+02 -0.10409575076E+03  0.13923596722E+03  0.90639121844E+02 0.  0.
         25    2    1    2    0    0  0.68918028644E+02  0.20244129505E+02  0.18979320484E+03  0.23838848897E+03  0.12509233238E+03 0.  0.
         24    2    1    2    0    0 -0.60985618671E+02 -0.37409266261E+01  0.11068049163E+04  0.11115782148E+04  0.82799544096E+02 0.  0.
        -13    1    5    5    0    0 -0.65754071831E+02  0.19158331580E+02  0.99491732600E+03  0.99727184117E+03  0.00000000000E+00 0.  1.
         14    1    5    5    0    0  0.47684531596E+01 -0.22899258206E+02  0.11188759033E+03  0.11430637359E+03  0.00000000000E+00 0. -1.
         13    1    3    3    0    0  0.22655818055E+02 -0.13307153176E+02  0.42441692660E+01  0.26615397613E+02  0.00000000000E+00 0. -1.
        -14    1    3    3    0    0 -0.30588228027E+02 -0.31960497030E+01 -0.10833992003E+03  0.11262056961E+03  0.00000000000E+00 0.  1.
          5    1    4    4  501    0  0.37301150487E+02 -0.92120180531E+01  0.19108607516E+03  0.19495537341E+03  0.41800000000E+01 0.  1.
         -5    1    4    4    0  501  0.31616878157E+02  0.29456147558E+02 -0.12928703179E+01  0.43433115557E+02  0.41800000000E+01 0.  1.
</event>
<event>
11    1  0.8864208E-009  0.1424367E+03  0.7561462E-02  0.1104868E+00
         22   -1    0    0    0    0  0.00000000000E+00  0.00000000000E+00  0.30267887434E+03  0.30267887434E+03  0.00000000000E+00 0. -1.
         22   -1    0    0    0    0 -0.00000000000E+00 -0.00000000000E+00 -0.13657998983E+04  0.13657998983E+04  0.00000000000E+00 0.  1.
         24    2    1    2    0    0  0.75777371294E+01  0.61846407066E+02 -0.12578499103E+04  0.12619708553E+04  0.80632763109E+02 0.  0.
         25    2    1    2    0    0  0.40174222300E+02 -0.10436709109E+03 -0.19315145867E+02  0.16889847681E+03  0.12508861967E+03 0.  0.
        -24    2    1    2    0    0 -0.47751959430E+02  0.42520684019E+02  0.21404403227E+03  0.23760944051E+03  0.80963820741E+02 0.  0.
        -13    1    3    3    0    0  0.85368968384E+01  0.38161866330E+02 -0.11786805916E+04  0.11793291074E+04  0.00000000000E+00 0.  1.
         14    1    3    3    0    0 -0.95915970900E+00  0.23684540737E+02 -0.79169318780E+02  0.82641747884E+02  0.00000000000E+00 0. -1.
         11    1    5    5    0    0  0.15763104781E+02  0.14930142134E+02  0.11329478928E+03  0.11535637778E+03  0.00000000000E+00 0. -1.
        -12    1    5    5    0    0 -0.63515064211E+02  0.27590541885E+02  0.10074924299E+03  0.12225306273E+03  0.00000000000E+00 0.  1.
          5    1    4    4  501    0  0.73800837200E+02 -0.96883959060E+02 -0.40289766574E+02  0.12835031276E+03  0.41800000000E+01 0. -1.
         -5    1    4    4    0  501 -0.33626614899E+02 -0.74831320253E+01  0.20974620707E+02  0.40548164056E+02  0.41800000000E+01 0. -1.
</event>
<event>
11    1  0.8864208E-009  0.1445609E+03  0.7561462E-02  0.1102570E+00
         22   -1    0    0    0    0  0.00000000000E+00  0.00000000000E+00  0.21145079446E+03  0.21145079446E+03  0.00000000000E+00 0. -1.
         22   -1    0    0    0    0 -0.00000000000E+00 -0.00000000000E+00 -0.31130783057E+04  0.31130783057E+04  0.00000000000E+00 0.  1.
        -24    2    1    2    0    0  0.17701959736E+02 -0.75504697474E+02 -0.29194230291E+04  0.29215264352E+04  0.79193244536E+02 0.  0.
         25    2    1    2    0    0 -0.10490074257E+01 -0.21679731934E+01 -0.15286341659E+03  0.19754561788E+03  0.12510494190E+03 0.  0.
         24    2    1    2    0    0 -0.16652952310E+02  0.77672670668E+02  0.17065893438E+03  0.20545704715E+03  0.82327162888E+02 0.  0.
        -11    1    5    5    0    0  0.70216543627E+01  0.15313360506E+02 -0.49896656675E+01  0.17569843581E+02  0.00000000000E+00 0.  1.
         12    1    5    5    0    0 -0.23674606673E+02  0.62359310162E+02  0.17564860005E+03  0.18788720357E+03  0.00000000000E+00 0. -1.
         13    1    3    3    0    0 -0.15781985324E+02 -0.25283923308E+02 -0.31569062891E+03  0.31709449856E+03  0.00000000000E+00 0. -1.
        -14    1    3    3    0    0  0.33483945061E+02 -0.50220774166E+02 -0.26037324002E+04  0.26044319366E+04  0.00000000000E+00 0.  1.
          5    1    4    4  501    0 -0.49731403290E+02  0.33169329629E+02 -0.10359011254E+03  0.11967372610E+03  0.41800000000E+01 0. -1.
         -5    1    4    4    0  501  0.48682395864E+02 -0.35337302823E+02 -0.49273304044E+02  0.77871891779E+02  0.41800000000E+01 0. -1.
</event>
<event>
11    1  0.8864208E-009  0.1482746E+03  0.7561462E-02  0.1098655E+00
         22   -1    0    0    0    0  0.00000000000E+00  0.00000000000E+00  0.86048124087E+03  0.86048124087E+03  0.00000000000E+00 0. -1.
         22   -1    0    0    0    0 -0.00000000000E+00 -0.00000000000E+00 -0.13762190113E+03  0.13762190113E+03  0.00000000000E+00 0.  1.
        -24    2    1    2    0    0 -0.76499666840E+02 -0.18010138046E+02 -0.80942436541E+02  0.13836147530E+03  0.80097788450E+02 0.  0.
         25    2    1    2    0    0  0.84081406070E+02  0.26472160495E+02  0.20789177482E+03  0.25813951009E+03  0.12508620429E+03 0.  0.
         24    2    1    2    0    0 -0.75817392298E+01 -0.84620224498E+01  0.59591000146E+03  0.60160215660E+03  0.81776135867E+02 0.  0.
        -13    1    5    5    0    0  0.25027484252E+02  0.20153360669E+02  0.14037096120E+03  0.14400187381E+03  0.00000000000E+00 0.  1.
         14    1    5    5    0    0 -0.32609223482E+02 -0.28615383119E+02  0.45553904026E+03  0.45760028279E+03  0.00000000000E+00 0. -1.
         13    1    3    3    0    0 -0.70371259183E+02  0.15196096946E+01 -0.18684911650E+02  0.72825471204E+02  0.00000000000E+00 0. -1.
        -14    1    3    3    0    0 -0.61284076570E+01 -0.19529747740E+02 -0.62257524891E+02  0.65536004095E+02  0.00000000000E+00 0.  1.
          5    1    4    4  501    0  0.79147795114E+02  0.60339085511E+02  0.86439329253E+02  0.13188786431E+03  0.41800000000E+01 0.  1.
         -5    1    4    4    0  501  0.49336109561E+01 -0.33866925016E+02  0.12145244557E+03  0.12625164578E+03  0.41800000000E+01 0.  1.
</event>
<event>
11    1  0.8864208E-009  0.1343671E+03  0.7561462E-02  0.1114017E+00
         22   -1    0    0    0    0  0.00000000000E+00  0.00000000000E+00  0.83291073456E+03  0.83291073456E+03  0.00000000000E+00 0.  1.
         22   -1    0    0    0    0 -0.00000000000E+00 -0.00000000000E+00 -0.10558724083E+03  0.10558724083E+03  0.00000000000E+00 0.  1.
        -24    2    1    2    0    0 -0.29670490808E+02 -0.11019397341E+02 -0.52512978018E+02  0.10223200569E+03  0.81804675812E+02 0.  0.
         25    2    1    2    0    0  0.12276130722E+02 -0.37519574780E+02  0.14981678229E+03  0.19912025111E+03  0.12508151050E+03 0.  0.
         24    2    1    2    0    0  0.17394360086E+02  0.48538972121E+02  0.63001968945E+03  0.63714571859E+03  0.79820185644E+02 0.  0.
        -11    1    5    5    0    0  0.48821249904E+02  0.20825598737E+02  0.34206869977E+03  0.34616212295E+03  0.00000000000E+00 0.  1.
         12    1    5    5    0    0 -0.31426889818E+02  0.27713373384E+02  0.28795098969E+03  0.29098359564E+03  0.00000000000E+00 0. -1.
         13    1    3    3    0    0 -0.47878601180E+01 -0.27506878500E+02  0.12578293600E+02  0.30622956082E+02  0.00000000000E+00 0. -1.
        -14    1    3    3    0    0 -0.24882630690E+02  0.16487481159E+02 -0.65091271618E+02  0.71609049609E+02  0.00000000000E+00 0.  1.
          5    1    4    4  501    0  0.66765636598E+02 -0.40701582103E+01  0.73350516392E+02  0.99357873735E+02  0.41800000000E+01 0.  1.
         -5    1    4    4    0  501 -0.54489505876E+02 -0.33449416569E+02  0.76466265899E+02  0.99762377377E+02  0.41800000000E+01 0.  1.
</event>
<event>
11    1  0.8864208E-009  0.3957457E+03  0.7561462E-02  0.9662394E-01
         22   -1    0    0    0    0  0.00000000000E+00  0.00000000000E+00  0.57968071406E+03  0.57968071406E+03  0.00000000000E+00 0.  1.
         22   -1    0    0    0    0 -0.00000000000E+00 -0.00000000000E+00 -0.36043478608E+03  0.36043478608E+03  0.00000000000E+00 0.  1.
        -24    2    1    2    0    0 -0.89762598571E+01 -0.83485848072E+02 -0.22498137105E+02  0.11911309782E+03  0.81432817891E+02 0.  0.
         25    2    1    2    0    0  0.32473819496E+03 -0.15281209326E+03  0.88678164090E+02  0.39027884916E+03  0.12508929691E+03 0.  0.
         24    2    1    2    0    0 -0.31576193510E+03  0.23629794133E+03  0.15306590100E+03  0.43072355316E+03  0.80940054752E+02 0.  0.
        -13    1    5    5    0    0 -0.14426053798E+03  0.15563490183E+03  0.66674472411E+02  0.22243833023E+03  0.00000000000E+00 0.  1.
         14    1    5    5    0    0 -0.17150139712E+03  0.80663039497E+02  0.86391428588E+02  0.20828522293E+03  0.00000000000E+00 0. -1.
         11    1    3    3    0    0 -0.17260240198E+02 -0.16566405784E+01  0.20053356322E+02  0.26510327223E+02  0.00000000000E+00 0. -1.
        -12    1    3    3    0    0  0.82839803414E+01 -0.81829207494E+02 -0.42551493427E+02  0.92602770597E+02  0.00000000000E+00 0.  1.
          5    1    4    4  501    0  0.68958523411E+02 -0.48051120929E+01  0.62999705299E+02  0.93620522970E+02  0.41800000000E+01 0. -1.
         -5    1    4    4    0  501  0.25577967155E+03 -0.14800698116E+03  0.25678458791E+02  0.29665832619E+03  0.41800000000E+01 0. -1.
</event>
<event>
11    1  0.8864208E-009  0.2024717E+03  0.7561462E-02  0.1052789E+00
         22   -1    0    0    0    0  0.00000000000E+00  0.00000000000E+00  0.11070481953E+04  0.11070481953E+04  0.00000000000E+00 0.  1.
         22   -1    0    0    0    0 -0.00000000000E+00 -0.00000000000E+00 -0.53922414570E+03  0.53922414570E+03  0.00000000000E+00 0.  1.
         24    2    1    2    0    0  0.14452445698E+03  0.64928517934E+02 -0.49498636381E+03  0.52593465592E+03  0.80577483419E+02 0.  0.
         25    2    1    2    0    0 -0.14615935087E+03 -0.13892937864E+03  0.61015651849E+03  0.65467758304E+03  0.12509129703E+03 0.  0.
        -24    2    1    2    0    0  0.16348938871E+01  0.74000860704E+02  0.45265389490E+03  0.46566010202E+03  0.80405110396E+02 0.  0.
        -13    1    3    3    0    0  0.14830013922E+03  0.70003863501E+02 -0.49258894149E+03  0.51916985417E+03  0.00000000000E+00 0.  1.
         14    1    3    3    0    0 -0.37756822396E+01 -0.50753455674E+01 -0.23974223223E+01  0.67648017557E+01  0.00000000000E+00 0. -1.
         13    1    5    5    0    0 -0.11376316370E+02  0.58005271703E+01  0.68675076316E+01  0.14499287936E+02  0.00000000000E+00 0. -1.
        -14    1    5    5    0    0  0.13011210257E+02  0.68200333534E+02  0.44578638727E+03  0.45116081408E+03  0.00000000000E+00 0.  1.
          5    1    4    4  501    0 -0.94246730981E+02 -0.15105411472E+03  0.40055203968E+03  0.43835967055E+03  0.41800000000E+01 0.  1.
         -5    1    4    4    0  501 -0.51912619887E+02  0.12124736081E+02  0.20960447881E+03  0.21631791249E+03  0.41800000000E+01 0.  1.
</event>
<event>
11    1  0.8864208E-009  0.1423189E+03  0.7561462E-02  0.1104996E+00
         22   -1    0    0    0    0  0.00000000000E+00  0.00000000000E+00  0.26898438767E+03  0.26898438767E+03  0.00000000000E+00 0.  1.
         22   -1    0    0    0    0 -0.00000000000E+00 -0.00000000000E+00 -0.90023202357E+03  0.90023202357E+03  0.00000000000E+00 0.  1.
         24    2    1    2    0    0  0.55625549594E+02  0.40787059095E+02 -0.73544782514E+03  0.74332464039E+03  0.83007418646E+02 0.  0.
         25    2    1    2    0    0 -0.36764847297E+02 -0.49334731953E+02 -0.12185706635E+03  0.18515233302E+03  0.12508665808E+03 0.  0.
        -24    2    1    2    0    0 -0.18860702297E+02  0.85476728582E+01  0.22605725560E+03  0.24073943783E+03  0.80154883283E+02 0.  0.
        -11    1    3    3    0    0 -0.36596296616E+01  0.41856331243E+02 -0.18599451338E+03  0.19068115891E+03  0.00000000000E+00 0.  1.
         12    1    3    3    0    0  0.59285179255E+02 -0.10692721483E+01 -0.54945331176E+03  0.55264348148E+03  0.00000000000E+00 0. -1.
         13    1    5    5    0    0  0.20972089433E+02  0.56918631914E+01  0.16170105762E+02  0.27086863276E+02  0.00000000000E+00 0. -1.
        -14    1    5    5    0    0 -0.39832791730E+02  0.28558096668E+01  0.20988714984E+03  0.21365257455E+03  0.00000000000E+00 0.  1.
          5    1    4    4  501    0 -0.50596982225E+02 -0.53183347865E+02 -0.14209415274E+03  0.15998982388E+03  0.41800000000E+01 0. -1.
         -5    1    4    4    0  501  0.13832134928E+02  0.38486159116E+01  0.20237086389E+02  0.25162509148E+02  0.41800000000E+01 0. -1.
</event>
<event>
11    1  0.8864208E-009  0.1375922E+03  0.7561462E-02  0.1110277E+00
         22   -1    0    0    0    0  0.00000000000E+00  0.00000000000E+00  0.17583745858E+04  0.17583745858E+04  0.00000000000E+00 0. -1.
         22   -1    0    0    0    0 -0.00000000000E+00 -0.00000000000E+00 -0.19895489499E+03  0.19895489499E+03  0.00000000000E+00 0. -1.
        -24    2    1    2    0    0 -0.68309389343E+01 -0.90785239705E-01 -0.17662626675E+03  0.19460047378E+03  0.81399240304E+02 0.  0.
         25    2    1    2    0    0  0.55182358760E+01 -0.57232321122E+02  0.39912241641E+03  0.42219855985E+03  0.12508769386E+03 0.  0.
         24    2    1    2    0    0  0.13127030584E+01  0.57323106362E+02  0.13369235411E+04  0.13405304471E+04  0.79810169477E+02 0.  0.
        -11    1    5    5    0    0  0.30408510880E+02 -0.12171310434E+01  0.29728374400E+03  0.29883738620E+03  0.00000000000E+00 0.  1.
         12    1    5    5    0    0 -0.29095807822E+02  0.58540237406E+02  0.10396397971E+04  0.10416930609E+04  0.00000000000E+00 0. -1.
         11    1    3    3    0    0  0.30383710198E+02  0.16167450566E+02 -0.12052523535E+03  0.12534308381E+03  0.00000000000E+00 0. -1.
        -12    1    3    3    0    0 -0.37214649133E+02 -0.16258235805E+02 -0.56101031398E+02  0.69257389970E+02  0.00000000000E+00 0.  1.
          5    1    4    4  501    0 -0.49218463773E+02 -0.81156431669E+01  0.26003583022E+03  0.26481017019E+03  0.41800000000E+01 0. -1.
         -5    1    4    4    0  501  0.54736699649E+02 -0.49116677956E+02  0.13908658619E+03  0.15738838966E+03  0.41800000000E+01 0. -1.
</event>
<event>
11    1  0.8864208E-009  0.1807916E+03  0.7561462E-02  0.1069004E+00
         22   -1    0    0    0    0  0.00000000000E+00  0.00000000000E+00  0.15114238116E+04  0.15114238116E+04  0.00000000000E+00 0.  1.
         22   -1    0    0    0    0 -0.00000000000E+00 -0.00000000000E+00 -0.59343820197E+02  0.59343820197E+02  0.00000000000E+00 0.  1.
         24    2    1    2    0    0 -0.28901011181E+02 -0.85868868624E+02  0.85528989740E+02  0.14693218378E+03  0.77878928458E+02 0.  0.
         25    2    1    2    0    0  0.14757589891E+03  0.10479420069E+03  0.51808674210E+03  0.56286796042E+03  0.12508396418E+03 0.  0.
        -24    2    1    2    0    0 -0.11867488773E+03 -0.18925332068E+02  0.84846425955E+03  0.86096748758E+03  0.83255737157E+02 0.  0.
        -13    1    3    3    0    0 -0.48284301550E+02 -0.25380863850E+02  0.28382939838E+02  0.61491083092E+02  0.00000000000E+00 0.  1.
         14    1    3    3    0    0  0.19383290369E+02 -0.60488004773E+02  0.57146049902E+02  0.85441100686E+02  0.00000000000E+00 0. -1.
         13    1    5    5    0    0 -0.33094496735E+02 -0.41504093032E+02  0.22067908864E+03  0.22697377737E+03  0.00000000000E+00 0. -1.
        -14    1    5    5    0    0 -0.85580390991E+02  0.22578760965E+02  0.62778517091E+03  0.63399371021E+03  0.00000000000E+00 0.  1.
          5    1    4    4  501    0  0.77499756591E+02 -0.16209455322E+02  0.21150262745E+03  0.22587561297E+03  0.41800000000E+01 0. -1.
         -5    1    4    4    0  501  0.70076142316E+02  0.12100365601E+03  0.30658411465E+03  0.33699234745E+03  0.41800000000E+01 0. -1.
</event>
<event>
11    1  0.8864208E-009  0.1405167E+03  0.7561462E-02  0.1106983E+00
         22   -1    0    0    0    0  0.00000000000E+00  0.00000000000E+00  0.12663747015E+04  0.12663747015E+04  0.00000000000E+00 0. -1.
         22   -1    0    0    0    0 -0.00000000000E+00 -0.00000000000E+00 -0.23806026170E+03  0.23806026170E+03  0.00000000000E+00 0. -1.
        -24    2    1    2    0    0 -0.44193406671E+02 -0.46570989900E+02 -0.21359260300E+03  0.23771481276E+03  0.82247296928E+02 0.  0.
         25    2    1    2    0    0  0.41957179989E+02  0.38195509835E+02  0.45382980755E+03  0.47416088721E+03  0.12509097018E+03 0.  0.
         24    2    1    2    0    0  0.22362266820E+01  0.83754800658E+01  0.78807723522E+03  0.79255926320E+03  0.83721607968E+02 0.  0.
        -11    1    5    5    0    0  0.88693219995E+01 -0.13408191423E+02  0.29139146981E+02  0.33279638772E+02  0.00000000000E+00 0.  1.
         12    1    5    5    0    0 -0.66330953175E+01  0.21783671489E+02  0.75893808824E+03  0.75927962443E+03  0.00000000000E+00 0. -1.
         11    1    3    3    0    0 -0.64599843732E+02 -0.47939066383E+02 -0.14140434326E+03  0.16268522425E+03  0.00000000000E+00 0. -1.
        -12    1    3    3    0    0  0.20406437060E+02  0.13680764829E+01 -0.72188259745E+02  0.75029588508E+02  0.00000000000E+00 0.  1.
          5    1    4    4  501    0 -0.18060523503E+02  0.58809498201E+02  0.32128193390E+03  0.32714567556E+03  0.41800000000E+01 0.  1.
         -5    1    4    4    0  501  0.60017703492E+02 -0.20613988367E+02  0.13254787365E+03  0.14701521165E+03  0.41800000000E+01 0.  1.
</event>
<event>
11    1  0.8864208E-009  0.1326367E+03  0.7561462E-02  0.1116071E+00
         22   -1    0    0    0    0  0.00000000000E+00  0.00000000000E+00  0.68892293088E+03  0.68892293088E+03  0.00000000000E+00 0.  1.
         22   -1    0    0    0    0 -0.00000000000E+00 -0.00000000000E+00 -0.34007513942E+04  0.34007513942E+04  0.00000000000E+00 0. -1.
        -24    2    1    2    0    0  0.22482056594E+00 -0.15924643615E+02 -0.32571078037E+04  0.32581374575E+04  0.80341785685E+02 0.  0.
         25    2    1    2    0    0 -0.43632744641E+02  0.23337909649E+02 -0.10763777400E+03  0.17228426260E+03  0.12508997689E+03 0.  0.
         24    2    1    2    0    0  0.43407924076E+02 -0.74132660347E+01  0.65291711437E+03  0.65925260494E+03  0.79837550645E+02 0.  0.
        -13    1    5    5    0    0 -0.35420207254E+01 -0.17649402432E+01  0.47913820817E+03  0.47915455070E+03  0.00000000000E+00 0.  1.
         14    1    5    5    0    0  0.46949944801E+02 -0.56483257915E+01  0.17377890620E+03  0.18009805424E+03  0.00000000000E+00 0. -1.
         13    1    3    3    0    0 -0.80120011282E+01 -0.28614247052E+02 -0.31287632076E+04  0.31289043093E+04  0.00000000000E+00 0. -1.
        -14    1    3    3    0    0  0.82368216942E+01  0.12689603437E+02 -0.12834459605E+03  0.12923314823E+03  0.00000000000E+00 0.  1.
          5    1    4    4  501    0 -0.25710613425E+02  0.64092545095E+02 -0.17039088676E+02  0.71250915238E+02  0.41800000000E+01 0. -1.
         -5    1    4    4    0  501 -0.17922131217E+02 -0.40754635445E+02 -0.90598685320E+02  0.10103334736E+03  0.41800000000E+01 0. -1.
</event>
<event>
11    1  0.8864208E-009  0.1335708E+03  0.7561462E-02  0.1114958E+00
         22   -1    0    0    0    0  0.00000000000E+00  0.00000000000E+00  0.16564076027E+03  0.16564076027E+03  0.00000000000E+00 0.  1.
         22   -1    0    0    0    0 -0.00000000000E+00 -0.00000000000E+00 -0.30072551440E+04  0.30072551440E+04  0.00000000000E+00 0.  1.
         24    2    1    2    0    0 -0.81756478679E+01  0.35464461722E+02 -0.27850389198E+04  0.27864109176E+04  0.79494951309E+02 0.  0.
         25    2    1    2    0    0  0.53909091537E+02 -0.40231719162E+02 -0.18229790927E+03  0.23109638277E+03  0.12509288160E+03 0.  0.
        -24    2    1    2    0    0 -0.45733443669E+02  0.47672574406E+01  0.12572244534E+03  0.15538860396E+03  0.78900002303E+02 0.  0.
        -13    1    3    3    0    0 -0.75888371034E+01  0.28992778988E+02 -0.27681913293E+04  0.27683535553E+04  0.00000000000E+00 0.  1.
         14    1    3    3    0    0 -0.58681076452E+00  0.64716827340E+01 -0.16847590546E+02  0.18057362251E+02  0.00000000000E+00 0. -1.
         13    1    5    5    0    0 -0.20157552449E+01  0.36089035221E+02  0.37631870462E+02  0.52178917264E+02  0.00000000000E+00 0. -1.
        -14    1    5    5    0    0 -0.43717688424E+02 -0.31321777780E+02  0.88090574882E+02  0.10320968669E+03  0.00000000000E+00 0.  1.
          5    1    4    4  501    0  0.36465058608E+02 -0.52585450482E+02 -0.19756673090E+02  0.67102374274E+02  0.41800000000E+01 0. -1.
         -5    1    4    4    0  501  0.17444032929E+02  0.12353731319E+02 -0.16254123618E+03  0.16399400849E+03  0.41800000000E+01 0. -1.
</event>
<event>
11    1  0.8864208E-009  0.1568858E+03  0.7561462E-02  0.1090043E+00
         22   -1    0    0    0    0  0.00000000000E+00  0.00000000000E+00  0.50286671578E+03  0.50286671578E+03  0.00000000000E+00 0.  1.
         22   -1    0    0    0    0 -0.00000000000E+00 -0.00000000000E+00 -0.19861624407E+03  0.19861624407E+03  0.00000000000E+00 0.  1.
         24    2    1    2    0    0  0.96601967958E+02  0.17148470550E+01 -0.12752731130E+03  0.17880180247E+03  0.79824736316E+02 0.  0.
         25    2    1    2    0    0 -0.81965373672E+02 -0.34840878791E+02  0.10993996341E+03  0.18885629054E+03  0.12509074148E+03 0.  0.
        -24    2    1    2    0    0 -0.14636594285E+02  0.33126031736E+02  0.32183781960E+03  0.33382486684E+03  0.80919068957E+02 0.  0.
        -13    1    3    3    0    0  0.10971218634E+03 -0.16676458789E+01 -0.12225058168E+03  0.16427035519E+03  0.00000000000E+00 0.  1.
         14    1    3    3    0    0 -0.13110218387E+02  0.33824929339E+01 -0.52767296201E+01  0.14531447281E+02  0.00000000000E+00 0. -1.
         11    1    5    5    0    0  0.81957745252E+01  0.32838089587E+02  0.46347787223E+02  0.57390140514E+02  0.00000000000E+00 0. -1.
        -12    1    5    5    0    0 -0.22832368811E+02  0.28794214931E+00  0.27549003238E+03  0.27643472632E+03  0.00000000000E+00 0.  1.
          5    1    4    4  501    0 -0.77990570942E+02 -0.69942439465E+02  0.43531716364E+02  0.11352073257E+03  0.41800000000E+01 0.  1.
         -5    1    4    4    0  501 -0.39748027306E+01  0.35101560674E+02  0.66408247043E+02  0.75335557964E+02  0.41800000000E+01 0.  1.
</event>
<event>
11    1  0.8864208E-009  0.1407321E+03  0.7561462E-02  0.1106744E+00
         22   -1    0    0    0    0  0.00000000000E+00  0.00000000000E+00  0.85595212474E+03  0.85595212474E+03  0.00000000000E+00 0.  1.
         22   -1    0    0    0    0 -0.00000000000E+00 -0.00000000000E+00 -0.17513361141E+04  0.17513361141E+04  0.00000000000E+00 0. -1.
         24    2    1    2    0    0 -0.31262925485E+01 -0.26991594236E+02 -0.12503684291E+04  0.12533618454E+04  0.82197245528E+02 0.  0.
         25    2    1    2    0    0  0.66910779670E+02  0.17487192337E+02 -0.48606192626E+03  0.50664234178E+03  0.12508961583E+03 0.  0.
        -24    2    1    2    0    0 -0.63784487121E+02  0.95044018988E+01  0.84104636603E+03  0.84728405162E+03  0.79827813867E+02 0.  0.
        -13    1    3    3    0    0 -0.22812194871E+01 -0.28876447896E+02 -0.13874393239E+03  0.14173542952E+03  0.00000000000E+00 0.  1.
         14    1    3    3    0    0 -0.84507306142E+00  0.18848536605E+01 -0.11116244967E+04  0.11116264159E+04  0.00000000000E+00 0. -1.
         11    1    5    5    0    0 -0.69926539849E+01  0.20226823497E+02  0.53528398277E+02  0.57648165805E+02  0.00000000000E+00 0. -1.
        -12    1    5    5    0    0 -0.56791833137E+02 -0.10722421598E+02  0.78751796775E+03  0.78963588581E+03  0.00000000000E+00 0.  1.
          5    1    4    4  501    0 -0.22871310075E+02 -0.71251947696E+01 -0.20381027751E+02  0.31728912954E+02  0.41800000000E+01 0.  1.
         -5    1    4    4    0  501  0.89782089745E+02  0.24612387107E+02 -0.46568089851E+03  0.47491342882E+03  0.41800000000E+01 0.  1.
</event>
<event>
11    1  0.8864208E-009  0.2473105E+03  0.7561462E-02  0.1025342E+00
         22   -1    0    0    0    0  0.00000000000E+00  0.00000000000E+00  0.81702044112E+03  0.81702044112E+03  0.00000000000E+00 0. -1.
         22   -1    0    0    0    0 -0.00000000000E+00 -0.00000000000E+00 -0.30898199707E+03  0.30898199707E+03  0.00000000000E+00 0. -1.
         24    2    1    2    0    0  0.34489153852E+02  0.11052124448E+03 -0.19364455666E+03  0.23961214715E+03  0.80692747657E+02 0.  0.
         25    2    1    2    0    0  0.34949492456E+02  0.12324650319E+03  0.49856008923E+02  0.18586344029E+03  0.12509368185E+03 0.  0.
        -24    2    1    2    0    0 -0.69438646308E+02 -0.23376774767E+03  0.65182699178E+03  0.70052685075E+03  0.79939701950E+02 0.  0.
        -11    1    3    3    0    0  0.33318926607E+02  0.10431066002E+02 -0.84972867908E+02  0.91865914727E+02  0.00000000000E+00 0.  1.
         12    1    3    3    0    0  0.11702272451E+01  0.10009017848E+03 -0.10867168875E+03  0.14774623242E+03  0.00000000000E+00 0. -1.
         13    1    5    5    0    0 -0.55923112841E+02 -0.19858624881E+03  0.61133833834E+03  0.64521194711E+03  0.00000000000E+00 0. -1.
        -14    1    5    5    0    0 -0.13515533467E+02 -0.35181498858E+02  0.40488653441E+02  0.55314903636E+02  0.00000000000E+00 0.  1.
          5    1    4    4  501    0  0.35962023150E+02  0.14053604812E+03  0.13966551768E+02  0.14579500986E+03  0.41800000000E+01 0.  1.
         -5    1    4    4    0  501 -0.10125306940E+01 -0.17289544931E+02  0.35889457155E+02  0.40068430431E+02  0.41800000000E+01 0.  1.
</event>
<event>
11    1  0.8864208E-009  0.1346118E+03  0.7561462E-02  0.1113729E+00
         22   -1    0    0    0    0  0.00000000000E+00  0.00000000000E+00  0.17500494255E+03  0.17500494255E+03  0.00000000000E+00 0.  1.
         22   -1    0    0    0    0 -0.00000000000E+00 -0.00000000000E+00 -0.62847662207E+03  0.62847662207E+03  0.00000000000E+00 0. -1.
        -24    2    1    2    0    0  0.71563058169E+01 -0.45232790077E+02 -0.37718558710E+03  0.38817325206E+03  0.79449911829E+02 0.  0.
         25    2    1    2    0    0  0.22977937099E+02  0.68011084623E+02 -0.20923974160E+03  0.25413051930E+03  0.12509020005E+03 0.  0.
         24    2    1    2    0    0 -0.30134242916E+02 -0.22778294547E+02  0.13295364917E+03  0.16117779326E+03  0.82913719706E+02 0.  0.
        -11    1    5    5    0    0 -0.56580010736E+02 -0.11151626505E+02  0.11030107961E+03  0.12446680100E+03  0.00000000000E+00 0.  1.
         12    1    5    5    0    0  0.26445767819E+02 -0.11626668041E+02  0.22652569561E+02  0.36710992264E+02  0.00000000000E+00 0. -1.
         13    1    3    3    0    0 -0.30597094372E+02 -0.10893238842E+02 -0.23235816464E+03  0.23461705290E+03  0.00000000000E+00 0. -1.
        -14    1    3    3    0    0  0.37753400189E+02 -0.34339551235E+02 -0.14482742245E+03  0.15355619916E+03  0.00000000000E+00 0.  1.
          5    1    4    4  501    0  0.42547062808E+02  0.87935941948E+02 -0.20283866004E+03  0.22517543571E+03  0.41800000000E+01 0.  1.
         -5    1    4    4    0  501 -0.19569125709E+02 -0.19924857325E+02 -0.64010815554E+01  0.28955083586E+02  0.41800000000E+01 0.  1.
</event>
<event>
11    1  0.8864208E-009  0.1383201E+03  0.7561462E-02  0.1109449E+00
         22   -1    0    0    0    0  0.00000000000E+00  0.00000000000E+00  0.36376897101E+03  0.36376897101E+03  0.00000000000E+00 0.  1.
         22   -1    0    0    0    0 -0.00000000000E+00 -0.00000000000E+00 -0.59741739909E+03  0.59741739909E+03  0.00000000000E+00 0. -1.
        -24    2    1    2    0    0 -0.68893740396E+01 -0.27018941009E+02 -0.45440503720E+03  0.46329187698E+03  0.85894928787E+02 0.  0.
         25    2    1    2    0    0  0.34755072000E+02 -0.26419236489E+02 -0.97508102057E+02  0.16446495090E+03  0.12503998969E+03 0.  0.
         24    2    1    2    0    0 -0.27865697960E+02  0.53438177497E+02  0.31826471118E+03  0.33342954223E+03  0.79061351558E+02 0.  0.
        -13    1    5    5    0    0  0.97547302797E+01 -0.90791985254E+01  0.14250369817E+03  0.14312543659E+03  0.00000000000E+00 0.  1.
         14    1    5    5    0    0 -0.37620428240E+02  0.62517376023E+02  0.17576101301E+03  0.19030410563E+03  0.00000000000E+00 0. -1.
         11    1    3    3    0    0  0.15133167602E+01 -0.40901403181E+02 -0.43904211911E+03  0.44094579855E+03  0.00000000000E+00 0. -1.
        -12    1    3    3    0    0 -0.84026907998E+01  0.13882462172E+02 -0.15362918093E+02  0.22346078425E+02  0.00000000000E+00 0.  1.
          5    1    4    4  501    0  0.29985277846E+02 -0.76154299627E+02 -0.54613080012E+02  0.98481750327E+02  0.41800000000E+01 0.  1.
         -5    1    4    4    0  501  0.47697941539E+01  0.49735063138E+02 -0.42895022045E+02  0.65983200573E+02  0.41800000000E+01 0.  1.
</event>
<event>
11    1  0.8864208E-009  0.1532799E+03  0.7561462E-02  0.1093574E+00
         22   -1    0    0    0    0  0.00000000000E+00  0.00000000000E+00  0.67319474751E+03  0.67319474751E+03  0.00000000000E+00 0. -1.
         22   -1    0    0    0    0 -0.00000000000E+00 -0.00000000000E+00 -0.16069764383E+03  0.16069764383E+03  0.00000000000E+00 0.  1.
         24    2    1    2    0    0  0.17719965541E+02 -0.88354369711E+02 -0.11492626468E+03  0.16583778591E+03  0.78572470352E+02 0.  0.
         25    2    1    2    0    0 -0.13264278623E+02  0.66673475246E+02  0.32735563786E+03  0.35697495365E+03  0.12509240786E+03 0.  0.
        -24    2    1    2    0    0 -0.44556869184E+01  0.21680894465E+02  0.30006773050E+03  0.31107965178E+03  0.78993623377E+02 0.  0.
        -11    1    3    3    0    0  0.46260569580E+02 -0.31860865811E+02 -0.57317936756E+02  0.80252731680E+02  0.00000000000E+00 0.  1.
         12    1    3    3    0    0 -0.28540604039E+02 -0.56493503900E+02 -0.57608327921E+02  0.85585054230E+02  0.00000000000E+00 0. -1.
         11    1    5    5    0    0 -0.37334264762E+02  0.47352447994E+01  0.21572068089E+03  0.21897872507E+03  0.00000000000E+00 0. -1.
        -12    1    5    5    0    0  0.32878577843E+02  0.16945649666E+02  0.84347049608E+02  0.92100926711E+02  0.00000000000E+00 0.  1.
          5    1    4    4  501    0 -0.33647312613E+02 -0.21883917953E+02  0.45572459768E+02  0.60871742216E+02  0.41800000000E+01 0. -1.
         -5    1    4    4    0  501  0.20383033990E+02  0.88557393199E+02  0.28178317809E+03  0.29610321143E+03  0.41800000000E+01 0. -1.
</event>
<event>
11    1  0.8864208E-009  0.1361295E+03  0.7561462E-02  0.1111959E+00
         22   -1    0    0    0    0  0.00000000000E+00  0.00000000000E+00  0.46309663879E+03  0.46309663879E+03  0.00000000000E+00 0. -1.
         22   -1    0    0    0    0 -0.00000000000E+00 -0.00000000000E+00 -0.14287152388E+03  0.14287152388E+03  0.00000000000E+00 0.  1.
        -24    2    1    2    0    0 -0.60833073709E+01  0.23352643628E+02 -0.67781698964E+02  0.10965718950E+03  0.82752570368E+02 0.  0.
         25    2    1    2    0    0 -0.34723157963E+02  0.15573245806E+02  0.44029001359E+02  0.13796532555E+03  0.12509058482E+03 0.  0.
         24    2    1    2    0    0  0.40806465334E+02 -0.38925889434E+02  0.34397781251E+03  0.35834564761E+03  0.83129267894E+02 0.  0.
        -13    1    5    5    0    0  0.14803847391E+02 -0.47142533566E+02  0.88034559464E+02  0.10095373212E+03  0.00000000000E+00 0.  1.
         14    1    5    5    0    0  0.26002617943E+02  0.82166441320E+01  0.25594325305E+03  0.25739191549E+03  0.00000000000E+00 0. -1.
         13    1    3    3    0    0 -0.19502785505E+02  0.55022661323E+01  0.14163663730E+02  0.24723327958E+02  0.00000000000E+00 0. -1.
        -14    1    3    3    0    0  0.13419478134E+02  0.17850377496E+02 -0.81945362694E+02  0.84933861547E+02  0.00000000000E+00 0.  1.
          5    1    4    4  501    0 -0.64631929198E+02 -0.31727558632E+02  0.38010635320E+02  0.81524260475E+02  0.41800000000E+01 0. -1.
         -5    1    4    4    0  501  0.29908771234E+02  0.47300804438E+02  0.60183660395E+01  0.56441065077E+02  0.41800000000E+01 0. -1.
</event>
<event>
11    1  0.8864208E-009  0.1411525E+03  0.7561462E-02  0.1106278E+00
         22   -1    0    0    0    0  0.00000000000E+00  0.00000000000E+00  0.86375369384E+03  0.86375369384E+03  0.00000000000E+00 0.  1.
         22   -1    0    0    0    0 -0.00000000000E+00 -0.00000000000E+00 -0.18316284864E+03  0.18316284864E+03  0.00000000000E+00 0.  1.
         24    2    1    2    0    0  0.19079502400E+01  0.63318970670E+02 -0.13989893150E+03  0.17233748691E+03  0.78202084627E+02 0.  0.
         25    2    1    2    0    0  0.28223589087E+02 -0.10308653469E+03  0.27088323625E+03  0.31693541551E+03  0.12508767051E+03 0.  0.
        -24    2    1    2    0    0 -0.30131539327E+02  0.39767564016E+02  0.54960654045E+03  0.55764364006E+03  0.80060671882E+02 0.  0.
        -13    1    3    3    0    0  0.25436876422E+02  0.71304765666E+02 -0.10217323285E+03  0.12716435742E+03  0.00000000000E+00 0.  1.
         14    1    3    3    0    0 -0.23528926182E+02 -0.79857949960E+01 -0.37725698650E+02  0.45173129486E+02  0.00000000000E+00 0. -1.
         13    1    5    5    0    0 -0.83793755282E+01 -0.22333963413E+02  0.80987595141E+02  0.84427545402E+02  0.00000000000E+00 0. -1.
        -14    1    5    5    0    0 -0.21752163799E+02  0.62101527429E+02  0.46861894531E+03  0.47321609466E+03  0.00000000000E+00 0.  1.
          5    1    4    4  501    0 -0.15154426454E+02 -0.50198008404E+02  0.23252555654E+03  0.23840113996E+03  0.41800000000E+01 0. -1.
         -5    1    4    4    0  501  0.43378015542E+02 -0.52888526282E+02  0.38357679708E+02  0.78534275556E+02  0.41800000000E+01 0. -1.
</event>
<event>
11    1  0.8864208E-009  0.2035221E+03  0.7561462E-02  0.1052061E+00
         22   -1    0    0    0    0  0.00000000000E+00  0.00000000000E+00  0.19639137479E+03  0.19639137479E+03  0.00000000000E+00 0.  1.
         22   -1    0    0    0    0 -0.00000000000E+00 -0.00000000000E+00 -0.13008141212E+04  0.13008141212E+04  0.00000000000E+00 0. -1.
         24    2    1    2    0    0 -0.45850781690E+02  0.15150127757E+03 -0.11262050226E+04  0.11400473523E+04  0.79468743449E+02 0.  0.
         25    2    1    2    0    0  0.66458689239E+02 -0.17694889045E+03 -0.62559351646E+02  0.23513581369E+03  0.12509001237E+03 0.  0.
        -24    2    1    2    0    0 -0.20607907548E+02  0.25447612878E+02  0.84341627869E+02  0.12202233001E+03  0.81875954802E+02 0.  0.
        -11    1    3    3    0    0 -0.43801892672E+01 -0.69469530517E+01 -0.14781540590E+03  0.14804337349E+03  0.00000000000E+00 0.  1.
         12    1    3    3    0    0 -0.41470592423E+02  0.15844823062E+03 -0.97838961671E+03  0.99200397878E+03  0.00000000000E+00 0. -1.
         11    1    5    5    0    0  0.26000147020E+02  0.27791070485E+02  0.21379716529E+02  0.43651386262E+02  0.00000000000E+00 0. -1.
        -12    1    5    5    0    0 -0.46608054569E+02 -0.23434576066E+01  0.62961911340E+02  0.78370943747E+02  0.00000000000E+00 0.  1.
          5    1    4    4  501    0  0.99691500212E+02 -0.96006262557E+02 -0.29985249571E+02  0.14167633979E+03  0.41800000000E+01 0. -1.
         -5    1    4    4    0  501 -0.33232810973E+02 -0.80942627891E+02 -0.32574102075E+02  0.93459473897E+02  0.41800000000E+01 0. -1.
</event>
