<event>
11    1  0.6455215E-009  0.1431641E+03  0.7561462E-02  0.1104076E+00
         22   -1    0    0    0    0  0.00000000000E+00  0.00000000000E+00  0.47765696027E+03  0.47765696027E+03  0.00000000000E+00 0.  1.
         22   -1    0    0    0    0 -0.00000000000E+00 -0.00000000000E+00 -0.65948752723E+03  0.65948752723E+03  0.00000000000E+00 0. -1.
         24    2    1    2    0    0  0.42865902424E+02  0.55077022927E+02 -0.61761968830E+03  0.62669680478E+03  0.80148872037E+02 0.  0.
         25    2    1    2    0    0 -0.83664412004E+02 -0.93777297689E+01  0.33396505424E+03  0.36642103876E+03  0.12507615497E+03 0.  0.
        -24    2    1    2    0    0  0.40798509579E+02 -0.45699293158E+02  0.10182406710E+03  0.14402664396E+03  0.81379295583E+02 0.  0.
        -13    1    3    3    0    0  0.45455832025E+02  0.41795699863E+01 -0.16436238521E+03  0.17058339644E+03  0.00000000000E+00 0.  1.
         14    1    3    3    0    0 -0.25899296006E+01  0.50897452941E+02 -0.45325730310E+03  0.45611340833E+03  0.00000000000E+00 0. -1.
         13    1    5    5    0    0 -0.22771559752E+02 -0.82457230404E+01  0.99244801377E+01  0.26173100466E+02  0.00000000000E+00 0. -1.
        -14    1    5    5    0    0  0.63570069332E+02 -0.37453570118E+02  0.91899586962E+02  0.11785354349E+03  0.00000000000E+00 0.  1.
          5    1    4    4  501    0 -0.10887308820E+03  0.18222160756E+02  0.21605860179E+03  0.24266064428E+03  0.41800000000E+01 0. -1.
         -5    1    4    4    0  501  0.25208676192E+02 -0.27599890525E+02  0.11790645245E+03  0.12376039448E+03  0.41800000000E+01 0. -1.
</event>
<event>
11    1  0.6455215E-009  0.1640225E+03  0.7561462E-02  0.1083354E+00
         22   -1    0    0    0    0  0.00000000000E+00  0.00000000000E+00  0.18240456691E+03  0.18240456691E+03  0.00000000000E+00 0.  1.
         22   -1    0    0    0    0 -0.00000000000E+00 -0.00000000000E+00 -0.53751843290E+03  0.53751843290E+03  0.00000000000E+00 0. -1.
        -24    2    1    2    0    0  0.85681491968E+02  0.76718453583E+02 -0.40958023338E+03  0.43370915127E+03  0.84383772950E+02 0.  0.
         25    2    1    2    0    0 -0.22577678008E+02 -0.69982022918E+02 -0.37804042140E+02  0.14994727494E+03  0.12509118508E+03 0.  0.
         24    2    1    2    0    0 -0.63103813960E+02 -0.67364306640E+01  0.92270409528E+02  0.13626657359E+03  0.77635557375E+02 0.  0.
        -11    1    5    5    0    0 -0.19201896705E+02  0.34221888983E+02  0.46007594817E+02  0.60469407996E+02  0.00000000000E+00 0.  1.
         12    1    5    5    0    0 -0.43901917255E+02 -0.40958319647E+02  0.46262814711E+02  0.75797165593E+02  0.00000000000E+00 0. -1.
         11    1    3    3    0    0  0.72463812047E+02  0.84901570330E+02 -0.40037287854E+03  0.41564133886E+03  0.00000000000E+00 0. -1.
        -12    1    3    3    0    0  0.13217679920E+02 -0.81831167474E+01 -0.92073548393E+01  0.18067812411E+02  0.00000000000E+00 0.  1.
          5    1    4    4  501    0  0.18053229562E+02 -0.13065259866E+02 -0.69462952708E+02  0.73069790693E+02  0.41800000000E+01 0.  1.
         -5    1    4    4    0  501 -0.40630907570E+02 -0.56916763053E+02  0.31658910568E+02  0.76877484251E+02  0.41800000000E+01 0.  1.
</event>
<event>
11    1  0.6455215E-009  0.1381624E+03  0.7561462E-02  0.1109628E+00
         22   -1    0    0    0    0  0.00000000000E+00  0.00000000000E+00  0.29956621735E+03  0.29956621735E+03  0.00000000000E+00 0. -1.
         22   -1    0    0    0    0 -0.00000000000E+00 -0.00000000000E+00 -0.20852479641E+03  0.20852479641E+03  0.00000000000E+00 0. -1.
        -24    2    1    2    0    0 -0.17732797578E+02  0.34360584634E+02 -0.12217262854E+03  0.14925971708E+03  0.76532412030E+02 0.  0.
         25    2    1    2    0    0  0.51883541595E+02 -0.74540134187E+02  0.35951362699E+02  0.15870837096E+03  0.12509081917E+03 0.  0.
         24    2    1    2    0    0 -0.34150744016E+02  0.40179549553E+02  0.17726268679E+03  0.20012292571E+03  0.76462119693E+02 0.  0.
        -11    1    5    5    0    0 -0.23932861656E+02  0.31794896669E+02  0.24379996086E+02  0.46669921045E+02  0.00000000000E+00 0.  1.
         12    1    5    5    0    0 -0.10217882360E+02  0.83846528843E+01  0.15288269071E+03  0.15345300467E+03  0.00000000000E+00 0. -1.
         13    1    3    3    0    0 -0.16167063562E+02 -0.22462380460E+02 -0.52426088274E+02  0.59282604631E+02  0.00000000000E+00 0. -1.
        -14    1    3    3    0    0 -0.15657340161E+01  0.56822965093E+02 -0.69746540270E+02  0.89977112449E+02  0.00000000000E+00 0.  1.
          5    1    4    4  501    0  0.84494177724E+02 -0.84103742447E+02  0.20079629053E+02  0.12096846476E+03  0.41800000000E+01 0.  1.
         -5    1    4    4    0  501 -0.32610636129E+02  0.95636082598E+01  0.15871733645E+02  0.37739906208E+02  0.41800000000E+01 0.  1.
</event>
<event>
11    1  0.1418365E-008  0.1665072E+03  0.7561462E-02  0.1081112E+00
         22   -1    0    0    0    0  0.00000000000E+00  0.00000000000E+00  0.85820600386E+03  0.85820600386E+03  0.00000000000E+00 0.  1.
         22   -1    0    0    0    0 -0.00000000000E+00 -0.00000000000E+00 -0.43229828953E+03  0.43229828953E+03  0.00000000000E+00 0.  1.
         24    2    1    2    0    0 -0.12431553516E+02 -0.53052559652E+02 -0.33749366956E+03  0.35108256234E+03  0.79924157637E+02 0.  0.
         25    2    1    2    0    0  0.33510565180E+02 -0.58371835702E+02 -0.20114110830E+02  0.14346865952E+03  0.12509376335E+03 0.  0.
        -24    2    1    2    0    0 -0.21079011664E+02  0.11142439535E+03  0.78351549473E+03  0.79595307153E+03  0.82371360231E+02 0.  0.
        -11    1    3    3    0    0 -0.34288349577E+01 -0.20195000650E+02 -0.29890798686E+03  0.29960904454E+03  0.00000000000E+00 0.  1.
         12    1    3    3    0    0 -0.90027185584E+01 -0.32857559002E+02 -0.38585682705E+02  0.51473517801E+02  0.00000000000E+00 0. -1.
         13    1    5    5    0    0 -0.85895027896E+01  0.95153852507E+02  0.37690938434E+03  0.38882993610E+03  0.00000000000E+00 0. -1.
        -14    1    5    5    0    0 -0.12489508875E+02  0.16270542848E+02  0.40660611038E+03  0.40712313543E+03  0.00000000000E+00 0.  1.
          5    1    4    4  501    0 -0.13869921484E+02 -0.37841560841E+02 -0.63882149802E+02  0.75648925387E+02  0.41800000000E+01 0.  1.
         -5    1    4    4    0  501  0.47380486664E+02 -0.20530274861E+02  0.43768038972E+02  0.67819734133E+02  0.41800000000E+01 0.  1.
</event>
<event>
11    1  0.6455215E-009  0.1367697E+03  0.7561462E-02  0.1111220E+00
         22   -1    0    0    0    0  0.00000000000E+00  0.00000000000E+00  0.34727686618E+03  0.34727686618E+03  0.00000000000E+00 0.  1.
         22   -1    0    0    0    0 -0.00000000000E+00 -0.00000000000E+00 -0.16582249811E+04  0.16582249811E+04  0.00000000000E+00 0. -1.
         24    2    1    2    0    0 -0.37495047307E+02  0.93102559994E+01 -0.12779757120E+04  0.12810385189E+04  0.79656806573E+02 0.  0.
         25    2    1    2    0    0 -0.18454824873E+02 -0.61574095836E+01 -0.36066735348E+03  0.38223831389E+03  0.12508674784E+03 0.  0.
        -24    2    1    2    0    0  0.55949872180E+02 -0.31528464158E+01  0.32769495055E+03  0.34222501456E+03  0.81201301339E+02 0.  0.
        -11    1    3    3    0    0 -0.56193433047E+02 -0.32423303834E+01 -0.58615531190E+03  0.58885164879E+03  0.00000000000E+00 0.  1.
         12    1    3    3    0    0  0.18698385740E+02  0.12552586383E+02 -0.69182040014E+03  0.69218687007E+03  0.00000000000E+00 0. -1.
         11    1    5    5    0    0  0.51085093632E+02  0.18514455429E+02  0.10316605009E+03  0.11660062497E+03  0.00000000000E+00 0. -1.
        -12    1    5    5    0    0  0.48647785484E+01 -0.21667301845E+02  0.22452890045E+03  0.22562438959E+03  0.00000000000E+00 0.  1.
          5    1    4    4  501    0 -0.67622650512E+02  0.11747973086E+02 -0.25697467180E+03  0.26601558616E+03  0.41800000000E+01 0. -1.
         -5    1    4    4    0  501  0.49167825639E+02 -0.17905382670E+02 -0.10369268168E+03  0.11622272773E+03  0.41800000000E+01 0. -1.
</event>
<event>
11    1  0.6455215E-009  0.1361798E+03  0.7561462E-02  0.1111901E+00
         22   -1    0    0    0    0  0.00000000000E+00  0.00000000000E+00  0.80714330376E+02  0.80714330376E+02  0.00000000000E+00 0. -1.
         22   -1    0    0    0    0 -0.00000000000E+00 -0.00000000000E+00 -0.12981780816E+04  0.12981780816E+04  0.00000000000E+00 0. -1.
         24    2    1    2    0    0 -0.52208156468E+02 -0.34440396382E+01 -0.10813192485E+04  0.10856492117E+04  0.81518959113E+02 0.  0.
         25    2    1    2    0    0  0.77079366126E+02 -0.24671403902E+02 -0.14429168222E+03  0.20740606375E+03  0.12508908373E+03 0.  0.
        -24    2    1    2    0    0 -0.24871209658E+02  0.28115443540E+02  0.81471794839E+01  0.85837136538E+02  0.76763156789E+02 0.  0.
        -13    1    3    3    0    0  0.17689166203E+02 -0.18244899630E+02 -0.28899378480E+03  0.29010892888E+03  0.00000000000E+00 0.  1.
         14    1    3    3    0    0 -0.69897322671E+02  0.14800859992E+02 -0.79232546370E+03  0.79554028283E+03  0.00000000000E+00 0. -1.
         13    1    5    5    0    0 -0.16392870735E+02  0.52084349303E+02 -0.87643382209E+01  0.55302072997E+02  0.00000000000E+00 0. -1.
        -14    1    5    5    0    0 -0.84783389234E+01 -0.23968905763E+02  0.16911517705E+02  0.30535063541E+02  0.00000000000E+00 0.  1.
          5    1    4    4  501    0  0.53379702603E+01  0.21615202224E+02 -0.11475148199E+03  0.11696617422E+03  0.41800000000E+01 0.  1.
         -5    1    4    4    0  501  0.71741395865E+02 -0.46286606126E+02 -0.29540200236E+02  0.90439889525E+02  0.41800000000E+01 0.  1.
</event>
<event>
11    1  0.6455215E-009  0.1948369E+03  0.7561462E-02  0.1058236E+00
         22   -1    0    0    0    0  0.00000000000E+00  0.00000000000E+00  0.71719842886E+03  0.71719842886E+03  0.00000000000E+00 0.  1.
         22   -1    0    0    0    0 -0.00000000000E+00 -0.00000000000E+00 -0.56651650601E+03  0.56651650601E+03  0.00000000000E+00 0.  1.
        -24    2    1    2    0    0 -0.89408025320E+02  0.11711300065E+02 -0.45756002730E+03  0.47326020463E+03  0.80517657441E+02 0.  0.
         25    2    1    2    0    0 -0.56280573465E+02  0.53624160570E+02 -0.28110746840E+02  0.14993626449E+03  0.12509043039E+03 0.  0.
         24    2    1    2    0    0  0.14568859879E+03 -0.65335460635E+02  0.63635269699E+03  0.66051846575E+03  0.76459128915E+02 0.  0.
        -13    1    5    5    0    0  0.68419950340E+02 -0.40209728125E+02  0.45398760536E+03  0.46087184516E+03  0.00000000000E+00 0.  1.
         14    1    5    5    0    0  0.77268648445E+02 -0.25125732510E+02  0.18236509162E+03  0.19964662058E+03  0.00000000000E+00 0. -1.
         13    1    3    3    0    0  0.14722678808E+02 -0.18449048026E+01 -0.80243690590E+02  0.81603987798E+02  0.00000000000E+00 0. -1.
        -14    1    3    3    0    0 -0.10413070413E+03  0.13556204868E+02 -0.37731633671E+03  0.39165621683E+03  0.00000000000E+00 0.  1.
          5    1    4    4  501    0 -0.52671131571E+02  0.12379782691E+02  0.41853450051E+02  0.68532406945E+02  0.41800000000E+01 0. -1.
         -5    1    4    4    0  501 -0.36094418946E+01  0.41244377879E+02 -0.69964196892E+02  0.81403857550E+02  0.41800000000E+01 0. -1.
</event>
<event>
11    1  0.6455215E-009  0.2208054E+03  0.7561462E-02  0.1040714E+00
         22   -1    0    0    0    0  0.00000000000E+00  0.00000000000E+00  0.87016472894E+03  0.87016472894E+03  0.00000000000E+00 0. -1.
         22   -1    0    0    0    0 -0.00000000000E+00 -0.00000000000E+00 -0.26572534463E+04  0.26572534463E+04  0.00000000000E+00 0. -1.
        -24    2    1    2    0    0 -0.16640428542E+03  0.69000263410E+02 -0.25043910625E+04  0.25121192080E+04  0.79478920466E+02 0.  0.
         25    2    1    2    0    0  0.20867977125E+03 -0.13367568141E+03 -0.12162521234E+02  0.27787276612E+03  0.12509561344E+03 0.  0.
         24    2    1    2    0    0 -0.42275485830E+02  0.64675417996E+02  0.72946486632E+03  0.73742620114E+03  0.75553190166E+02 0.  0.
        -11    1    5    5    0    0  0.48523637992E+00  0.41256695608E+02  0.14012423740E+03  0.14607242140E+03  0.00000000000E+00 0.  1.
         12    1    5    5    0    0 -0.42760722210E+02  0.23418722388E+02  0.58934062892E+03  0.59135377974E+03  0.00000000000E+00 0. -1.
         13    1    3    3    0    0 -0.12162725875E+03  0.83429251205E+02 -0.17165372329E+04  0.17228620670E+04  0.00000000000E+00 0. -1.
        -14    1    3    3    0    0 -0.44777026671E+02 -0.14428987795E+02 -0.78785382959E+03  0.78925714099E+03  0.00000000000E+00 0.  1.
          5    1    4    4  501    0  0.48480935390E+02 -0.35314341347E+02  0.51695322153E+02  0.79293016929E+02  0.41800000000E+01 0.  1.
         -5    1    4    4    0  501  0.16019883586E+03 -0.98361340058E+02 -0.63857843387E+02  0.19857974920E+03  0.41800000000E+01 0.  1.
</event>
<event>
11    1  0.6455215E-009  0.1378461E+03  0.7561462E-02  0.1109988E+00
         22   -1    0    0    0    0  0.00000000000E+00  0.00000000000E+00  0.11289623357E+04  0.11289623357E+04  0.00000000000E+00 0.  1.
         22   -1    0    0    0    0 -0.00000000000E+00 -0.00000000000E+00 -0.36357305219E+03  0.36357305219E+03  0.00000000000E+00 0. -1.
         24    2    1    2    0    0 -0.47352322724E+02  0.11787653884E+02 -0.26207698879E+03  0.27854930797E+03  0.80772381825E+02 0.  0.
         25    2    1    2    0    0  0.37902607244E+02  0.45881423091E+02 -0.37766706727E+02  0.14358016942E+03  0.12508888157E+03 0.  0.
        -24    2    1    2    0    0  0.94497154794E+01 -0.57669076975E+02  0.10652329790E+04  0.10704059105E+04  0.87364146426E+02 0.  0.
        -11    1    3    3    0    0 -0.64538386765E+02  0.83048538580E+01 -0.24698728148E+03  0.25541513498E+03  0.00000000000E+00 0.  1.
         12    1    3    3    0    0  0.17186064042E+02  0.34828000262E+01 -0.15089707314E+02  0.23134172993E+02  0.00000000000E+00 0. -1.
         13    1    5    5    0    0  0.27322000945E+02 -0.29292510769E+02  0.17436510283E+03  0.17890704851E+03  0.00000000000E+00 0. -1.
        -14    1    5    5    0    0 -0.17872285466E+02 -0.28376566206E+02  0.89086787617E+03  0.89149886197E+03  0.00000000000E+00 0.  1.
          5    1    4    4  501    0  0.42389468963E+02 -0.23352676034E+02 -0.53555729989E+02  0.72304240343E+02  0.41800000000E+01 0.  1.
         -5    1    4    4    0  501 -0.44868617183E+01  0.69234099125E+02  0.15789023262E+02  0.71275929073E+02  0.41800000000E+01 0.  1.
</event>
<event>
11    1  0.6455215E-009  0.2016698E+03  0.7561462E-02  0.1053349E+00
         22   -1    0    0    0    0  0.00000000000E+00  0.00000000000E+00  0.85876630706E+03  0.85876630706E+03  0.00000000000E+00 0. -1.
         22   -1    0    0    0    0 -0.00000000000E+00 -0.00000000000E+00 -0.58845617371E+03  0.58845617371E+03  0.00000000000E+00 0. -1.
        -24    2    1    2    0    0 -0.34948495208E+02 -0.11547782458E+02 -0.52446577544E+03  0.52880662772E+03  0.56721700510E+02 0.  0.
         25    2    1    2    0    0  0.17313078100E+03 -0.53797750861E+02  0.19473185222E+03  0.29400048969E+03  0.12508928149E+03 0.  0.
         24    2    1    2    0    0 -0.13818228579E+03  0.65345533319E+02  0.60004405657E+03  0.62441536337E+03  0.80481633611E+02 0.  0.
        -11    1    5    5    0    0 -0.44559363747E+01 -0.95449969228E+01  0.91048952157E+01  0.13923413810E+02  0.00000000000E+00 0.  1.
         12    1    5    5    0    0 -0.13372634941E+03  0.74890530242E+02  0.59093916136E+03  0.61049194956E+03  0.00000000000E+00 0. -1.
         13    1    3    3    0    0 -0.67947288141E+01 -0.27926574036E+02 -0.36006904508E+03  0.36121431188E+03  0.00000000000E+00 0. -1.
        -14    1    3    3    0    0 -0.28153766394E+02  0.16378791577E+02 -0.16439673036E+03  0.16759231584E+03  0.00000000000E+00 0.  1.
          5    1    4    4  501    0  0.18090257436E+03 -0.75969001275E+02  0.17688262178E+03  0.26420061479E+03  0.41800000000E+01 0. -1.
         -5    1    4    4    0  501 -0.77717933657E+01  0.22171250415E+02  0.17849230433E+02  0.29799874901E+02  0.41800000000E+01 0. -1.
</event>
<event>
11    1  0.6455215E-009  0.1441868E+03  0.7561462E-02  0.1102971E+00
         22   -1    0    0    0    0  0.00000000000E+00  0.00000000000E+00  0.11172668015E+04  0.11172668015E+04  0.00000000000E+00 0. -1.
         22   -1    0    0    0    0 -0.00000000000E+00 -0.00000000000E+00 -0.32804589095E+03  0.32804589095E+03  0.00000000000E+00 0.  1.
         24    2    1    2    0    0  0.15710617446E+02  0.16335310600E+02 -0.27686805444E+03  0.28946209711E+03  0.81355517460E+02 0.  0.
         25    2    1    2    0    0 -0.86181263302E+02 -0.20956574777E+02  0.98073922736E+02  0.18202171345E+03  0.12508805569E+03 0.  0.
        -24    2    1    2    0    0  0.70470645856E+02  0.46212641770E+01  0.96801504224E+03  0.97382888188E+03  0.79385774373E+02 0.  0.
        -13    1    3    3    0    0  0.44328194673E+02  0.18460582479E+02 -0.22612094702E+03  0.23116328565E+03  0.00000000000E+00 0.  1.
         14    1    3    3    0    0 -0.28617577227E+02 -0.21252718787E+01 -0.50747107419E+02  0.58298811465E+02  0.00000000000E+00 0. -1.
         11    1    5    5    0    0  0.84014039710E+02  0.60048280071E+01  0.92207818898E+03  0.92591716877E+03  0.00000000000E+00 0. -1.
        -12    1    5    5    0    0 -0.13543393853E+02 -0.13835638301E+01  0.45936853259E+02  0.47911713111E+02  0.00000000000E+00 0.  1.
          5    1    4    4  501    0 -0.26690752916E+02 -0.62009119945E+02  0.10587873328E+02  0.68462418225E+02  0.41800000000E+01 0. -1.
         -5    1    4    4    0  501 -0.59490510386E+02  0.41052545168E+02  0.87486049408E+02  0.11355929522E+03  0.41800000000E+01 0. -1.
</event>
<event>
11    1  0.6455215E-009  0.1333216E+03  0.7561462E-02  0.1115254E+00
         22   -1    0    0    0    0  0.00000000000E+00  0.00000000000E+00  0.77266070485E+03  0.77266070485E+03  0.00000000000E+00 0.  1.
         22   -1    0    0    0    0 -0.00000000000E+00 -0.00000000000E+00 -0.18811678336E+03  0.18811678336E+03  0.00000000000E+00 0.  1.
         24    2    1    2    0    0  0.23308028300E+02 -0.16956689976E+01 -0.13567891906E+03  0.16018845311E+03  0.81886701961E+02 0.  0.
         25    2    1    2    0    0  0.23307350537E+02  0.12541648924E+02  0.73246292220E+02  0.14735216760E+03  0.12508843442E+03 0.  0.
        -24    2    1    2    0    0 -0.46615378837E+02 -0.10845979926E+02  0.64697654833E+03  0.65323686748E+03  0.76479553679E+02 0.  0.
        -13    1    3    3    0    0 -0.12760656778E+02 -0.15707033934E+02 -0.11410570844E+03  0.11588640116E+03  0.00000000000E+00 0.  1.
         14    1    3    3    0    0  0.36068685078E+02  0.14011364936E+02 -0.21573210619E+02  0.44302051951E+02  0.00000000000E+00 0. -1.
         13    1    5    5    0    0 -0.40348151873E+02 -0.58068094603E+01  0.13095923939E+03  0.13715689839E+03  0.00000000000E+00 0. -1.
        -14    1    5    5    0    0 -0.62672269645E+01 -0.50391704660E+01  0.51601730894E+03  0.51607996909E+03  0.00000000000E+00 0.  1.
          5    1    4    4  501    0  0.30662450304E+02 -0.46111809549E+02  0.32347726232E+01  0.55627520100E+02  0.41800000000E+01 0. -1.
         -5    1    4    4    0  501 -0.73550997664E+01  0.58653458473E+02  0.70011519597E+02  0.91724647504E+02  0.41800000000E+01 0. -1.
</event>
<event>
11    1  0.6455215E-009  0.1375682E+03  0.7561462E-02  0.1110305E+00
         22   -1    0    0    0    0  0.00000000000E+00  0.00000000000E+00  0.28824054780E+04  0.28824054780E+04  0.00000000000E+00 0.  1.
         22   -1    0    0    0    0 -0.00000000000E+00 -0.00000000000E+00 -0.30002884951E+03  0.30002884951E+03  0.00000000000E+00 0. -1.
        -24    2    1    2    0    0 -0.20096964120E+02  0.12923093406E+02 -0.25842871803E+03  0.27162226790E+03  0.80139626947E+02 0.  0.
         25    2    1    2    0    0  0.55779113848E+02  0.31759514253E+02  0.11088108933E+03  0.17905913133E+03  0.12509028841E+03 0.  0.
         24    2    1    2    0    0 -0.35682149728E+02 -0.44682607659E+02  0.27299242572E+04  0.27317529282E+04  0.81962552016E+02 0.  0.
        -13    1    5    5    0    0 -0.25528414196E+02 -0.68917416732E+02  0.19389017043E+04  0.19402940832E+04  0.00000000000E+00 0.  1.
         14    1    5    5    0    0 -0.10153735532E+02  0.24234809073E+02  0.79102255282E+03  0.79145884504E+03  0.00000000000E+00 0. -1.
         13    1    3    3    0    0 -0.42151640065E+02 -0.92241344519E+01 -0.20693001116E+03  0.21138087646E+03  0.00000000000E+00 0. -1.
        -14    1    3    3    0    0  0.22054675946E+02  0.22147227858E+02 -0.51498706869E+02  0.60241391435E+02  0.00000000000E+00 0.  1.
          5    1    4    4  501    0  0.82619344034E+02 -0.28369402162E+01  0.32001803571E+02  0.88744532622E+02  0.41800000000E+01 0. -1.
         -5    1    4    4    0  501 -0.26840230187E+02  0.34596454469E+02  0.78879285761E+02  0.90314598712E+02  0.41800000000E+01 0. -1.
</event>
<event>
11    1  0.6455215E-009  0.2276799E+03  0.7561462E-02  0.1036510E+00
         22   -1    0    0    0    0  0.00000000000E+00  0.00000000000E+00  0.30250365620E+03  0.30250365620E+03  0.00000000000E+00 0. -1.
         22   -1    0    0    0    0 -0.00000000000E+00 -0.00000000000E+00 -0.74997160580E+03  0.74997160580E+03  0.00000000000E+00 0. -1.
        -24    2    1    2    0    0 -0.16063742961E+02  0.87961245035E+01 -0.34638614566E+03  0.35607343781E+03  0.80433298872E+02 0.  0.
         25    2    1    2    0    0  0.10868310696E+03  0.15734253004E+03 -0.32131007271E+03  0.39428114084E+03  0.12509502667E+03 0.  0.
         24    2    1    2    0    0 -0.92619363998E+02 -0.16613865455E+03  0.22022826876E+03  0.30212068336E+03  0.81215871775E+02 0.  0.
        -11    1    5    5    0    0  0.51526644746E+01 -0.28159922072E+02  0.61031709505E+01  0.29270802141E+02  0.00000000000E+00 0.  1.
         12    1    5    5    0    0 -0.97772028472E+02 -0.13797873247E+03  0.21412509781E+03  0.27284988122E+03  0.00000000000E+00 0. -1.
         13    1    3    3    0    0 -0.18647296850E+02  0.17177172483E+02 -0.34637659600E+03  0.34730321506E+03  0.00000000000E+00 0. -1.
        -14    1    3    3    0    0  0.25835538889E+01 -0.83810479790E+01 -0.95496575232E-02  0.87702227520E+01  0.00000000000E+00 0.  1.
          5    1    4    4  501    0  0.44393812360E+02  0.13620095592E+03 -0.13850165505E+03  0.19930301509E+03  0.41800000000E+01 0.  1.
         -5    1    4    4    0  501  0.64289294599E+02  0.21141574122E+02 -0.18280841765E+03  0.19497812575E+03  0.41800000000E+01 0.  1.
</event>
<event>
11    1  0.6455215E-009  0.1799270E+03  0.7561462E-02  0.1069702E+00
         22   -1    0    0    0    0  0.00000000000E+00  0.00000000000E+00  0.12437370835E+04  0.12437370835E+04  0.00000000000E+00 0.  1.
         22   -1    0    0    0    0 -0.00000000000E+00 -0.00000000000E+00 -0.66718847881E+03  0.66718847881E+03  0.00000000000E+00 0.  1.
         24    2    1    2    0    0 -0.27152691828E+02 -0.65434658353E+02 -0.62857761958E+03  0.63681225050E+03  0.73491872741E+02 0.  0.
         25    2    1    2    0    0  0.10652833223E+03  0.15172242466E+03  0.41407558420E+03  0.47061071040E+03  0.12509145293E+03 0.  0.
        -24    2    1    2    0    0 -0.79375640404E+02 -0.86287766311E+02  0.79105064003E+03  0.80350260137E+03  0.78161655667E+02 0.  0.
        -11    1    3    3    0    0 -0.34496332894E+02 -0.77931540300E+02 -0.57609405141E+03  0.58236387081E+03  0.00000000000E+00 0.  1.
         12    1    3    3    0    0  0.73436410667E+01  0.12496881947E+02 -0.52483568171E+02  0.54448379686E+02  0.00000000000E+00 0. -1.
         13    1    5    5    0    0 -0.24563921238E+02 -0.53677897336E+02  0.58077581568E+03  0.58376814830E+03  0.00000000000E+00 0. -1.
        -14    1    5    5    0    0 -0.54811719166E+02 -0.32609868974E+02  0.21027482435E+03  0.21973445307E+03  0.00000000000E+00 0.  1.
          5    1    4    4  501    0 -0.13031722371E+02  0.37980191317E+01 -0.76824679921E+00  0.14223689409E+02  0.41800000000E+01 0. -1.
         -5    1    4    4    0  501  0.11956005460E+03  0.14792440553E+03  0.41484383100E+03  0.45638702099E+03  0.41800000000E+01 0. -1.
</event>
<event>
11    1  0.6455215E-009  0.1569639E+03  0.7561462E-02  0.1089968E+00
         22   -1    0    0    0    0  0.00000000000E+00  0.00000000000E+00  0.32849535576E+03  0.32849535576E+03  0.00000000000E+00 0. -1.
         22   -1    0    0    0    0 -0.00000000000E+00 -0.00000000000E+00 -0.15003923749E+04  0.15003923749E+04  0.00000000000E+00 0.  1.
        -24    2    1    2    0    0 -0.15220997426E+02 -0.27687367895E+02 -0.13664925364E+04  0.13692063432E+04  0.80161642519E+02 0.  0.
         25    2    1    2    0    0  0.83097099068E+02 -0.39755899382E+02 -0.67643736719E+02  0.16943540486E+03  0.12508805656E+03 0.  0.
         24    2    1    2    0    0 -0.67876101642E+02  0.67443267277E+02  0.26223925398E+03  0.29024598266E+03  0.79482983347E+02 0.  0.
        -13    1    5    5    0    0 -0.55594624109E+02  0.32364516330E+02  0.72603985656E+02  0.97002901401E+02  0.00000000000E+00 0.  1.
         14    1    5    5    0    0 -0.12281477533E+02  0.35078750947E+02  0.18963526833E+03  0.19324308125E+03  0.00000000000E+00 0. -1.
         13    1    3    3    0    0 -0.42711618737E+01  0.58804823095E+01 -0.10589711076E+02  0.12843865330E+02  0.00000000000E+00 0. -1.
        -14    1    3    3    0    0 -0.10949835552E+02 -0.33567850204E+02 -0.13559028254E+04  0.13563624778E+04  0.00000000000E+00 0.  1.
          5    1    4    4  501    0 -0.31417419563E+01  0.26453117067E+02 -0.53244256998E+02  0.59683006361E+02  0.41800000000E+01 0.  1.
         -5    1    4    4    0  501  0.86238841024E+02 -0.66209016449E+02 -0.14399479722E+02  0.10975239850E+03  0.41800000000E+01 0.  1.
</event>
<event>
11    1  0.6455215E-009  0.1625309E+03  0.7561462E-02  0.1084721E+00
         22   -1    0    0    0    0  0.00000000000E+00  0.00000000000E+00  0.69688180178E+03  0.69688180178E+03  0.00000000000E+00 0.  1.
         22   -1    0    0    0    0 -0.00000000000E+00 -0.00000000000E+00 -0.56862848913E+03  0.56862848913E+03  0.00000000000E+00 0.  1.
        -24    2    1    2    0    0 -0.50295460398E+02 -0.11451287000E+03 -0.51277490462E+03  0.53385178865E+03  0.80104923091E+02 0.  0.
         25    2    1    2    0    0  0.67077044065E+02 -0.11477378128E+02  0.10997027429E+03  0.17991837711E+03  0.12508437610E+03 0.  0.
         24    2    1    2    0    0 -0.16781583667E+02  0.12599024812E+03  0.53105794298E+03  0.55174012515E+03  0.78990269833E+02 0.  0.
        -13    1    5    5    0    0  0.25066966127E+02  0.43014538523E+02  0.27198001458E+03  0.27649906265E+03  0.00000000000E+00 0.  1.
         14    1    5    5    0    0 -0.41848549794E+02  0.82975709602E+02  0.25907792840E+03  0.27524106251E+03  0.00000000000E+00 0. -1.
         13    1    3    3    0    0 -0.61189527003E+02 -0.39978428576E+02 -0.26263920447E+03  0.27262022062E+03  0.00000000000E+00 0. -1.
        -14    1    3    3    0    0  0.10894066604E+02 -0.74534441420E+02 -0.25013570016E+03  0.26123156803E+03  0.00000000000E+00 0.  1.
          5    1    4    4  501    0 -0.31530426760E+02  0.20762389430E+02  0.22432498627E+02  0.44112742163E+02  0.41800000000E+01 0. -1.
         -5    1    4    4    0  501  0.98607470825E+02 -0.32239767558E+02  0.87537775665E+02  0.13580563495E+03  0.41800000000E+01 0. -1.
</event>
<event>
11    1  0.6455215E-009  0.4072925E+03  0.7561462E-02  0.9628483E-01
         22   -1    0    0    0    0  0.00000000000E+00  0.00000000000E+00  0.52751562432E+03  0.52751562432E+03  0.00000000000E+00 0. -1.
         22   -1    0    0    0    0 -0.00000000000E+00 -0.00000000000E+00 -0.17673030376E+04  0.17673030376E+04  0.00000000000E+00 0. -1.
         24    2    1    2    0    0  0.18971412528E+03 -0.34534729956E+03 -0.13424427614E+04  0.14009289694E+04  0.72063882593E+02 0.  0.
         25    2    1    2    0    0 -0.18456611848E+03  0.31680314404E+03 -0.29517161077E+03  0.48703429751E+03  0.12508894027E+03 0.  0.
        -24    2    1    2    0    0 -0.51480068013E+01  0.28544155512E+02  0.39782695887E+03  0.40685539497E+03  0.80148315178E+02 0.  0.
        -13    1    3    3    0    0  0.33926749621E+01 -0.55907101222E+02 -0.20826473808E+03  0.21566482174E+03  0.00000000000E+00 0.  1.
         14    1    3    3    0    0  0.18632145032E+03 -0.28944019833E+03 -0.11341780233E+04  0.11852641477E+04  0.00000000000E+00 0. -1.
         11    1    5    5    0    0  0.16587970180E+02  0.36904013918E+02  0.36115119553E+03  0.36341058464E+03  0.00000000000E+00 0. -1.
        -12    1    5    5    0    0 -0.21735976981E+02 -0.83598584063E+01  0.36675763341E+02  0.43444810329E+02  0.00000000000E+00 0.  1.
          5    1    4    4  501    0 -0.19683461387E+02  0.12568769591E+03 -0.14645756751E+03  0.19404156007E+03  0.41800000000E+01 0.  1.
         -5    1    4    4    0  501 -0.16488265710E+03  0.19111544813E+03 -0.14871404326E+03  0.29299273743E+03  0.41800000000E+01 0.  1.
</event>
<event>
11    1  0.6455215E-009  0.2187111E+03  0.7561462E-02  0.1042028E+00
         22   -1    0    0    0    0  0.00000000000E+00  0.00000000000E+00  0.19995709394E+03  0.19995709394E+03  0.00000000000E+00 0. -1.
         22   -1    0    0    0    0 -0.00000000000E+00 -0.00000000000E+00 -0.16704173159E+04  0.16704173159E+04  0.00000000000E+00 0.  1.
        -24    2    1    2    0    0 -0.14338236999E+03  0.11060701675E+03 -0.84320745227E+03  0.86616500118E+03  0.80315537318E+02 0.  0.
         25    2    1    2    0    0  0.68432486711E+02 -0.18151421214E+03 -0.77364308835E+03  0.80734222768E+03  0.12508968780E+03 0.  0.
         24    2    1    2    0    0  0.74949883281E+02  0.70907195389E+02  0.14639031863E+03  0.19686718100E+03  0.81738890389E+02 0.  0.
        -11    1    5    5    0    0  0.38502537835E+02  0.93251890570E+01  0.70670625228E+01  0.40241122541E+02  0.00000000000E+00 0.  1.
         12    1    5    5    0    0  0.36447345446E+02  0.61582006332E+02  0.13932325611E+03  0.15662605846E+03  0.00000000000E+00 0. -1.
         11    1    3    3    0    0 -0.74389139069E+02  0.25316164637E+02 -0.22567496952E+03  0.23896410624E+03  0.00000000000E+00 0. -1.
        -12    1    3    3    0    0 -0.68993230922E+02  0.85290852110E+02 -0.61753248275E+03  0.62720089495E+03  0.00000000000E+00 0.  1.
          5    1    4    4  501    0 -0.13014780873E+02  0.13245654068E+02 -0.82412585813E+02  0.84582140983E+02  0.41800000000E+01 0. -1.
         -5    1    4    4    0  501  0.81447267584E+02 -0.19475986620E+03 -0.69123050254E+03  0.72276008670E+03  0.41800000000E+01 0. -1.
</event>
<event>
11    1  0.6455215E-009  0.1785442E+03  0.7561462E-02  0.1070827E+00
         22   -1    0    0    0    0  0.00000000000E+00  0.00000000000E+00  0.57835183365E+03  0.57835183365E+03  0.00000000000E+00 0.  1.
         22   -1    0    0    0    0 -0.00000000000E+00 -0.00000000000E+00 -0.65787201323E+03  0.65787201323E+03  0.00000000000E+00 0. -1.
         24    2    1    2    0    0  0.17227162022E+02  0.17304551948E+02 -0.52632135278E+03  0.53177782502E+03  0.71953222035E+02 0.  0.
         25    2    1    2    0    0  0.10883713806E+03  0.10969522401E+02 -0.58855290382E+02  0.17628531006E+03  0.12508681903E+03 0.  0.
        -24    2    1    2    0    0 -0.12606430008E+03 -0.28274074349E+02  0.50565646359E+03  0.52816071180E+03  0.81078032019E+02 0.  0.
        -13    1    3    3    0    0 -0.18428492310E+02  0.30313831035E+02 -0.18655836925E+03  0.18990145555E+03  0.00000000000E+00 0.  1.
         14    1    3    3    0    0  0.35655654332E+02 -0.13009279087E+02 -0.33976298353E+03  0.34187636948E+03  0.00000000000E+00 0. -1.
         13    1    5    5    0    0 -0.17423720772E+02 -0.29835336095E+02  0.58032322759E+02  0.67538757838E+02  0.00000000000E+00 0. -1.
        -14    1    5    5    0    0 -0.10864057931E+03  0.15612617465E+01  0.44762414083E+03  0.46062195396E+03  0.00000000000E+00 0.  1.
          5    1    4    4  501    0  0.10732969498E+03  0.55823673980E+02 -0.41049405790E+02  0.12782203299E+03  0.41800000000E+01 0.  1.
         -5    1    4    4    0  501  0.15074430722E+01 -0.44854151578E+02 -0.17805884593E+02  0.48463277072E+02  0.41800000000E+01 0.  1.
</event>
<event>
11    1  0.6455215E-009  0.3220859E+03  0.7561462E-02  0.9912543E-01
         22   -1    0    0    0    0  0.00000000000E+00  0.00000000000E+00  0.22718604066E+03  0.22718604066E+03  0.00000000000E+00 0. -1.
         22   -1    0    0    0    0 -0.00000000000E+00 -0.00000000000E+00 -0.96885274954E+03  0.96885274954E+03  0.00000000000E+00 0. -1.
         24    2    1    2    0    0 -0.56374502572E+02 -0.34688797937E+02 -0.50734626436E+03  0.52102382530E+03  0.98408319361E+02 0.  0.
         25    2    1    2    0    0 -0.22403153284E+03 -0.13846648235E+03 -0.13708996234E+03  0.32218876730E+03  0.12509536186E+03 0.  0.
        -24    2    1    2    0    0  0.28040603541E+03  0.17315528028E+03 -0.97230482182E+02  0.35282619761E+03  0.80139024644E+02 0.  0.
        -13    1    3    3    0    0 -0.43374419159E+02 -0.43499992274E+02 -0.13469360709E+03  0.14804039096E+03  0.00000000000E+00 0.  1.
         14    1    3    3    0    0 -0.13000083413E+02  0.88111943372E+01 -0.37265265727E+03  0.37298343433E+03  0.00000000000E+00 0. -1.
         11    1    5    5    0    0  0.16764468339E+03  0.14431164319E+03 -0.47444423734E+02  0.22623342718E+03  0.00000000000E+00 0. -1.
        -12    1    5    5    0    0  0.11276135202E+03  0.28843637092E+02 -0.49786058448E+02  0.12659277043E+03  0.00000000000E+00 0.  1.
          5    1    4    4  501    0 -0.62267244157E+02 -0.99761930716E+02 -0.93209285307E+02  0.15011694036E+03  0.41800000000E+01 0. -1.
         -5    1    4    4    0  501 -0.16176428868E+03 -0.38704551629E+02 -0.43880677035E+02  0.17207182694E+03  0.41800000000E+01 0. -1.
</event>
<event>
11    1  0.6455215E-009  0.1350736E+03  0.7561462E-02  0.1113188E+00
         22   -1    0    0    0    0  0.00000000000E+00  0.00000000000E+00  0.67646898144E+03  0.67646898144E+03  0.00000000000E+00 0.  1.
         22   -1    0    0    0    0 -0.00000000000E+00 -0.00000000000E+00 -0.83344622721E+03  0.83344622721E+03  0.00000000000E+00 0. -1.
        -24    2    1    2    0    0 -0.37881215706E+02  0.29400794549E+02 -0.57073241727E+03  0.57825951119E+03  0.79681722773E+02 0.  0.
         25    2    1    2    0    0  0.24822445486E+02 -0.73931432262E+02 -0.23478507272E+03  0.27723146060E+03  0.12510492354E+03 0.  0.
         24    2    1    2    0    0  0.13058770220E+02  0.44530637713E+02  0.64854024422E+03  0.65442423686E+03  0.74250415761E+02 0.  0.
        -11    1    5    5    0    0  0.76950506426E+01  0.42094896844E+02  0.64689377580E+03  0.64830760547E+03  0.00000000000E+00 0.  1.
         12    1    5    5    0    0  0.53637195776E+01  0.24357408694E+01  0.16464684234E+01  0.61166313898E+01  0.00000000000E+00 0. -1.
         11    1    3    3    0    0 -0.54452877176E+02  0.38714462366E+02 -0.32520592252E+03  0.33199821908E+03  0.00000000000E+00 0. -1.
        -12    1    3    3    0    0  0.16571661469E+02 -0.93136678173E+01 -0.24552649475E+03  0.24626129211E+03  0.00000000000E+00 0.  1.
          5    1    4    4  501    0  0.53590899557E+02 -0.11087836437E+02 -0.18219498131E+03  0.19028244334E+03  0.41800000000E+01 0. -1.
         -5    1    4    4    0  501 -0.28768454071E+02 -0.62843595825E+02 -0.52590091416E+02  0.86949017251E+02  0.41800000000E+01 0. -1.
</event>
<event>
11    1  0.6455215E-009  0.1931457E+03  0.7561462E-02  0.1059479E+00
         22   -1    0    0    0    0  0.00000000000E+00  0.00000000000E+00  0.31275149315E+04  0.31275149315E+04  0.00000000000E+00 0. -1.
         22   -1    0    0    0    0 -0.00000000000E+00 -0.00000000000E+00 -0.45813139474E+03  0.45813139474E+03  0.00000000000E+00 0.  1.
         24    2    1    2    0    0  0.75521730892E+01  0.46525351390E+02 -0.43370415435E+03  0.44355817681E+03  0.80143116185E+02 0.  0.
         25    2    1    2    0    0 -0.76276067981E+02 -0.16950983365E+03  0.73303653680E+03  0.76651019140E+03  0.12507472565E+03 0.  0.
        -24    2    1    2    0    0  0.68723894892E+02  0.12298448226E+03  0.23700511543E+04  0.23755779580E+04  0.79874926889E+02 0.  0.
        -11    1    3    3    0    0  0.29665588209E+02  0.35823062972E+02 -0.39490909604E+03  0.39763869668E+03  0.00000000000E+00 0.  1.
         12    1    3    3    0    0 -0.22113415120E+02  0.10702288418E+02 -0.38795058311E+02  0.45919480126E+02  0.00000000000E+00 0. -1.
         11    1    5    5    0    0  0.82577558734E+02  0.78246627571E+02  0.15309565655E+04  0.15351773817E+04  0.00000000000E+00 0. -1.
        -12    1    5    5    0    0 -0.13853663842E+02  0.44737854685E+02  0.83909458878E+03  0.84040057625E+03  0.00000000000E+00 0.  1.
          5    1    4    4  501    0 -0.70990887965E+02 -0.27395012147E+02  0.34220410938E+03  0.35058710435E+03  0.41800000000E+01 0.  1.
         -5    1    4    4    0  501 -0.52851800157E+01 -0.14211482150E+03  0.39083242742E+03  0.41592308705E+03  0.41800000000E+01 0.  1.
</event>
<event>
11    1  0.6455215E-009  0.1449091E+03  0.7561462E-02  0.1102197E+00
         22   -1    0    0    0    0  0.00000000000E+00  0.00000000000E+00  0.46854836582E+03  0.46854836582E+03  0.00000000000E+00 0.  1.
         22   -1    0    0    0    0 -0.00000000000E+00 -0.00000000000E+00 -0.14362087566E+04  0.14362087566E+04  0.00000000000E+00 0.  1.
         24    2    1    2    0    0 -0.39673813258E+02 -0.89202501993E+00 -0.13681132831E+04  0.13718010149E+04  0.92354002997E+02 0.  0.
         25    2    1    2    0    0  0.35542991859E+02  0.73910659833E+02  0.40409300770E+02  0.15494093854E+03  0.12509073883E+03 0.  0.
        -24    2    1    2    0    0  0.41308213994E+01 -0.73018634813E+02  0.36004359153E+03  0.37801516901E+03  0.88967946361E+02 0.  0.
        -11    1    3    3    0    0 -0.30366989807E+02  0.44658043391E+02 -0.74989559178E+03  0.75183767761E+03  0.00000000000E+00 0.  1.
         12    1    3    3    0    0 -0.93068234510E+01 -0.45550068411E+02 -0.61821769136E+03  0.61996333730E+03  0.00000000000E+00 0. -1.
         11    1    5    5    0    0  0.39784107513E+02 -0.95773666794E+01  0.15985566447E+03  0.16501010462E+03  0.00000000000E+00 0. -1.
        -12    1    5    5    0    0 -0.35653286114E+02 -0.63441268133E+02  0.20018792706E+03  0.21300506438E+03  0.00000000000E+00 0.  1.
          5    1    4    4  501    0  0.59319117429E+02 -0.55107386228E+01  0.40093434194E+02  0.71931090623E+02  0.41800000000E+01 0.  1.
         -5    1    4    4    0  501 -0.23776125570E+02  0.79421398455E+02  0.31586657565E+00  0.83009847918E+02  0.41800000000E+01 0.  1.
</event>
<event>
11    1  0.6455215E-009  0.1740669E+03  0.7561462E-02  0.1074546E+00
         22   -1    0    0    0    0  0.00000000000E+00  0.00000000000E+00  0.19571435178E+03  0.19571435178E+03  0.00000000000E+00 0.  1.
         22   -1    0    0    0    0 -0.00000000000E+00 -0.00000000000E+00 -0.76348431361E+03  0.76348431361E+03  0.00000000000E+00 0.  1.
         24    2    1    2    0    0  0.11876815296E+02  0.33966835481E+02 -0.56980942902E+03  0.57649598215E+03  0.79812451320E+02 0.  0.
         25    2    1    2    0    0 -0.12975850862E+03 -0.12812481500E+02 -0.10067279533E+03  0.20683898276E+03  0.12508366331E+03 0.  0.
        -24    2    1    2    0    0  0.11788169333E+03 -0.21154353980E+02  0.10271226252E+03  0.17586370047E+03  0.77682893583E+02 0.  0.
        -13    1    3    3    0    0  0.92949094234E+01  0.40387261384E+02 -0.56777151838E+03  0.56928202440E+03  0.00000000000E+00 0.  1.
         14    1    3    3    0    0  0.25819058725E+01 -0.64204259035E+01 -0.20379106437E+01  0.72139577562E+01  0.00000000000E+00 0. -1.
         13    1    5    5    0    0  0.58253919709E+02 -0.46417364339E+02  0.74098525660E+02  0.10506513398E+03  0.00000000000E+00 0. -1.
        -14    1    5    5    0    0  0.59627773619E+02  0.25263010359E+02  0.28613736860E+02  0.70798566485E+02  0.00000000000E+00 0.  1.
          5    1    4    4  501    0 -0.81573698581E+02  0.14955721879E+02 -0.12162007018E+03  0.14726457751E+03  0.41800000000E+01 0. -1.
         -5    1    4    4    0  501 -0.48184810043E+02 -0.27768203379E+02  0.20947274851E+02  0.59574405255E+02  0.41800000000E+01 0. -1.
</event>
<event>
11    1  0.6455215E-009  0.1304258E+03  0.7561462E-02  0.1118747E+00
         22   -1    0    0    0    0  0.00000000000E+00  0.00000000000E+00  0.11330433513E+04  0.11330433513E+04  0.00000000000E+00 0. -1.
         22   -1    0    0    0    0 -0.00000000000E+00 -0.00000000000E+00 -0.14148635753E+03  0.14148635753E+03  0.00000000000E+00 0.  1.
         24    2    1    2    0    0 -0.28545270087E+02 -0.26701639420E+02 -0.94247409309E+02  0.13703801657E+03  0.91482423630E+02 0.  0.
         25    2    1    2    0    0  0.67502926505E+01  0.21642512096E+02  0.14436309519E+03  0.19235942995E+03  0.12508989671E+03 0.  0.
        -24    2    1    2    0    0  0.21794977436E+02  0.50591273243E+01  0.94144130786E+03  0.94513226228E+03  0.80390554411E+02 0.  0.
        -11    1    3    3    0    0 -0.28902662571E+02 -0.37786853431E+02 -0.10879687774E+03  0.11874329792E+03  0.00000000000E+00 0.  1.
         12    1    3    3    0    0  0.35739248411E+00  0.11085214011E+02  0.14549468428E+02  0.18294718653E+02  0.00000000000E+00 0. -1.
         13    1    5    5    0    0  0.90011193618E+01 -0.25068750209E+02  0.77745870767E+03  0.77791484400E+03  0.00000000000E+00 0. -1.
        -14    1    5    5    0    0  0.12793858075E+02  0.30127877533E+02  0.16398260019E+03  0.16721741828E+03  0.00000000000E+00 0.  1.
          5    1    4    4  501    0 -0.12815537657E+02  0.21814880591E+01 -0.20785002556E+02  0.24869371260E+02  0.41800000000E+01 0.  1.
         -5    1    4    4    0  501  0.19565830307E+02  0.19461024037E+02  0.16514809775E+03  0.16749005870E+03  0.41800000000E+01 0.  1.
</event>
<event>
11    1  0.6455215E-009  0.1417336E+03  0.7561462E-02  0.1105638E+00
         22   -1    0    0    0    0  0.00000000000E+00  0.00000000000E+00  0.34775703100E+04  0.34775703100E+04  0.00000000000E+00 0.  1.
         22   -1    0    0    0    0 -0.00000000000E+00 -0.00000000000E+00 -0.63503314243E+02  0.63503314243E+02  0.00000000000E+00 0.  1.
         24    2    1    2    0    0  0.26651161549E+02  0.59898916176E+02  0.15624421738E+02  0.10476572154E+03  0.80209533618E+02 0.  0.
         25    2    1    2    0    0 -0.68154104551E+02 -0.46036834809E+02  0.28876135913E+03  0.32526278636E+03  0.12509350717E+03 0.  0.
        -24    2    1    2    0    0  0.41502943002E+02 -0.13862081368E+02  0.31096812149E+04  0.31110451164E+04  0.81054340736E+02 0.  0.
        -13    1    3    3    0    0  0.34050388449E+02  0.13747076940E+02 -0.23681338145E+02  0.43694586098E+02  0.00000000000E+00 0.  1.
         14    1    3    3    0    0 -0.73992269003E+01  0.46151839236E+02  0.39305759883E+02  0.61071135437E+02  0.00000000000E+00 0. -1.
         13    1    5    5    0    0  0.22247646482E+02 -0.44965891381E+02  0.12536342886E+04  0.12546377241E+04  0.00000000000E+00 0. -1.
        -14    1    5    5    0    0  0.19255296520E+02  0.31103810013E+02  0.18560469263E+04  0.18564073923E+04  0.00000000000E+00 0.  1.
          5    1    4    4  501    0 -0.48600895200E+01 -0.57946547572E+02  0.23232304523E+03  0.23952639226E+03  0.41800000000E+01 0. -1.
         -5    1    4    4    0  501 -0.63294015031E+02  0.11909712764E+02  0.56438313905E+02  0.85736394100E+02  0.41800000000E+01 0. -1.
</event>
<event>
11    1  0.6455215E-009  0.1586974E+03  0.7561462E-02  0.1088309E+00
         22   -1    0    0    0    0  0.00000000000E+00  0.00000000000E+00  0.11571706417E+04  0.11571706417E+04  0.00000000000E+00 0.  1.
         22   -1    0    0    0    0 -0.00000000000E+00 -0.00000000000E+00 -0.72042164857E+03  0.72042164857E+03  0.00000000000E+00 0. -1.
         24    2    1    2    0    0  0.97662801810E+02  0.13454979995E+02 -0.69532500202E+03  0.70635291539E+03  0.75753041565E+02 0.  0.
         25    2    1    2    0    0 -0.52945984748E+02  0.14874196801E+02  0.26302521620E+03  0.29640368085E+03  0.12509339963E+03 0.  0.
        -24    2    1    2    0    0 -0.44716817062E+02 -0.28329176796E+02  0.86904877896E+03  0.87483569404E+03  0.85379010119E+02 0.  0.
        -13    1    3    3    0    0  0.44353022278E-01 -0.17697454447E+02 -0.52261813606E+02  0.55176979099E+02  0.00000000000E+00 0.  1.
         14    1    3    3    0    0  0.97618448788E+02  0.31152434443E+02 -0.64306318842E+03  0.65117593630E+03  0.00000000000E+00 0. -1.
         11    1    5    5    0    0 -0.35214733230E+02  0.17646960044E+02  0.18343175839E+03  0.18761317283E+03  0.00000000000E+00 0. -1.
        -12    1    5    5    0    0 -0.95020838319E+01 -0.45976136840E+02  0.68561702057E+03  0.68722252121E+03  0.00000000000E+00 0.  1.
          5    1    4    4  501    0  0.90813622857E+01 -0.38997063289E+02  0.32816126916E+02  0.51938547071E+02  0.41800000000E+01 0.  1.
         -5    1    4    4    0  501 -0.62027347034E+02  0.53871260089E+02  0.23020908929E+03  0.24446513378E+03  0.41800000000E+01 0.  1.
</event>
<event>
11    1  0.6455215E-009  0.1904980E+03  0.7561462E-02  0.1061454E+00
         22   -1    0    0    0    0  0.00000000000E+00  0.00000000000E+00  0.14998446861E+04  0.14998446861E+04  0.00000000000E+00 0.  1.
         22   -1    0    0    0    0 -0.00000000000E+00 -0.00000000000E+00 -0.30220583172E+03  0.30220583172E+03  0.00000000000E+00 0. -1.
         24    2    1    2    0    0 -0.44947757308E+02 -0.16088843531E+02 -0.24096257245E+03  0.25757612055E+03  0.77481254423E+02 0.  0.
         25    2    1    2    0    0 -0.86162084617E+02  0.82471226882E+02  0.10917246302E+03  0.20441015657E+03  0.12505789595E+03 0.  0.
        -24    2    1    2    0    0  0.13110984193E+03 -0.66382383351E+02  0.13294289638E+04  0.13400642407E+04  0.82428077170E+02 0.  0.
        -13    1    3    3    0    0 -0.58831383003E+02  0.11383654641E+02 -0.14896311890E+03  0.16056378798E+03  0.00000000000E+00 0.  1.
         14    1    3    3    0    0  0.13883625695E+02 -0.27472498172E+02 -0.91999453550E+02  0.97012332575E+02  0.00000000000E+00 0. -1.
         11    1    5    5    0    0  0.83993499822E+02 -0.53452196018E+02  0.53839256656E+03  0.54752041149E+03  0.00000000000E+00 0. -1.
        -12    1    5    5    0    0  0.47116342103E+02 -0.12930187332E+02  0.79103639723E+03  0.79254382918E+03  0.00000000000E+00 0.  1.
          5    1    4    4  501    0 -0.90639443178E+02  0.10273786836E+03  0.57635880856E+02  0.14869413376E+03  0.41800000000E+01 0.  1.
         -5    1    4    4    0  501  0.44773585608E+01 -0.20266641474E+02  0.51536582165E+02  0.55716022808E+02  0.41800000000E+01 0.  1.
</event>
<event>
11    1  0.6455215E-009  0.1467172E+03  0.7561462E-02  0.1100281E+00
         22   -1    0    0    0    0  0.00000000000E+00  0.00000000000E+00  0.14995885884E+04  0.14995885884E+04  0.00000000000E+00 0.  1.
         22   -1    0    0    0    0 -0.00000000000E+00 -0.00000000000E+00 -0.35662525736E+03  0.35662525736E+03  0.00000000000E+00 0.  1.
        -24    2    1    2    0    0 -0.32521391611E+02  0.70003244289E+02 -0.32696897805E+03  0.34540835418E+03  0.80250379471E+02 0.  0.
         25    2    1    2    0    0 -0.24621857388E+02 -0.76281013376E+02  0.28548746005E+03  0.32183336911E+03  0.12509435944E+03 0.  0.
         24    2    1    2    0    0  0.57143248999E+02  0.62777690865E+01  0.11844448491E+04  0.11889721225E+04  0.86257442103E+02 0.  0.
        -11    1    5    5    0    0  0.23068574834E+02  0.42798817234E+02  0.76898749309E+03  0.77052297982E+03  0.00000000000E+00 0.  1.
         12    1    5    5    0    0  0.34074674166E+02 -0.36521048148E+02  0.41545735599E+03  0.41844914269E+03  0.00000000000E+00 0. -1.
         13    1    3    3    0    0  0.20583851884E+02  0.10546120081E+02 -0.29743512926E+02  0.37677475610E+02  0.00000000000E+00 0. -1.
        -14    1    3    3    0    0 -0.53105243495E+02  0.59457124208E+02 -0.29722546512E+03  0.30773087857E+03  0.00000000000E+00 0.  1.
          5    1    4    4  501    0  0.41904165249E+02  0.43013089350E+01  0.10540143165E+03  0.11358430577E+03  0.41800000000E+01 0.  1.
         -5    1    4    4    0  501 -0.66526022638E+02 -0.80582322311E+02  0.18008602840E+03  0.20824906334E+03  0.41800000000E+01 0.  1.
</event>
<event>
11    1  0.6455215E-009  0.1290066E+03  0.7561462E-02  0.1120496E+00
         22   -1    0    0    0    0  0.00000000000E+00  0.00000000000E+00  0.13423757240E+04  0.13423757240E+04  0.00000000000E+00 0.  1.
         22   -1    0    0    0    0 -0.00000000000E+00 -0.00000000000E+00 -0.14072932926E+04  0.14072932926E+04  0.00000000000E+00 0.  1.
         24    2    1    2    0    0 -0.64928652857E+00 -0.11189382617E+02 -0.12400436236E+04  0.12423203286E+04  0.74336980713E+02 0.  0.
         25    2    1    2    0    0  0.23620471601E+02 -0.10537427913E+02 -0.13991708518E+03  0.18945348852E+03  0.12508744750E+03 0.  0.
        -24    2    1    2    0    0 -0.22971185073E+02  0.21726810530E+02  0.13150431401E+04  0.13178951995E+04  0.80681887064E+02 0.  0.
        -11    1    3    3    0    0 -0.20099915087E+01 -0.88307307513E+01 -0.12395130233E+04  0.12395461092E+04  0.00000000000E+00 0.  1.
         12    1    3    3    0    0  0.13607049801E+01 -0.23586518655E+01 -0.53060023115E+00  0.27742193985E+01  0.00000000000E+00 0. -1.
         11    1    5    5    0    0 -0.33332913026E+02  0.37669679837E+02  0.47859791156E+03  0.48123388162E+03  0.00000000000E+00 0. -1.
        -12    1    5    5    0    0  0.10361727954E+02 -0.15942869307E+02  0.83644522850E+03  0.83666131784E+03  0.00000000000E+00 0.  1.
          5    1    4    4  501    0  0.12197197867E+02 -0.28540408657E+02  0.13789312632E+02  0.34219060551E+02  0.41800000000E+01 0. -1.
         -5    1    4    4    0  501  0.11423273734E+02  0.18002980744E+02 -0.15370639781E+03  0.15523442797E+03  0.41800000000E+01 0. -1.
</event>
<event>
11    1  0.6455215E-009  0.2117120E+03  0.7561462E-02  0.1046537E+00
         22   -1    0    0    0    0  0.00000000000E+00  0.00000000000E+00  0.49902416694E+03  0.49902416694E+03  0.00000000000E+00 0.  1.
         22   -1    0    0    0    0 -0.00000000000E+00 -0.00000000000E+00 -0.25462274603E+03  0.25462274603E+03  0.00000000000E+00 0.  1.
         24    2    1    2    0    0 -0.97984218740E+01 -0.49317260485E+02 -0.94487737068E+02  0.13479860330E+03  0.81942234183E+02 0.  0.
         25    2    1    2    0    0  0.67518355570E+02 -0.11917642022E+03 -0.42404412716E+02  0.19027299697E+03  0.12507570380E+03 0.  0.
        -24    2    1    2    0    0 -0.57719933696E+02  0.16849368071E+03  0.38129357069E+03  0.42857531270E+03  0.81057389691E+02 0.  0.
        -11    1    3    3    0    0 -0.40901627445E+02 -0.49130447181E+02 -0.72776874349E+02  0.96867008872E+02  0.00000000000E+00 0.  1.
         12    1    3    3    0    0  0.31103205571E+02 -0.18681330466E+00 -0.21710862719E+02  0.37931594430E+02  0.00000000000E+00 0. -1.
         13    1    5    5    0    0 -0.24567478036E+02  0.13550661526E+02  0.11792347988E+03  0.12121521567E+03  0.00000000000E+00 0. -1.
        -14    1    5    5    0    0 -0.33152455660E+02  0.15494301918E+03  0.26337009082E+03  0.30736009703E+03  0.00000000000E+00 0.  1.
          5    1    4    4  501    0 -0.79657512070E+01  0.19096854846E+02 -0.23441503986E+02  0.31545515790E+02  0.41800000000E+01 0.  1.
         -5    1    4    4    0  501  0.75484106777E+02 -0.13827327507E+03 -0.18962908730E+02  0.15872748118E+03  0.41800000000E+01 0.  1.
</event>
<event>
11    1  0.6455215E-009  0.1396142E+03  0.7561462E-02  0.1107990E+00
         22   -1    0    0    0    0  0.00000000000E+00  0.00000000000E+00  0.97776804222E+03  0.97776804222E+03  0.00000000000E+00 0. -1.
         22   -1    0    0    0    0 -0.00000000000E+00 -0.00000000000E+00 -0.10384050272E+04  0.10384050272E+04  0.00000000000E+00 0.  1.
         24    2    1    2    0    0  0.34051716907E+02  0.51399583000E+02 -0.10057907300E+04  0.10108069189E+04  0.79461928187E+02 0.  0.
         25    2    1    2    0    0 -0.39740568610E+02 -0.84982073316E+02  0.19484073009E+03  0.24982369994E+03  0.12509078851E+03 0.  0.
        -24    2    1    2    0    0  0.56888517027E+01  0.33582490315E+02  0.75031301496E+03  0.75554245063E+03  0.81942831246E+02 0.  0.
        -13    1    3    3    0    0  0.43671758863E+02  0.41402992101E+02 -0.97696134633E+03  0.97881300691E+03  0.00000000000E+00 0.  1.
         14    1    3    3    0    0 -0.96200419554E+01  0.99965908997E+01 -0.28829383705E+02  0.31993911946E+02  0.00000000000E+00 0. -1.
         11    1    5    5    0    0  0.12032630784E+02  0.48144412217E+02  0.71615155886E+03  0.71786887653E+03  0.00000000000E+00 0. -1.
        -12    1    5    5    0    0 -0.63437790810E+01 -0.14561921902E+02  0.34161456101E+02  0.37673574100E+02  0.00000000000E+00 0.  1.
          5    1    4    4  501    0 -0.82520811494E+01 -0.40551665264E+02 -0.56966938766E+01  0.41981652184E+02  0.41800000000E+01 0.  1.
         -5    1    4    4    0  501 -0.31488487461E+02 -0.44430408052E+02  0.20053742397E+03  0.20784204776E+03  0.41800000000E+01 0.  1.
</event>
<event>
11    1  0.6455215E-009  0.1554610E+03  0.7561462E-02  0.1091426E+00
         22   -1    0    0    0    0  0.00000000000E+00  0.00000000000E+00  0.21479576932E+04  0.21479576932E+04  0.00000000000E+00 0.  1.
         22   -1    0    0    0    0 -0.00000000000E+00 -0.00000000000E+00 -0.75849643033E+03  0.75849643033E+03  0.00000000000E+00 0. -1.
         24    2    1    2    0    0  0.61741200712E+02 -0.18060332002E+02 -0.74147072088E+03  0.74843469517E+03  0.78977918124E+02 0.  0.
         25    2    1    2    0    0  0.20626076263E+02 -0.44982128976E+02  0.40253886672E+03  0.42442250051E+03  0.12509233697E+03 0.  0.
        -24    2    1    2    0    0 -0.82367276975E+02  0.63042460978E+02  0.17283931170E+04  0.17335969279E+04  0.85186977001E+02 0.  0.
        -13    1    3    3    0    0  0.44112433284E+02 -0.39579018667E+02 -0.28394435328E+03  0.29006344349E+03  0.00000000000E+00 0.  1.
         14    1    3    3    0    0  0.17628767428E+02  0.21518686665E+02 -0.45752636759E+03  0.45837125167E+03  0.00000000000E+00 0. -1.
         11    1    5    5    0    0 -0.72758154627E+02  0.37752360533E+01  0.10668218101E+04  0.10693066801E+04  0.00000000000E+00 0. -1.
        -12    1    5    5    0    0 -0.96091223482E+01  0.59267224924E+02  0.66157130689E+03  0.66429024777E+03  0.00000000000E+00 0.  1.
          5    1    4    4  501    0  0.10566652195E+02 -0.77842042599E+02  0.14863222787E+03  0.16816673065E+03  0.41800000000E+01 0.  1.
         -5    1    4    4    0  501  0.10059424068E+02  0.32859913623E+02  0.25390663885E+03  0.25625576986E+03  0.41800000000E+01 0.  1.
</event>
<event>
11    1  0.6455215E-009  0.1567594E+03  0.7561462E-02  0.1090165E+00
         22   -1    0    0    0    0  0.00000000000E+00  0.00000000000E+00  0.10453487086E+04  0.10453487086E+04  0.00000000000E+00 0. -1.
         22   -1    0    0    0    0 -0.00000000000E+00 -0.00000000000E+00 -0.32360576863E+03  0.32360576863E+03  0.00000000000E+00 0. -1.
         24    2    1    2    0    0  0.85717935050E+02 -0.41698692868E+02 -0.29126084288E+03  0.31661203327E+03  0.79523302486E+02 0.  0.
         25    2    1    2    0    0 -0.56499422048E+02  0.51376362163E+02  0.29792605004E+03  0.33202400568E+03  0.12509314040E+03 0.  0.
        -24    2    1    2    0    0 -0.29218513002E+02 -0.96776692946E+01  0.71507773278E+03  0.72031843825E+03  0.81087050580E+02 0.  0.
        -13    1    3    3    0    0  0.72017417620E+02 -0.16732681404E+02 -0.10637548425E+03  0.12954626478E+03  0.00000000000E+00 0.  1.
         14    1    3    3    0    0  0.13700517430E+02 -0.24966011465E+02 -0.18488535863E+03  0.18706576849E+03  0.00000000000E+00 0. -1.
         11    1    5    5    0    0 -0.45438388993E+02 -0.28264570378E+02  0.61178133531E+03  0.61411720002E+03  0.00000000000E+00 0. -1.
        -12    1    5    5    0    0  0.16219875991E+02  0.18586901083E+02  0.10329639748E+03  0.10620123822E+03  0.00000000000E+00 0.  1.
          5    1    4    4  501    0 -0.86989352592E+02  0.22169930641E+02  0.26008299480E+03  0.27517138272E+03  0.41800000000E+01 0.  1.
         -5    1    4    4    0  501  0.30489930544E+02  0.29206431522E+02  0.37843055246E+02  0.56852622958E+02  0.41800000000E+01 0.  1.
</event>
<event>
11    1  0.6455215E-009  0.1887443E+03  0.7561462E-02  0.1062781E+00
         22   -1    0    0    0    0  0.00000000000E+00  0.00000000000E+00  0.49883999260E+03  0.49883999260E+03  0.00000000000E+00 0. -1.
         22   -1    0    0    0    0 -0.00000000000E+00 -0.00000000000E+00 -0.67676165405E+03  0.67676165405E+03  0.00000000000E+00 0. -1.
        -24    2    1    2    0    0 -0.62975417593E+02  0.12257558375E+03 -0.58514524780E+03  0.60653836704E+03  0.80642127395E+02 0.  0.
         25    2    1    2    0    0  0.10415715258E+03 -0.21066216096E+03  0.22102258063E+03  0.34601416899E+03  0.12509022943E+03 0.  0.
         24    2    1    2    0    0 -0.41181734989E+02  0.88086577207E+02  0.18620100572E+03  0.22304911062E+03  0.74999405581E+02 0.  0.
        -13    1    5    5    0    0  0.79247340776E+01 -0.70594780556E+01  0.33026286742E+01  0.11115079702E+02  0.00000000000E+00 0.  1.
         14    1    5    5    0    0 -0.49106469067E+02  0.95146055262E+02  0.18289837705E+03  0.21193403092E+03  0.00000000000E+00 0. -1.
         13    1    3    3    0    0  0.10826490761E+02  0.65203954676E+02 -0.23224627479E+03  0.24146863308E+03  0.00000000000E+00 0. -1.
        -14    1    3    3    0    0 -0.73801908354E+02  0.57371629077E+02 -0.35289897302E+03  0.36506973396E+03  0.00000000000E+00 0.  1.
          5    1    4    4  501    0  0.17380296693E+02 -0.16629125531E+03  0.12205638375E+03  0.20705093461E+03  0.41800000000E+01 0. -1.
         -5    1    4    4    0  501  0.86776855889E+02 -0.44370905647E+02  0.98966196877E+02  0.13896323438E+03  0.41800000000E+01 0. -1.
</event>
<event>
11    1  0.6455215E-009  0.1672512E+03  0.7561462E-02  0.1080449E+00
         22   -1    0    0    0    0  0.00000000000E+00  0.00000000000E+00  0.48295001929E+03  0.48295001929E+03  0.00000000000E+00 0. -1.
         22   -1    0    0    0    0 -0.00000000000E+00 -0.00000000000E+00 -0.29420917070E+03  0.29420917070E+03  0.00000000000E+00 0. -1.
        -24    2    1    2    0    0 -0.18944851349E+02 -0.48646873558E+02 -0.11053286688E+03  0.14583817324E+03  0.79535101773E+02 0.  0.
         25    2    1    2    0    0 -0.19734424875E+02  0.14985808414E+03 -0.92454824538E+02  0.21689212061E+03  0.12508958588E+03 0.  0.
         24    2    1    2    0    0  0.38679276224E+02 -0.10121121058E+03  0.39172854001E+03  0.41442889613E+03  0.80995464928E+02 0.  0.
        -11    1    5    5    0    0  0.27589149262E+01  0.37529872378E+01 -0.22181363480E+01  0.51591330314E+01  0.00000000000E+00 0.  1.
         12    1    5    5    0    0  0.35920361297E+02 -0.10496419782E+03  0.39394667636E+03  0.40926976310E+03  0.00000000000E+00 0. -1.
         11    1    3    3    0    0 -0.20059767861E+01 -0.76640067796E+01 -0.99928990243E+02  0.10024252607E+03  0.00000000000E+00 0. -1.
        -12    1    3    3    0    0 -0.16938874563E+02 -0.40982866778E+02 -0.10603876636E+02  0.45595647166E+02  0.00000000000E+00 0.  1.
          5    1    4    4  501    0  0.45162584021E+02  0.11073186623E+03 -0.47943369524E+02  0.12890789067E+03  0.41800000000E+01 0. -1.
         -5    1    4    4    0  501 -0.64897008896E+02  0.39126217906E+02 -0.44511455014E+02  0.87984229943E+02  0.41800000000E+01 0. -1.
</event>
<event>
11    1  0.6455215E-009  0.1304942E+03  0.7561462E-02  0.1118663E+00
         22   -1    0    0    0    0  0.00000000000E+00  0.00000000000E+00  0.12291470489E+03  0.12291470489E+03  0.00000000000E+00 0. -1.
         22   -1    0    0    0    0 -0.00000000000E+00 -0.00000000000E+00 -0.18187998156E+04  0.18187998156E+04  0.00000000000E+00 0.  1.
         24    2    1    2    0    0 -0.13639260318E+02  0.23422941534E+02 -0.16097552662E+04  0.16120010031E+04  0.80626009081E+02 0.  0.
         25    2    1    2    0    0 -0.16350736583E+02 -0.44850315985E+02 -0.16466551586E+03  0.21222625295E+03  0.12508538243E+03 0.  0.
        -24    2    1    2    0    0  0.29989996900E+02  0.21427374452E+02  0.78535671322E+02  0.11748726447E+03  0.79226721204E+02 0.  0.
        -11    1    3    3    0    0 -0.27157713749E+02  0.48981396083E+02 -0.11046838929E+04  0.11061027176E+04  0.00000000000E+00 0.  1.
         12    1    3    3    0    0  0.13518453431E+02 -0.25558454549E+02 -0.50507137323E+03  0.50589828547E+03  0.00000000000E+00 0. -1.
         13    1    5    5    0    0  0.44315646938E+02 -0.31054264299E+01  0.77172257688E+02  0.89045368176E+02  0.00000000000E+00 0. -1.
        -14    1    5    5    0    0 -0.14325650038E+02  0.24532800881E+02  0.13634136342E+01  0.28441896295E+02  0.00000000000E+00 0.  1.
          5    1    4    4  501    0 -0.67931622246E+02 -0.45949513357E+02 -0.10185066309E+03  0.13083230890E+03  0.41800000000E+01 0. -1.
         -5    1    4    4    0  501  0.51580885663E+02  0.10991973715E+01 -0.62814852768E+02  0.81393944055E+02  0.41800000000E+01 0. -1.
</event>
<event>
11    1  0.6455215E-009  0.1434606E+03  0.7561462E-02  0.1103754E+00
         22   -1    0    0    0    0  0.00000000000E+00  0.00000000000E+00  0.27701947436E+03  0.27701947436E+03  0.00000000000E+00 0. -1.
         22   -1    0    0    0    0 -0.00000000000E+00 -0.00000000000E+00 -0.13794377341E+04  0.13794377341E+04  0.00000000000E+00 0. -1.
         24    2    1    2    0    0 -0.39261296214E+02 -0.46956851925E+02 -0.11984867001E+04  0.12027346751E+04  0.80336374677E+02 0.  0.
         25    2    1    2    0    0 -0.23183119723E+02  0.70596891245E+01 -0.14263777846E+03  0.19126086032E+03  0.12509150488E+03 0.  0.
        -24    2    1    2    0    0  0.62444415937E+02  0.39897162800E+02  0.23870621879E+03  0.26246167307E+03  0.80089838698E+02 0.  0.
        -11    1    3    3    0    0  0.10966040707E+02  0.16649878997E+02 -0.24440258353E+03  0.24521438651E+03  0.00000000000E+00 0.  1.
         12    1    3    3    0    0 -0.50227336921E+02 -0.63606730922E+02 -0.95408411653E+03  0.95752028856E+03  0.00000000000E+00 0. -1.
         13    1    5    5    0    0  0.50331083835E+02  0.36485264535E+02  0.24166631275E+03  0.24953356336E+03  0.00000000000E+00 0. -1.
        -14    1    5    5    0    0  0.12113332102E+02  0.34118982652E+01 -0.29600939594E+01  0.12928109709E+02  0.00000000000E+00 0.  1.
          5    1    4    4  501    0  0.19827811727E+02 -0.50946945120E+02 -0.55554830639E+02  0.78054756051E+02  0.41800000000E+01 0.  1.
         -5    1    4    4    0  501 -0.43010931450E+02  0.58006634244E+02 -0.87082947826E+02  0.11320610426E+03  0.41800000000E+01 0.  1.
</event>
<event>
11    1  0.6455215E-009  0.1500140E+03  0.7561462E-02  0.1096864E+00
         22   -1    0    0    0    0  0.00000000000E+00  0.00000000000E+00  0.54323252029E+03  0.54323252029E+03  0.00000000000E+00 0.  1.
         22   -1    0    0    0    0 -0.00000000000E+00 -0.00000000000E+00 -0.10407955808E+03  0.10407955808E+03  0.00000000000E+00 0.  1.
        -24    2    1    2    0    0  0.47747983709E+02 -0.63809168795E+02 -0.93759419118E+01  0.11380945040E+03  0.80704415877E+02 0.  0.
         25    2    1    2    0    0 -0.68531934644E+02  0.63856342554E+02  0.12721840642E+03  0.20151037493E+03  0.12509056609E+03 0.  0.
         24    2    1    2    0    0  0.20783950934E+02 -0.47173759719E-01  0.32131049770E+03  0.33199225304E+03  0.80910106317E+02 0.  0.
        -11    1    5    5    0    0  0.35838309251E+02 -0.30628307801E+02  0.14679923547E+03  0.15418331032E+03  0.00000000000E+00 0.  1.
         12    1    5    5    0    0 -0.15054358317E+02  0.30581134041E+02  0.17451126223E+03  0.17780894272E+03  0.00000000000E+00 0. -1.
         11    1    3    3    0    0  0.43759237984E+02 -0.22685589192E+02  0.29194682029E+02  0.57287313820E+02  0.00000000000E+00 0. -1.
        -12    1    3    3    0    0  0.39887457253E+01 -0.41123579603E+02 -0.38570623941E+02  0.56522136575E+02  0.00000000000E+00 0.  1.
          5    1    4    4  501    0 -0.15554297201E+02  0.78256069573E+02  0.22182315544E+02  0.82918490756E+02  0.41800000000E+01 0. -1.
         -5    1    4    4    0  501 -0.52977637443E+02 -0.14399727019E+02  0.10503609087E+03  0.11859188418E+03  0.41800000000E+01 0. -1.
</event>
<event>
11    1  0.6455215E-009  0.1628386E+03  0.7561462E-02  0.1084437E+00
         22   -1    0    0    0    0  0.00000000000E+00  0.00000000000E+00  0.27602868205E+04  0.27602868205E+04  0.00000000000E+00 0. -1.
         22   -1    0    0    0    0 -0.00000000000E+00 -0.00000000000E+00 -0.27078452734E+02  0.27078452734E+02  0.00000000000E+00 0.  1.
        -24    2    1    2    0    0  0.37527313742E+02  0.10348395547E+03  0.28116190928E+03  0.31213387053E+03  0.79109453221E+02 0.  0.
         25    2    1    2    0    0  0.55277114616E+02 -0.10371590628E+03  0.77784042986E+03  0.79655230509E+03  0.12508913544E+03 0.  0.
         24    2    1    2    0    0 -0.92804428358E+02  0.23195080536E+00  0.16742060287E+04  0.16786790976E+04  0.79906011903E+02 0.  0.
        -11    1    5    5    0    0 -0.12343628856E+02 -0.11644288330E+02  0.90982371622E+03  0.90998194994E+03  0.00000000000E+00 0.  1.
         12    1    5    5    0    0 -0.80460799502E+02  0.11876239136E+02  0.76438231243E+03  0.76869714769E+03  0.00000000000E+00 0. -1.
         11    1    3    3    0    0 -0.80308070430E+01  0.73102069367E+02  0.20890388097E+03  0.22147062535E+03  0.00000000000E+00 0. -1.
        -12    1    3    3    0    0  0.45558120785E+02  0.30381886104E+02  0.72258028306E+02  0.90663245185E+02  0.00000000000E+00 0.  1.
          5    1    4    4  501    0  0.32873800457E+02 -0.11034426516E+03  0.35888234906E+03  0.37692248072E+03  0.41800000000E+01 0.  1.
         -5    1    4    4    0  501  0.22403314159E+02  0.66283588857E+01  0.41895808081E+03  0.41962982437E+03  0.41800000000E+01 0.  1.
</event>
<event>
11    1  0.6455215E-009  0.1531074E+03  0.7561462E-02  0.1093745E+00
         22   -1    0    0    0    0  0.00000000000E+00  0.00000000000E+00  0.28102631836E+04  0.28102631836E+04  0.00000000000E+00 0.  1.
         22   -1    0    0    0    0 -0.00000000000E+00 -0.00000000000E+00 -0.16976588751E+03  0.16976588751E+03  0.00000000000E+00 0.  1.
         24    2    1    2    0    0 -0.73739961054E+02 -0.46302602084E+02 -0.10882836590E+03  0.16102839375E+03  0.80653689019E+02 0.  0.
         25    2    1    2    0    0  0.43357918624E+02  0.11076745778E+03  0.18762392908E+03  0.25494866273E+03  0.12508694197E+03 0.  0.
        -24    2    1    2    0    0  0.30382042430E+02 -0.64464855692E+02  0.25617017329E+04  0.25640520147E+04  0.83475620592E+02 0.  0.
        -11    1    3    3    0    0 -0.68816100240E+02  0.30855008475E+01 -0.67460303624E+02  0.96416121747E+02  0.00000000000E+00 0.  1.
         12    1    3    3    0    0 -0.49238608136E+01 -0.49388102932E+02 -0.41368062281E+02  0.64612272003E+02  0.00000000000E+00 0. -1.
         11    1    5    5    0    0  0.29582655514E+02 -0.12514109290E+02  0.29299514288E+03  0.29475055588E+03  0.00000000000E+00 0. -1.
        -12    1    5    5    0    0  0.79938691628E+00 -0.51950746402E+02  0.22687065901E+04  0.22693014588E+04  0.00000000000E+00 0.  1.
          5    1    4    4  501    0  0.64007414823E+02  0.12891171537E+03  0.14746117845E+03  0.20610058482E+03  0.41800000000E+01 0. -1.
         -5    1    4    4    0  501 -0.20649496199E+02 -0.18144257595E+02  0.40162750629E+02  0.48848077905E+02  0.41800000000E+01 0. -1.
</event>
<event>
11    1  0.6455215E-009  0.1808341E+03  0.7561462E-02  0.1068970E+00
         22   -1    0    0    0    0  0.00000000000E+00  0.00000000000E+00  0.62727970401E+02  0.62727970401E+02  0.00000000000E+00 0. -1.
         22   -1    0    0    0    0 -0.00000000000E+00 -0.00000000000E+00 -0.14279280015E+04  0.14279280015E+04  0.00000000000E+00 0.  1.
         24    2    1    2    0    0 -0.60615529289E+02  0.18403294327E+02 -0.31967017207E+03  0.33578547269E+03  0.80931706555E+02 0.  0.
         25    2    1    2    0    0  0.18374357179E+03 -0.57549861544E+01 -0.95975358631E+03  0.98517466836E+03  0.12508941086E+03 0.  0.
        -24    2    1    2    0    0 -0.12312804250E+03 -0.12648308172E+02 -0.85776272728E+02  0.16969583086E+03  0.78221553918E+02 0.  0.
        -11    1    3    3    0    0 -0.64262667805E+02 -0.13527696236E+02 -0.25820135294E+03  0.26642189794E+03  0.00000000000E+00 0.  1.
         12    1    3    3    0    0  0.36471385167E+01  0.31930990563E+02 -0.61468819123E+02  0.69363574749E+02  0.00000000000E+00 0. -1.
         11    1    5    5    0    0 -0.11451432766E+03  0.16001526773E+02 -0.60323456425E+02  0.13041663810E+03  0.00000000000E+00 0. -1.
        -12    1    5    5    0    0 -0.86137148399E+01 -0.28649834946E+02 -0.25452816303E+02  0.39279192755E+02  0.00000000000E+00 0.  1.
          5    1    4    4  501    0  0.33548368712E+02  0.50870724877E+02 -0.23076201217E+03  0.23870882336E+03  0.41800000000E+01 0.  1.
         -5    1    4    4    0  501  0.15019520308E+03 -0.56625711031E+02 -0.72899157414E+03  0.74646584499E+03  0.41800000000E+01 0.  1.
</event>
<event>
11    1  0.6455215E-009  0.1682735E+03  0.7561462E-02  0.1079544E+00
         22   -1    0    0    0    0  0.00000000000E+00  0.00000000000E+00  0.10193129919E+04  0.10193129919E+04  0.00000000000E+00 0.  1.
         22   -1    0    0    0    0 -0.00000000000E+00 -0.00000000000E+00 -0.39088000375E+03  0.39088000375E+03  0.00000000000E+00 0.  1.
         24    2    1    2    0    0 -0.22052897806E+02 -0.82246332359E+02 -0.35051082602E+03  0.36998201605E+03  0.82328995854E+02 0.  0.
         25    2    1    2    0    0 -0.88860824585E+02  0.23211086673E+02  0.23636403749E+03  0.28275463078E+03  0.12508885770E+03 0.  0.
        -24    2    1    2    0    0  0.11091372239E+03  0.59035245686E+02  0.74257977669E+03  0.75745634882E+03  0.80798400803E+02 0.  0.
        -13    1    3    3    0    0 -0.41636277562E+02 -0.45845417125E+02 -0.29104841181E+03  0.29756437942E+03  0.00000000000E+00 0.  1.
         14    1    3    3    0    0  0.19583379756E+02 -0.36400915233E+02 -0.59462414210E+02  0.72417636638E+02  0.00000000000E+00 0. -1.
         11    1    5    5    0    0 -0.24127679086E+01  0.31834701026E+02  0.19669506023E+03  0.19926920574E+03  0.00000000000E+00 0. -1.
        -12    1    5    5    0    0  0.11332649030E+03  0.27200544660E+02  0.54588471646E+03  0.55818714308E+03  0.00000000000E+00 0.  1.
          5    1    4    4  501    0 -0.66517810631E+02  0.47770257541E+02  0.23540367110E+03  0.24927690909E+03  0.41800000000E+01 0.  1.
         -5    1    4    4    0  501 -0.22343013954E+02 -0.24559170868E+02  0.96036638946E+00  0.33477721695E+02  0.41800000000E+01 0.  1.
</event>
<event>
11    1  0.6455215E-009  0.1848084E+03  0.7561462E-02  0.1065818E+00
         22   -1    0    0    0    0  0.00000000000E+00  0.00000000000E+00  0.62835011167E+02  0.62835011167E+02  0.00000000000E+00 0. -1.
         22   -1    0    0    0    0 -0.00000000000E+00 -0.00000000000E+00 -0.37771363312E+04  0.37771363312E+04  0.00000000000E+00 0.  1.
         24    2    1    2    0    0  0.26314045823E+02  0.33337683601E+01 -0.31856602306E+04  0.31868068566E+04  0.81260650587E+02 0.  0.
         25    2    1    2    0    0  0.61847093952E+02  0.10629087305E+03 -0.42776224112E+03  0.46233144451E+03  0.12508803673E+03 0.  0.
        -24    2    1    2    0    0 -0.88161139775E+02 -0.10962464141E+03 -0.10087884832E+03  0.19083304128E+03  0.80316617423E+02 0.  0.
        -13    1    3    3    0    0  0.48796937249E+02  0.23536859954E+01 -0.28372643613E+04  0.28376849256E+04  0.00000000000E+00 0.  1.
         14    1    3    3    0    0 -0.22482891426E+02  0.98008236475E+00 -0.34839586929E+03  0.34912193101E+03  0.00000000000E+00 0. -1.
         11    1    5    5    0    0 -0.62840546355E+02 -0.10245052210E+03 -0.11005324145E+03  0.16296244874E+03  0.00000000000E+00 0. -1.
        -12    1    5    5    0    0 -0.25320593421E+02 -0.71741193075E+01  0.91743931330E+01  0.27870592537E+02  0.00000000000E+00 0.  1.
          5    1    4    4  501    0  0.43176751495E+01  0.10551028434E+03 -0.34935540936E+03  0.36499005037E+03  0.41800000000E+01 0.  1.
         -5    1    4    4    0  501  0.57529418803E+02  0.78058870522E+00 -0.78406831761E+02  0.97341394141E+02  0.41800000000E+01 0.  1.
</event>
<event>
11    1  0.6455215E-009  0.1911997E+03  0.7561462E-02  0.1060927E+00
         22   -1    0    0    0    0  0.00000000000E+00  0.00000000000E+00  0.20596474850E+03  0.20596474850E+03  0.00000000000E+00 0.  1.
         22   -1    0    0    0    0 -0.00000000000E+00 -0.00000000000E+00 -0.14456916539E+04  0.14456916539E+04  0.00000000000E+00 0. -1.
        -24    2    1    2    0    0 -0.15025663148E+02  0.74678756259E+02 -0.11394463721E+04  0.11442305171E+04  0.71573418143E+02 0.  0.
         25    2    1    2    0    0  0.11913096198E+03  0.33672786124E+02 -0.23277648779E+03  0.29183360164E+03  0.12512359950E+03 0.  0.
         24    2    1    2    0    0 -0.10410529883E+03 -0.10835154238E+03  0.13249595452E+03  0.21559228363E+03  0.79667338452E+02 0.  0.
        -11    1    5    5    0    0 -0.12423057442E+02 -0.16315260038E+02  0.67076668954E+02  0.70141283024E+02  0.00000000000E+00 0.  1.
         12    1    5    5    0    0 -0.91682241389E+02 -0.92036282344E+02  0.65419285568E+02  0.14545100061E+03  0.00000000000E+00 0. -1.
         11    1    3    3    0    0 -0.34705144336E+02  0.76890173352E+02 -0.95778464959E+03  0.96149257968E+03  0.00000000000E+00 0. -1.
        -12    1    3    3    0    0  0.19679481189E+02 -0.22114170936E+01 -0.18166172255E+03  0.18273793746E+03  0.00000000000E+00 0.  1.
          5    1    4    4  501    0 -0.18098500032E+02  0.14347718219E+02 -0.32678925474E+01  0.23697346755E+02  0.41800000000E+01 0.  1.
         -5    1    4    4    0  501  0.13722946201E+03  0.19325067904E+02 -0.22950859525E+03  0.26813625489E+03  0.41800000000E+01 0.  1.
</event>
<event>
11    1  0.6455215E-009  0.1735890E+03  0.7561462E-02  0.1074950E+00
         22   -1    0    0    0    0  0.00000000000E+00  0.00000000000E+00  0.13380781812E+03  0.13380781812E+03  0.00000000000E+00 0.  1.
         22   -1    0    0    0    0 -0.00000000000E+00 -0.00000000000E+00 -0.13508448606E+04  0.13508448606E+04  0.00000000000E+00 0. -1.
        -24    2    1    2    0    0  0.81751607174E+02 -0.82076419032E+00 -0.76455841429E+03  0.77277376123E+03  0.77108483692E+02 0.  0.
         25    2    1    2    0    0 -0.66988420290E+02  0.12083262707E+03 -0.51986561662E+03  0.55226283888E+03  0.12508401833E+03 0.  0.
         24    2    1    2    0    0 -0.14763186884E+02 -0.12001186288E+03  0.67386988437E+02  0.15961607860E+03  0.79470041005E+02 0.  0.
        -13    1    5    5    0    0  0.90035033867E+01 -0.10623964741E+03  0.25668950597E+02  0.10966686272E+03  0.00000000000E+00 0.  1.
         14    1    5    5    0    0 -0.23766690271E+02 -0.13772215474E+02  0.41718037839E+02  0.49949215876E+02  0.00000000000E+00 0. -1.
         13    1    3    3    0    0  0.51536741240E+02 -0.27502139383E+01 -0.69497755885E+03  0.69689124451E+03  0.00000000000E+00 0. -1.
        -14    1    3    3    0    0  0.30214865934E+02  0.19294497479E+01 -0.69580855439E+02  0.75882516717E+02  0.00000000000E+00 0.  1.
          5    1    4    4  501    0 -0.55475080179E+02  0.67675347192E+02 -0.11936280245E+03  0.14806210909E+03  0.41800000000E+01 0. -1.
         -5    1    4    4    0  501 -0.11513340111E+02  0.53157279880E+02 -0.40050281417E+03  0.40420072979E+03  0.41800000000E+01 0. -1.
</event>
<event>
11    1  0.6455215E-009  0.1620854E+03  0.7561462E-02  0.1085132E+00
         22   -1    0    0    0    0  0.00000000000E+00  0.00000000000E+00  0.30170611280E+04  0.30170611280E+04  0.00000000000E+00 0.  1.
         22   -1    0    0    0    0 -0.00000000000E+00 -0.00000000000E+00 -0.54125935252E+03  0.54125935252E+03  0.00000000000E+00 0.  1.
         24    2    1    2    0    0  0.58796268153E+02 -0.68739813199E+02 -0.44192749137E+03  0.45853865799E+03  0.82314216103E+02 0.  0.
         25    2    1    2    0    0 -0.34498751719E+02 -0.32773357182E+02 -0.39534894809E+02  0.13955360811E+03  0.12509174560E+03 0.  0.
        -24    2    1    2    0    0 -0.24297516434E+02  0.10151317038E+03  0.29572641617E+04  0.29602282144E+04  0.81513597354E+02 0.  0.
        -13    1    3    3    0    0  0.74659792135E+02 -0.69103085950E+02 -0.32529062877E+03  0.34082739652E+03  0.00000000000E+00 0.  1.
         14    1    3    3    0    0 -0.15863523982E+02  0.36327275107E+00 -0.11663686260E+03  0.11771126147E+03  0.00000000000E+00 0. -1.
         13    1    5    5    0    0 -0.27265450662E+02  0.22609237864E+02  0.35416282959E+03  0.35592961706E+03  0.00000000000E+00 0. -1.
        -14    1    5    5    0    0  0.29679342278E+01  0.78903932516E+02  0.26031013321E+04  0.26042985974E+04  0.00000000000E+00 0.  1.
          5    1    4    4  501    0 -0.50432686408E+02 -0.44640904460E+02 -0.73627432411E+02  0.99873607188E+02  0.41800000000E+01 0. -1.
         -5    1    4    4    0  501  0.15933934689E+02  0.11867547278E+02  0.34092537602E+02  0.39680000922E+02  0.41800000000E+01 0. -1.
</event>
<event>
11    1  0.6455215E-009  0.1318909E+03  0.7561462E-02  0.1116967E+00
         22   -1    0    0    0    0  0.00000000000E+00  0.00000000000E+00  0.42602715145E+03  0.42602715145E+03  0.00000000000E+00 0. -1.
         22   -1    0    0    0    0 -0.00000000000E+00 -0.00000000000E+00 -0.13673286804E+04  0.13673286804E+04  0.00000000000E+00 0.  1.
         24    2    1    2    0    0 -0.25511218430E+02  0.39848840993E+01 -0.13173918467E+04  0.13200516170E+04  0.79676170021E+02 0.  0.
         25    2    1    2    0    0  0.48346329481E+02  0.29248088989E+02  0.67565209724E+02  0.15299780041E+03  0.12510176290E+03 0.  0.
        -24    2    1    2    0    0 -0.22835111051E+02 -0.33232973088E+02  0.30852510807E+03  0.32030641446E+03  0.76043303719E+02 0.  0.
        -11    1    3    3    0    0 -0.20735841646E+02  0.33477952951E+02 -0.10892677453E+04  0.10899793436E+04  0.00000000000E+00 0.  1.
         12    1    3    3    0    0 -0.47753767838E+01 -0.29493068851E+02 -0.22812410145E+03  0.23007227341E+03  0.00000000000E+00 0. -1.
         11    1    5    5    0    0 -0.40714299878E+02  0.75778395090E+01  0.15648258415E+03  0.16186993856E+03  0.00000000000E+00 0. -1.
        -12    1    5    5    0    0  0.17879188827E+02 -0.40810812597E+02  0.15204252391E+03  0.15843647590E+03  0.00000000000E+00 0.  1.
          5    1    4    4  501    0  0.75923479926E+02 -0.21660921760E+02  0.35320627644E+02  0.86594396312E+02  0.41800000000E+01 0.  1.
         -5    1    4    4    0  501 -0.27577150445E+02  0.50909010749E+02  0.32244582080E+02  0.66403404096E+02  0.41800000000E+01 0.  1.
</event>
<event>
11    1  0.6455215E-009  0.1444329E+03  0.7561462E-02  0.1102707E+00
         22   -1    0    0    0    0  0.00000000000E+00  0.00000000000E+00  0.11715411120E+04  0.11715411120E+04  0.00000000000E+00 0. -1.
         22   -1    0    0    0    0 -0.00000000000E+00 -0.00000000000E+00 -0.88096514752E+02  0.88096514752E+02  0.00000000000E+00 0.  1.
        -24    2    1    2    0    0  0.82352277862E+01 -0.27936001288E+01  0.19208917258E+02  0.81696058188E+02  0.78928070057E+02 0.  0.
         25    2    1    2    0    0 -0.76102430340E+02  0.26148499711E+02  0.48272335999E+02  0.15637554182E+03  0.12509103771E+03 0.  0.
         24    2    1    2    0    0  0.67867202554E+02 -0.23354899582E+02  0.10159633440E+04  0.10215660268E+04  0.79146839131E+02 0.  0.
        -11    1    5    5    0    0 -0.75499960434E+01 -0.25651877146E+02  0.15378417723E+03  0.15609162184E+03  0.00000000000E+00 0.  1.
         12    1    5    5    0    0  0.75417198598E+02  0.22969775636E+01  0.86217916681E+03  0.86547440496E+03  0.00000000000E+00 0. -1.
         11    1    3    3    0    0 -0.12357385943E+02 -0.37119471149E+02  0.62287694042E+01  0.39615119513E+02  0.00000000000E+00 0. -1.
        -12    1    3    3    0    0  0.20592613729E+02  0.34325871020E+02  0.12980147854E+02  0.42080938675E+02  0.00000000000E+00 0.  1.
          5    1    4    4  501    0  0.11287950437E+02 -0.31311726105E+02 -0.11955983295E+02  0.35612637550E+02  0.41800000000E+01 0. -1.
         -5    1    4    4    0  501 -0.87390380777E+02  0.57460225816E+02  0.60228319294E+02  0.12076290427E+03  0.41800000000E+01 0. -1.
</event>
<event>
11    1  0.6455215E-009  0.2014197E+03  0.7561462E-02  0.1053524E+00
         22   -1    0    0    0    0  0.00000000000E+00  0.00000000000E+00  0.21406056257E+04  0.21406056257E+04  0.00000000000E+00 0.  1.
         22   -1    0    0    0    0 -0.00000000000E+00 -0.00000000000E+00 -0.29948185990E+03  0.29948185990E+03  0.00000000000E+00 0. -1.
        -24    2    1    2    0    0 -0.14440873307E+03 -0.63198430053E+02 -0.24433905786E+03  0.30217783856E+03  0.82231059648E+02 0.  0.
         25    2    1    2    0    0  0.12863731504E+03  0.10775305696E+03  0.41367740582E+03  0.46360987867E+03  0.12508734313E+03 0.  0.
         24    2    1    2    0    0  0.15771418036E+02 -0.44554626903E+02  0.16717854179E+04  0.16742997684E+04  0.78609024072E+02 0.  0.
        -13    1    5    5    0    0  0.29874731732E+02 -0.61423804900E+02  0.13785708405E+04  0.13802619119E+04  0.00000000000E+00 0.  1.
         14    1    5    5    0    0 -0.14103313696E+02  0.16869177997E+02  0.29321457740E+03  0.29403785645E+03  0.00000000000E+00 0. -1.
         11    1    3    3    0    0 -0.17290369222E+02  0.57602577394E+01 -0.85269274715E+02  0.87195106786E+02  0.00000000000E+00 0. -1.
        -12    1    3    3    0    0 -0.12711836385E+03 -0.68958687792E+02 -0.15906978314E+03  0.21498273177E+03  0.00000000000E+00 0.  1.
          5    1    4    4  501    0  0.14310917323E+03  0.72681139567E+02  0.26270172935E+03  0.30788383282E+03  0.41800000000E+01 0. -1.
         -5    1    4    4    0  501 -0.14471858196E+02  0.35071917389E+02  0.15097567647E+03  0.15572604585E+03  0.41800000000E+01 0. -1.
</event>
<event>
11    1  0.6455215E-009  0.1387705E+03  0.7561462E-02  0.1108939E+00
         22   -1    0    0    0    0  0.00000000000E+00  0.00000000000E+00  0.25971565896E+04  0.25971565896E+04  0.00000000000E+00 0.  1.
         22   -1    0    0    0    0 -0.00000000000E+00 -0.00000000000E+00 -0.19143145311E+02  0.19143145311E+02  0.00000000000E+00 0. -1.
        -24    2    1    2    0    0 -0.29099415511E+02  0.23809403194E+02  0.13645536900E+03  0.15959807057E+03  0.73741526548E+02 0.  0.
         25    2    1    2    0    0  0.70478807615E+02  0.18079954595E+02  0.86187757482E+03  0.87394214809E+03  0.12509107539E+03 0.  0.
         24    2    1    2    0    0 -0.41379392104E+02 -0.41889357789E+02  0.15796805004E+04  0.15827595162E+04  0.79184786042E+02 0.  0.
        -13    1    5    5    0    0  0.76657759861E+01 -0.26895947889E+02  0.10980622434E+04  0.10984183386E+04  0.00000000000E+00 0.  1.
         14    1    5    5    0    0 -0.49045168090E+02 -0.14993409899E+02  0.48161825702E+03  0.48434117763E+03  0.00000000000E+00 0. -1.
         13    1    3    3    0    0  0.84833093333E+01  0.39125020167E+02  0.85880094436E+02  0.94752964918E+02  0.00000000000E+00 0. -1.
        -14    1    3    3    0    0 -0.37582724845E+02 -0.15315616973E+02  0.50575274559E+02  0.64845105650E+02  0.00000000000E+00 0.  1.
          5    1    4    4  501    0 -0.30477156937E+02  0.26790675114E+02  0.18005226873E+03  0.18461551734E+03  0.41800000000E+01 0. -1.
         -5    1    4    4    0  501  0.10095596455E+03 -0.87107205193E+01  0.68182530609E+03  0.68932663075E+03  0.41800000000E+01 0. -1.
</event>
<event>
11    1  0.6455215E-009  0.1899893E+03  0.7561462E-02  0.1061837E+00
         22   -1    0    0    0    0  0.00000000000E+00  0.00000000000E+00  0.47989665131E+03  0.47989665131E+03  0.00000000000E+00 0. -1.
         22   -1    0    0    0    0 -0.00000000000E+00 -0.00000000000E+00 -0.15611798277E+04  0.15611798277E+04  0.00000000000E+00 0.  1.
         24    2    1    2    0    0 -0.88849486661E+01 -0.33191447356E+02 -0.14384047681E+04  0.14411103664E+04  0.81303116847E+02 0.  0.
         25    2    1    2    0    0  0.14611542011E+03  0.63907084270E+02 -0.49629699063E+01  0.20274666378E+03  0.12509095566E+03 0.  0.
        -24    2    1    2    0    0 -0.13723047145E+03 -0.30715636915E+02  0.36208456158E+03  0.39721944885E+03  0.83080732781E+02 0.  0.
        -11    1    3    3    0    0 -0.29531399394E+02  0.16935347929E+02 -0.54404224409E+03  0.54510629506E+03  0.00000000000E+00 0.  1.
         12    1    3    3    0    0  0.20646450728E+02 -0.50126795285E+02 -0.89436252401E+03  0.89600407135E+03  0.00000000000E+00 0. -1.
         11    1    5    5    0    0 -0.68439696435E+02  0.84838838862E+01  0.25426618711E+03  0.26345258063E+03  0.00000000000E+00 0. -1.
        -12    1    5    5    0    0 -0.68790775013E+02 -0.39199520801E+02  0.10781837448E+03  0.13376686822E+03  0.00000000000E+00 0.  1.
          5    1    4    4  501    0 -0.63447023487E+01 -0.17109779770E+02 -0.22371855701E+02  0.29171426760E+02  0.41800000000E+01 0.  1.
         -5    1    4    4    0  501  0.15246012246E+03  0.81016864041E+02  0.17408885795E+02  0.17357523702E+03  0.41800000000E+01 0.  1.
</event>
<event>
11    1  0.8374620E-009  0.4526705E+03  0.7561462E-02  0.9505981E-01
         22   -1    0    0    0    0  0.00000000000E+00  0.00000000000E+00  0.62989900458E+03  0.62989900458E+03  0.00000000000E+00 0. -1.
         22   -1    0    0    0    0 -0.00000000000E+00 -0.00000000000E+00 -0.83463463575E+03  0.83463463575E+03  0.00000000000E+00 0. -1.
         24    2    1    2    0    0 -0.10454686162E+03  0.77435045433E+02 -0.74348020309E+03  0.76046459403E+03  0.92829703467E+02 0.  0.
         25    2    1    2    0    0  0.91941180579E+01 -0.12452328371E+02 -0.20710166930E+02  0.12773442081E+03  0.12509028323E+03 0.  0.
        -24    2    1    2    0    0  0.95352743564E+02 -0.64982717062E+02  0.55945473886E+03  0.57633462549E+03  0.76531669810E+02 0.  0.
        -11    1    3    3    0    0 -0.13471587594E+02  0.41266435533E+02 -0.92854335187E+02  0.10250038994E+03  0.00000000000E+00 0.  1.
         12    1    3    3    0    0 -0.91075274028E+02  0.36168609900E+02 -0.65062586791E+03  0.65796420410E+03  0.00000000000E+00 0. -1.
         11    1    5    5    0    0  0.16345865400E+02 -0.46894646135E+02  0.31244564002E+03  0.31636778142E+03  0.00000000000E+00 0. -1.
        -12    1    5    5    0    0  0.79006878164E+02 -0.18088070927E+02  0.24700909884E+03  0.25996684407E+03  0.00000000000E+00 0.  1.
          5    1    4    4  501    0 -0.55352618493E+02  0.12108131847E+02 -0.77184578208E+01  0.57337302186E+02  0.41800000000E+01 0. -1.
         -5    1    4    4    0  501  0.64546736551E+02 -0.24560460218E+02 -0.12991709109E+02  0.70397118628E+02  0.41800000000E+01 0. -1.
</event>
<event>
11    1  0.6455215E-009  0.1362890E+03  0.7561462E-02  0.1111774E+00
         22   -1    0    0    0    0  0.00000000000E+00  0.00000000000E+00  0.79462696514E+03  0.79462696514E+03  0.00000000000E+00 0. -1.
         22   -1    0    0    0    0 -0.00000000000E+00 -0.00000000000E+00 -0.27173810927E+03  0.27173810927E+03  0.00000000000E+00 0.  1.
        -24    2    1    2    0    0 -0.12856231385E+02  0.21800323232E+01 -0.18734736305E+03  0.20446266265E+03  0.80844979755E+02 0.  0.
         25    2    1    2    0    0  0.84811416124E+01 -0.56046732228E+02 -0.74263980549E+01  0.13753733615E+03  0.12509277153E+03 0.  0.
         24    2    1    2    0    0  0.43750897730E+01  0.53866699905E+02  0.71766261697E+03  0.72436507561E+03  0.82124102394E+02 0.  0.
        -13    1    5    5    0    0  0.32549264093E+01  0.30048098260E+02  0.69785666690E+02  0.76049470940E+02  0.00000000000E+00 0.  1.
         14    1    5    5    0    0  0.11201633637E+01  0.23818601645E+02  0.64787695028E+03  0.64831560467E+03  0.00000000000E+00 0. -1.
         13    1    3    3    0    0  0.16805221469E+02  0.14609584144E+02 -0.10329326093E+02  0.24546901944E+02  0.00000000000E+00 0. -1.
        -14    1    3    3    0    0 -0.29661452855E+02 -0.12429551821E+02 -0.17701803695E+03  0.17991576071E+03  0.00000000000E+00 0.  1.
          5    1    4    4  501    0 -0.42146619832E+02 -0.20667755212E+02 -0.44967057555E+02  0.65138332293E+02  0.41800000000E+01 0.  1.
         -5    1    4    4    0  501  0.50627761444E+02 -0.35378977016E+02  0.37540659500E+02  0.72399003855E+02  0.41800000000E+01 0.  1.
</event>
<event>
11    1  0.6455215E-009  0.1405645E+03  0.7561462E-02  0.1106930E+00
         22   -1    0    0    0    0  0.00000000000E+00  0.00000000000E+00  0.39572224932E+03  0.39572224932E+03  0.00000000000E+00 0.  1.
         22   -1    0    0    0    0 -0.00000000000E+00 -0.00000000000E+00 -0.62482345155E+03  0.62482345155E+03  0.00000000000E+00 0. -1.
        -24    2    1    2    0    0 -0.25163450425E+02  0.50733676299E+02 -0.51578962641E+03  0.52511931420E+03  0.80648932305E+02 0.  0.
         25    2    1    2    0    0 -0.13133572688E+01  0.12417370382E+02 -0.55267733803E+02  0.13732852412E+03  0.12509470469E+03 0.  0.
         24    2    1    2    0    0  0.26476807694E+02 -0.63151046681E+02  0.34195615798E+03  0.35809786255E+03  0.81307989402E+02 0.  0.
        -13    1    5    5    0    0  0.18468532674E+02 -0.16492527321E+02  0.27490915248E+03  0.27602197788E+03  0.00000000000E+00 0.  1.
         14    1    5    5    0    0  0.80082750199E+01 -0.46658519360E+02  0.67047005498E+02  0.82075884668E+02  0.00000000000E+00 0. -1.
         13    1    3    3    0    0 -0.49820069589E+02  0.13650491915E+02 -0.21915223428E+03  0.22515789360E+03  0.00000000000E+00 0. -1.
        -14    1    3    3    0    0  0.24656619164E+02  0.37083184384E+02 -0.29663739213E+03  0.29996142059E+03  0.00000000000E+00 0.  1.
          5    1    4    4  501    0  0.86390598684E+01 -0.54423222661E+02 -0.39163272422E+02  0.67732967062E+02  0.41800000000E+01 0. -1.
         -5    1    4    4    0  501 -0.99524171371E+01  0.66840593043E+02 -0.16104461382E+02  0.69595557054E+02  0.41800000000E+01 0. -1.
</event>
<event>
11    1  0.6455215E-009  0.1461085E+03  0.7561462E-02  0.1100923E+00
         22   -1    0    0    0    0  0.00000000000E+00  0.00000000000E+00  0.59773743850E+03  0.59773743850E+03  0.00000000000E+00 0.  1.
         22   -1    0    0    0    0 -0.00000000000E+00 -0.00000000000E+00 -0.10777338269E+03  0.10777338269E+03  0.00000000000E+00 0.  1.
        -24    2    1    2    0    0  0.34736163697E+02  0.42558424273E+02  0.72756148267E+02  0.12480674957E+03  0.85237591954E+02 0.  0.
         25    2    1    2    0    0 -0.43617193520E+01 -0.10918108449E+03  0.18079792586E+02  0.16707284072E+03  0.12508765486E+03 0.  0.
         24    2    1    2    0    0 -0.30374444345E+02  0.66622660221E+02  0.39912811496E+03  0.41363123090E+03  0.80164563902E+02 0.  0.
        -13    1    5    5    0    0 -0.42190591309E+02  0.24429599844E+02  0.31525656168E+03  0.31900399845E+03  0.00000000000E+00 0.  1.
         14    1    5    5    0    0  0.11816146964E+02  0.42193060377E+02  0.83871553273E+02  0.94627232452E+02  0.00000000000E+00 0. -1.
         11    1    3    3    0    0  0.40114928870E+02  0.20357585808E+02  0.86960870392E+02  0.97907261209E+02  0.00000000000E+00 0. -1.
        -12    1    3    3    0    0 -0.53787651726E+01  0.22200838465E+02 -0.14204722125E+02  0.26899488359E+02  0.00000000000E+00 0.  1.
          5    1    4    4  501    0 -0.36750931523E+01  0.20802911951E+02 -0.22196385962E+02  0.30926031189E+02  0.41800000000E+01 0.  1.
         -5    1    4    4    0  501 -0.68662619969E+00 -0.12998399644E+03  0.40276178548E+02  0.13614680953E+03  0.41800000000E+01 0.  1.
</event>
<event>
11    1  0.6455215E-009  0.1411537E+03  0.7561462E-02  0.1106277E+00
         22   -1    0    0    0    0  0.00000000000E+00  0.00000000000E+00  0.23656263822E+03  0.23656263822E+03  0.00000000000E+00 0.  1.
         22   -1    0    0    0    0 -0.00000000000E+00 -0.00000000000E+00 -0.72746845186E+03  0.72746845186E+03  0.00000000000E+00 0.  1.
        -24    2    1    2    0    0  0.34607086011E+02  0.20268296679E+02 -0.65948545004E+03  0.66519684003E+03  0.77183695974E+02 0.  0.
         25    2    1    2    0    0  0.28057000644E+01  0.48604629043E+02  0.74482784559E+02  0.15351432244E+03  0.12509468446E+03 0.  0.
         24    2    1    2    0    0 -0.37412786076E+02 -0.68872925722E+02  0.94096851841E+02  0.14531992761E+03  0.78233415965E+02 0.  0.
        -11    1    5    5    0    0  0.21832924160E+02 -0.19927306506E+02  0.45942671915E+02  0.54630607032E+02  0.00000000000E+00 0.  1.
         12    1    5    5    0    0 -0.59245710236E+02 -0.48945619217E+02  0.48154179926E+02  0.90689320574E+02  0.00000000000E+00 0. -1.
         13    1    3    3    0    0 -0.61618162269E+01 -0.22785244917E+02 -0.29265040109E+03  0.29360073676E+03  0.00000000000E+00 0. -1.
        -14    1    3    3    0    0  0.40768902238E+02  0.43053541596E+02 -0.36683504895E+03  0.37159610328E+03  0.00000000000E+00 0.  1.
          5    1    4    4  501    0 -0.36115316573E+02 -0.66352966201E+01  0.77376192006E+02  0.85748998489E+02  0.41800000000E+01 0. -1.
         -5    1    4    4    0  501  0.38921016638E+02  0.55239925663E+02 -0.28934074478E+01  0.67765323950E+02  0.41800000000E+01 0. -1.
</event>
<event>
11    1  0.6455215E-009  0.1627070E+03  0.7561462E-02  0.1084558E+00
         22   -1    0    0    0    0  0.00000000000E+00  0.00000000000E+00  0.12103108897E+03  0.12103108897E+03  0.00000000000E+00 0. -1.
         22   -1    0    0    0    0 -0.00000000000E+00 -0.00000000000E+00 -0.12631713035E+04  0.12631713035E+04  0.00000000000E+00 0. -1.
         24    2    1    2    0    0  0.16830298580E+02  0.11970482334E+03 -0.85701394351E+03  0.86946422606E+03  0.82961661876E+02 0.  0.
         25    2    1    2    0    0  0.77172324265E+02 -0.58352113026E+02 -0.33338944052E+03  0.36898534754E+03  0.12506450703E+03 0.  0.
        -24    2    1    2    0    0 -0.94002622845E+02 -0.61352710316E+02  0.48263169497E+02  0.14575281889E+03  0.79460068704E+02 0.  0.
        -13    1    3    3    0    0 -0.30616122614E+02  0.23574084352E+02 -0.26849608789E+03  0.27126229674E+03  0.00000000000E+00 0.  1.
         14    1    3    3    0    0  0.47446421195E+02  0.96130738990E+02 -0.58851785562E+03  0.59820192932E+03  0.00000000000E+00 0. -1.
         11    1    5    5    0    0 -0.35589386038E+02 -0.25087581498E+02  0.61877746179E+02  0.75662716156E+02  0.00000000000E+00 0. -1.
        -12    1    5    5    0    0 -0.58413236807E+02 -0.36265128817E+02 -0.13614576682E+02  0.70090102730E+02  0.00000000000E+00 0.  1.
          5    1    4    4  501    0  0.79959825415E+02 -0.49096369674E+02 -0.34244768131E+03  0.35509423261E+03  0.41800000000E+01 0. -1.
         -5    1    4    4    0  501 -0.27875011501E+01 -0.92557433519E+01  0.90582407929E+01  0.13891114927E+02  0.41800000000E+01 0. -1.
</event>
<event>
11    1  0.6455215E-009  0.1437819E+03  0.7561462E-02  0.1103407E+00
         22   -1    0    0    0    0  0.00000000000E+00  0.00000000000E+00  0.92859957181E+03  0.92859957181E+03  0.00000000000E+00 0.  1.
         22   -1    0    0    0    0 -0.00000000000E+00 -0.00000000000E+00 -0.13839376830E+04  0.13839376830E+04  0.00000000000E+00 0. -1.
         24    2    1    2    0    0  0.59649059591E+02 -0.35290976615E+02 -0.11950441308E+04  0.11997729377E+04  0.80753725537E+02 0.  0.
         25    2    1    2    0    0 -0.73316848375E+02  0.59050675839E+02 -0.15125717587E+03  0.21768720244E+03  0.12508653917E+03 0.  0.
        -24    2    1    2    0    0  0.13667788784E+02 -0.23759699224E+02  0.89096319544E+03  0.89507711469E+03  0.81217571145E+02 0.  0.
        -11    1    3    3    0    0 -0.20437672724E+01 -0.23060371084E+02 -0.89646665108E+02  0.92587700393E+02  0.00000000000E+00 0.  1.
         12    1    3    3    0    0  0.61692826864E+02 -0.12230605532E+02 -0.11053974657E+04  0.11071852373E+04  0.00000000000E+00 0. -1.
         13    1    5    5    0    0 -0.10676547997E+02  0.18724651900E+02  0.87224325793E+02  0.89848117821E+02  0.00000000000E+00 0. -1.
        -14    1    5    5    0    0  0.24344336780E+02 -0.42484351124E+02  0.80373886965E+03  0.80522899687E+03  0.00000000000E+00 0.  1.
          5    1    4    4  501    0 -0.39235553780E+02  0.95754882253E+02 -0.81915328366E+02  0.13204552085E+03  0.41800000000E+01 0.  1.
         -5    1    4    4    0  501 -0.34081294595E+02 -0.36704206414E+02 -0.69341847508E+02  0.85641681590E+02  0.41800000000E+01 0.  1.
</event>
<event>
11    1  0.6455215E-009  0.1659527E+03  0.7561462E-02  0.1081608E+00
         22   -1    0    0    0    0  0.00000000000E+00  0.00000000000E+00  0.27134240069E+03  0.27134240069E+03  0.00000000000E+00 0. -1.
         22   -1    0    0    0    0 -0.00000000000E+00 -0.00000000000E+00 -0.37055106074E+03  0.37055106074E+03  0.00000000000E+00 0.  1.
        -24    2    1    2    0    0 -0.10985548285E+03  0.21016547731E+02 -0.27783331468E+03  0.31028664861E+03  0.81095814739E+02 0.  0.
         25    2    1    2    0    0  0.96558720655E+02  0.41957928822E+02  0.58518652712E+02  0.17366477194E+03  0.12510382077E+03 0.  0.
         24    2    1    2    0    0  0.13296762198E+02 -0.62974476553E+02  0.12010600191E+03  0.15794204088E+03  0.79860177811E+02 0.  0.
        -11    1    5    5    0    0  0.13331744550E+02  0.17544222579E+02  0.26911899937E+02  0.34781971147E+02  0.00000000000E+00 0.  1.
         12    1    5    5    0    0 -0.34982352660E-01 -0.80518699132E+02  0.93194101974E+02  0.12316006973E+03  0.00000000000E+00 0. -1.
         11    1    3    3    0    0 -0.34150928667E+02  0.29076204481E+02 -0.18433247499E+03  0.18971076124E+03  0.00000000000E+00 0. -1.
        -12    1    3    3    0    0 -0.75704554186E+02 -0.80596567497E+01 -0.93500839692E+02  0.12057588737E+03  0.00000000000E+00 0.  1.
          5    1    4    4  501    0 -0.14889522671E+02  0.47284173662E+02  0.54675711014E+01  0.50048553406E+02  0.41800000000E+01 0. -1.
         -5    1    4    4    0  501  0.11144824333E+03 -0.53262448404E+01  0.53051081611E+02  0.12361621853E+03  0.41800000000E+01 0. -1.
</event>
<event>
11    1  0.6455215E-009  0.1526927E+03  0.7561462E-02  0.1094159E+00
         22   -1    0    0    0    0  0.00000000000E+00  0.00000000000E+00  0.73585577847E+02  0.73585577847E+02  0.00000000000E+00 0.  1.
         22   -1    0    0    0    0 -0.00000000000E+00 -0.00000000000E+00 -0.15975509169E+04  0.15975509169E+04  0.00000000000E+00 0. -1.
         24    2    1    2    0    0 -0.16397617104E+02  0.70854932920E+01 -0.96738722864E+03  0.97086299440E+03  0.80111283216E+02 0.  0.
         25    2    1    2    0    0 -0.72637698490E+02 -0.34621488231E+01 -0.56091832718E+03  0.57927995153E+03  0.12509065015E+03 0.  0.
        -24    2    1    2    0    0  0.89035315594E+02 -0.36233444688E+01  0.43402167326E+01  0.12099354886E+03  0.81732400769E+02 0.  0.
        -11    1    3    3    0    0  0.71154214904E+01 -0.10480509415E+02 -0.25069113208E+02  0.28087910880E+02  0.00000000000E+00 0.  1.
         12    1    3    3    0    0 -0.23513038595E+02  0.17566002707E+02 -0.94231811543E+03  0.94277508352E+03  0.00000000000E+00 0. -1.
         11    1    5    5    0    0  0.19926178028E+02  0.35691296812E+02 -0.38795260765E+01  0.41060588908E+02  0.00000000000E+00 0. -1.
        -12    1    5    5    0    0  0.69109137566E+02 -0.39314641281E+02  0.82197428091E+01  0.79932959947E+02  0.00000000000E+00 0.  1.
          5    1    4    4  501    0 -0.30638546133E+02 -0.55094545140E+02 -0.14668033650E+03  0.15970824315E+03  0.41800000000E+01 0. -1.
         -5    1    4    4    0  501 -0.41999152356E+02  0.51632396317E+02 -0.41423799068E+03  0.41957170838E+03  0.41800000000E+01 0. -1.
</event>
<event>
11    1  0.6455215E-009  0.1425772E+03  0.7561462E-02  0.1104714E+00
         22   -1    0    0    0    0  0.00000000000E+00  0.00000000000E+00  0.86774451455E+03  0.86774451455E+03  0.00000000000E+00 0.  1.
         22   -1    0    0    0    0 -0.00000000000E+00 -0.00000000000E+00 -0.48953893407E+03  0.48953893407E+03  0.00000000000E+00 0.  1.
         24    2    1    2    0    0 -0.32896394579E+02  0.60371358259E+02 -0.47009873011E+03  0.48164634907E+03  0.79142377077E+02 0.  0.
         25    2    1    2    0    0  0.72482280260E+01 -0.43555609112E+02  0.44609596174E+03  0.46540196231E+03  0.12509097308E+03 0.  0.
        -24    2    1    2    0    0  0.25648166553E+02 -0.16815749148E+02  0.40220834884E+03  0.41023513725E+03  0.74704177171E+02 0.  0.
        -11    1    3    3    0    0 -0.44832102028E+01  0.73418451876E+02 -0.33349126205E+03  0.34150664725E+03  0.00000000000E+00 0.  1.
         12    1    3    3    0    0 -0.28413184376E+02 -0.13047093617E+02 -0.13660746806E+03  0.14013970182E+03  0.00000000000E+00 0. -1.
         13    1    5    5    0    0  0.12713094717E+02 -0.15773930307E+02  0.22390237063E+02  0.30195403133E+02  0.00000000000E+00 0. -1.
        -14    1    5    5    0    0  0.12935071835E+02 -0.10418188403E+01  0.37981811178E+03  0.38003973412E+03  0.00000000000E+00 0.  1.
          5    1    4    4  501    0  0.49485663583E+02  0.21299672207E+02  0.21346472290E+03  0.22019801830E+03  0.41800000000E+01 0. -1.
         -5    1    4    4    0  501 -0.42237435557E+02 -0.64855281319E+02  0.23263123884E+03  0.24520394401E+03  0.41800000000E+01 0. -1.
</event>
<event>
11    1  0.6455215E-009  0.1404771E+03  0.7561462E-02  0.1107027E+00
         22   -1    0    0    0    0  0.00000000000E+00  0.00000000000E+00  0.19511297096E+04  0.19511297096E+04  0.00000000000E+00 0.  1.
         22   -1    0    0    0    0 -0.00000000000E+00 -0.00000000000E+00 -0.10866369016E+03  0.10866369016E+03  0.00000000000E+00 0.  1.
         24    2    1    2    0    0 -0.24379181041E+02  0.59647775500E+02 -0.58729764698E+02  0.12156411787E+03  0.84713917992E+02 0.  0.
         25    2    1    2    0    0  0.29170598504E+02 -0.52137326760E+02  0.25643673196E+03  0.29150975459E+03  0.12509562288E+03 0.  0.
        -24    2    1    2    0    0 -0.47914174623E+01 -0.75104487396E+01  0.16447590522E+04  0.16467195273E+04  0.79834186395E+02 0.  0.
        -13    1    3    3    0    0 -0.32731959262E+02  0.34023232951E+02 -0.76060125326E+02  0.89521529267E+02  0.00000000000E+00 0.  1.
         14    1    3    3    0    0  0.83527782207E+01  0.25624542549E+02  0.17330360629E+02  0.32042588603E+02  0.00000000000E+00 0. -1.
         11    1    5    5    0    0  0.26193529995E+02 -0.18392204445E+02  0.32955408484E+03  0.33110461947E+03  0.00000000000E+00 0. -1.
        -12    1    5    5    0    0 -0.30984947457E+02  0.10881755706E+02  0.13152049673E+04  0.13156149078E+04  0.00000000000E+00 0.  1.
          5    1    4    4  501    0  0.50148227833E+02 -0.71246453749E+01  0.22909672019E+03  0.23466653985E+03  0.41800000000E+01 0. -1.
         -5    1    4    4    0  501 -0.20977629330E+02 -0.45012681385E+02  0.27340011771E+02  0.56843214735E+02  0.41800000000E+01 0. -1.
</event>
<event>
11    1  0.6455215E-009  0.2479986E+03  0.7561462E-02  0.1024971E+00
         22   -1    0    0    0    0  0.00000000000E+00  0.00000000000E+00  0.56589472186E+03  0.56589472186E+03  0.00000000000E+00 0. -1.
         22   -1    0    0    0    0 -0.00000000000E+00 -0.00000000000E+00 -0.41908365558E+03  0.41908365558E+03  0.00000000000E+00 0.  1.
        -24    2    1    2    0    0 -0.48500454567E+02  0.10438034595E+02 -0.21143530736E+03  0.23395922251E+03  0.87010240427E+02 0.  0.
         25    2    1    2    0    0 -0.15519075645E+03  0.75805370028E+02 -0.10023905492E+03  0.23563757726E+03  0.12508626892E+03 0.  0.
         24    2    1    2    0    0  0.20369121101E+03 -0.86243404623E+02  0.45848542857E+03  0.51538157768E+03  0.80506199228E+02 0.  0.
        -13    1    5    5    0    0  0.13306188486E+03 -0.95993177689E+02  0.32259934096E+03  0.36192608382E+03  0.00000000000E+00 0.  1.
         14    1    5    5    0    0  0.70629326153E+02  0.97497730660E+01  0.13588608761E+03  0.15345549385E+03  0.00000000000E+00 0. -1.
         13    1    3    3    0    0 -0.61495855493E+02  0.22174675664E+02 -0.89823991847E+02  0.11109368117E+03  0.00000000000E+00 0. -1.
        -14    1    3    3    0    0  0.12995400926E+02 -0.11736641069E+02 -0.12161131551E+03  0.12286554134E+03  0.00000000000E+00 0.  1.
          5    1    4    4  501    0 -0.14967362029E+03  0.13338133811E+02 -0.73602402292E+02  0.16737647519E+03  0.41800000000E+01 0. -1.
         -5    1    4    4    0  501 -0.55171361552E+01  0.62467236217E+02 -0.26636652633E+02  0.68261102067E+02  0.41800000000E+01 0. -1.
</event>
<event>
11    1  0.6455215E-009  0.1790144E+03  0.7561462E-02  0.1070443E+00
         22   -1    0    0    0    0  0.00000000000E+00  0.00000000000E+00  0.29162126878E+03  0.29162126878E+03  0.00000000000E+00 0. -1.
         22   -1    0    0    0    0 -0.00000000000E+00 -0.00000000000E+00 -0.12432201119E+04  0.12432201119E+04  0.00000000000E+00 0.  1.
         24    2    1    2    0    0 -0.74054870715E+02  0.10478204441E+03 -0.10166002787E+04  0.10279576103E+04  0.82202927560E+02 0.  0.
         25    2    1    2    0    0  0.59658740495E+02 -0.11242530957E+03 -0.17752640031E+03  0.25171952140E+03  0.12509388113E+03 0.  0.
        -24    2    1    2    0    0  0.14396130220E+02  0.76432651685E+01  0.24252783590E+03  0.25516424893E+03  0.77610403144E+02 0.  0.
        -11    1    3    3    0    0 -0.90796985435E+02  0.73829422082E+02 -0.76062019245E+03  0.76956997947E+03  0.00000000000E+00 0.  1.
         12    1    3    3    0    0  0.16742114720E+02  0.30952622324E+02 -0.25598008624E+03  0.25838763087E+03  0.00000000000E+00 0. -1.
         13    1    5    5    0    0  0.30258112517E+02 -0.16715943769E+02  0.20396048841E+03  0.20686917843E+03  0.00000000000E+00 0. -1.
        -14    1    5    5    0    0 -0.15861982296E+02  0.24359208937E+02  0.38567347487E+02  0.48295070500E+02  0.00000000000E+00 0.  1.
          5    1    4    4  501    0  0.94216807575E+02 -0.93676651264E+02 -0.16121419374E+03  0.20894882264E+03  0.41800000000E+01 0.  1.
         -5    1    4    4    0  501 -0.34558067080E+02 -0.18748658310E+02 -0.16312206574E+02  0.42770698756E+02  0.41800000000E+01 0.  1.
</event>
<event>
11    1  0.6455215E-009  0.1499454E+03  0.7561462E-02  0.1096935E+00
         22   -1    0    0    0    0  0.00000000000E+00  0.00000000000E+00  0.93386740243E+03  0.93386740243E+03  0.00000000000E+00 0. -1.
         22   -1    0    0    0    0 -0.00000000000E+00 -0.00000000000E+00 -0.39600729398E+03  0.39600729398E+03  0.00000000000E+00 0. -1.
        -24    2    1    2    0    0 -0.91023197113E+01 -0.53097849751E+02 -0.34545462290E+03  0.35902534998E+03  0.81597007126E+02 0.  0.
         25    2    1    2    0    0 -0.40753910201E+02  0.11437732355E+03  0.15377769919E+03  0.23245943966E+03  0.12508699763E+03 0.  0.
         24    2    1    2    0    0  0.49856229912E+02 -0.61279473800E+02  0.72953703216E+03  0.73838990677E+03  0.82186103130E+02 0.  0.
        -11    1    5    5    0    0  0.56143981554E+02 -0.45031297907E+02  0.30047950501E+03  0.30897879763E+03  0.00000000000E+00 0.  1.
         12    1    5    5    0    0 -0.62877516412E+01 -0.16248175893E+02  0.42905752716E+03  0.42941110914E+03  0.00000000000E+00 0. -1.
         13    1    3    3    0    0  0.18755317581E+02 -0.12738676757E+02 -0.25607067755E+03  0.25707241728E+03  0.00000000000E+00 0. -1.
        -14    1    3    3    0    0 -0.27857637293E+02 -0.40359172994E+02 -0.89383945349E+02  0.10195293270E+03  0.00000000000E+00 0.  1.
          5    1    4    4  501    0  0.22227632171E+02  0.10541248541E+03  0.76075710565E+02  0.13195016427E+03  0.41800000000E+01 0.  1.
         -5    1    4    4    0  501 -0.62981542372E+02  0.89648381417E+01  0.77701988628E+02  0.10050927539E+03  0.41800000000E+01 0.  1.
</event>
<event>
11    1  0.6455215E-009  0.1543832E+03  0.7561462E-02  0.1092482E+00
         22   -1    0    0    0    0  0.00000000000E+00  0.00000000000E+00  0.82942145409E+02  0.82942145409E+02  0.00000000000E+00 0.  1.
         22   -1    0    0    0    0 -0.00000000000E+00 -0.00000000000E+00 -0.27941538247E+04  0.27941538247E+04  0.00000000000E+00 0. -1.
        -24    2    1    2    0    0 -0.48354837716E+02  0.30557909141E+02 -0.25069187756E+04  0.25085425212E+04  0.69798690632E+02 0.  0.
         25    2    1    2    0    0 -0.53844286203E+02 -0.18897725801E+02 -0.19458369190E+03  0.23825827124E+03  0.12509140443E+03 0.  0.
         24    2    1    2    0    0  0.10219912392E+03 -0.11660183340E+02 -0.97092117669E+01  0.13029517762E+03  0.79384782626E+02 0.  0.
        -13    1    5    5    0    0  0.85781529284E+02  0.17697858380E+02  0.14596113583E+02  0.88796010549E+02  0.00000000000E+00 0.  1.
         14    1    5    5    0    0  0.16417594636E+02 -0.29358041721E+02 -0.24305325350E+02  0.41499167072E+02  0.00000000000E+00 0. -1.
         11    1    3    3    0    0 -0.57047930667E+02  0.23426489791E+02 -0.24322675499E+04  0.24330492599E+04  0.00000000000E+00 0. -1.
        -12    1    3    3    0    0  0.86930929508E+01  0.71314193506E+01 -0.74651225661E+02  0.75493261286E+02  0.00000000000E+00 0.  1.
          5    1    4    4  501    0 -0.32765303956E+02 -0.61919284342E+02 -0.17070182205E+03  0.18456475115E+03  0.41800000000E+01 0. -1.
         -5    1    4    4    0  501 -0.21078982247E+02  0.43021558542E+02 -0.23881869858E+02  0.53693520092E+02  0.41800000000E+01 0. -1.
</event>
<event>
11    1  0.6455215E-009  0.1681227E+03  0.7561462E-02  0.1079677E+00
         22   -1    0    0    0    0  0.00000000000E+00  0.00000000000E+00  0.72569524813E+02  0.72569524813E+02  0.00000000000E+00 0.  1.
         22   -1    0    0    0    0 -0.00000000000E+00 -0.00000000000E+00 -0.16850612806E+04  0.16850612806E+04  0.00000000000E+00 0.  1.
         24    2    1    2    0    0 -0.62361240913E+02  0.19259904132E+01 -0.11441674381E+04  0.11496422014E+04  0.93088295911E+02 0.  0.
         25    2    1    2    0    0  0.13391624635E+03 -0.77733159123E+02 -0.42055698557E+03  0.46528448182E+03  0.12508183658E+03 0.  0.
        -24    2    1    2    0    0 -0.71555005439E+02  0.75807168709E+02 -0.47767332051E+02  0.14270412221E+03  0.84946470523E+02 0.  0.
        -11    1    3    3    0    0 -0.75827431257E+02  0.22948916919E+02 -0.10147992514E+04  0.10178870137E+04  0.00000000000E+00 0.  1.
         12    1    3    3    0    0  0.13466190344E+02 -0.21022926506E+02 -0.12936818676E+03  0.13175518763E+03  0.00000000000E+00 0. -1.
         11    1    5    5    0    0  0.54109202423E+01  0.54226712803E+02 -0.21116882004E+02  0.58444308062E+02  0.00000000000E+00 0. -1.
        -12    1    5    5    0    0 -0.76965925682E+02  0.21580455906E+02 -0.26650450047E+02  0.84259814152E+02  0.00000000000E+00 0.  1.
          5    1    4    4  501    0  0.68836401774E+02 -0.22476580156E+01 -0.60838926985E+02  0.91991030065E+02  0.41800000000E+01 0. -1.
         -5    1    4    4    0  501  0.65079844578E+02 -0.75485501107E+02 -0.35971805859E+03  0.37329345175E+03  0.41800000000E+01 0. -1.
</event>
<event>
11    1  0.6455215E-009  0.1389823E+03  0.7561462E-02  0.1108700E+00
         22   -1    0    0    0    0  0.00000000000E+00  0.00000000000E+00  0.43870791480E+03  0.43870791480E+03  0.00000000000E+00 0. -1.
         22   -1    0    0    0    0 -0.00000000000E+00 -0.00000000000E+00 -0.74406438875E+03  0.74406438875E+03  0.00000000000E+00 0. -1.
        -24    2    1    2    0    0  0.89259865654E+01  0.52054842129E+02 -0.55795199453E+03  0.56601981702E+03  0.79237776561E+02 0.  0.
         25    2    1    2    0    0 -0.12565876816E+02  0.10192467365E+02 -0.15315605481E+03  0.19840666999E+03  0.12508653773E+03 0.  0.
         24    2    1    2    0    0  0.36398902503E+01 -0.62247309494E+02  0.40575157538E+03  0.41834581654E+03  0.80566152621E+02 0.  0.
        -11    1    5    5    0    0  0.16285325201E+02  0.76141069910E+01  0.23664099886E+02  0.29718278308E+02  0.00000000000E+00 0.  1.
         12    1    5    5    0    0 -0.12645434951E+02 -0.69861416485E+02  0.38208747550E+03  0.38862753823E+03  0.00000000000E+00 0. -1.
         13    1    3    3    0    0  0.32390467908E+02  0.60975045443E+02 -0.44393950166E+03  0.44927650697E+03  0.00000000000E+00 0. -1.
        -14    1    3    3    0    0 -0.23464481342E+02 -0.89202033140E+01 -0.11401249287E+03  0.11674331006E+03  0.00000000000E+00 0.  1.
          5    1    4    4  501    0  0.32110992384E+02 -0.42887460359E+02 -0.46297313755E+02  0.70932106616E+02  0.41800000000E+01 0. -1.
         -5    1    4    4    0  501 -0.44676869200E+02  0.53079927725E+02 -0.10685874105E+03  0.12747456338E+03  0.41800000000E+01 0. -1.
</event>
<event>
11    1  0.6455215E-009  0.1399919E+03  0.7561462E-02  0.1107567E+00
         22   -1    0    0    0    0  0.00000000000E+00  0.00000000000E+00  0.44556432083E+03  0.44556432083E+03  0.00000000000E+00 0.  1.
         22   -1    0    0    0    0 -0.00000000000E+00 -0.00000000000E+00 -0.14679912319E+04  0.14679912319E+04  0.00000000000E+00 0.  1.
        -24    2    1    2    0    0  0.54644769536E+02 -0.29213308674E+02 -0.11863388408E+04  0.11906061817E+04  0.79396261778E+02 0.  0.
         25    2    1    2    0    0 -0.54543901995E+02  0.46386574507E+02 -0.25675824112E+03  0.29445857452E+03  0.12511716984E+03 0.  0.
         24    2    1    2    0    0 -0.10086754074E+00 -0.17173265833E+02  0.42067017083E+03  0.42849079655E+03  0.79662029040E+02 0.  0.
        -13    1    5    5    0    0 -0.18388351874E+02  0.18357047794E+02  0.30515321321E+03  0.30625740191E+03  0.00000000000E+00 0.  1.
         14    1    5    5    0    0  0.18287484333E+02 -0.35530313627E+02  0.11551695762E+03  0.12223339465E+03  0.00000000000E+00 0. -1.
         13    1    3    3    0    0 -0.15535051584E+02  0.66942281397E+01 -0.39208257034E+03  0.39244731172E+03  0.00000000000E+00 0. -1.
        -14    1    3    3    0    0  0.70179821120E+02 -0.35907536814E+02 -0.79425627049E+03  0.79815886997E+03  0.00000000000E+00 0.  1.
          5    1    4    4  501    0 -0.24122292865E+02 -0.28259939664E+02 -0.16251593010E+02  0.40768810116E+02  0.41800000000E+01 0.  1.
         -5    1    4    4    0  501 -0.30421609130E+02  0.74646514172E+02 -0.24050664811E+03  0.25368976440E+03  0.41800000000E+01 0.  1.
</event>
<event>
11    1  0.6455215E-009  0.2798925E+03  0.7561462E-02  0.1009079E+00
         22   -1    0    0    0    0  0.00000000000E+00  0.00000000000E+00  0.72820666396E+03  0.72820666396E+03  0.00000000000E+00 0. -1.
         22   -1    0    0    0    0 -0.00000000000E+00 -0.00000000000E+00 -0.50431677135E+03  0.50431677135E+03  0.00000000000E+00 0.  1.
        -24    2    1    2    0    0 -0.25043129125E+02  0.16040408553E+02 -0.39604669518E+03  0.40508581952E+03  0.79731320022E+02 0.  0.
         25    2    1    2    0    0  0.16440123043E+03 -0.20980941975E+03  0.30143779985E+03  0.42137775223E+03  0.12508679274E+03 0.  0.
         24    2    1    2    0    0 -0.13935810130E+03  0.19376901119E+03  0.31849878795E+03  0.40605986356E+03  0.80473752054E+02 0.  0.
        -13    1    5    5    0    0 -0.68365597609E+02  0.80337023463E+02  0.20517957665E+03  0.23070880120E+03  0.00000000000E+00 0.  1.
         14    1    5    5    0    0 -0.70992503695E+02  0.11343198773E+03  0.11331921129E+03  0.17535106235E+03  0.00000000000E+00 0. -1.
         13    1    3    3    0    0 -0.52889338338E+02  0.20681814768E+02 -0.25627436709E+03  0.26249108709E+03  0.00000000000E+00 0. -1.
        -14    1    3    3    0    0  0.27846209213E+02 -0.46414062142E+01 -0.13977232808E+03  0.14259473243E+03  0.00000000000E+00 0.  1.
          5    1    4    4  501    0  0.83598021102E+02 -0.21398762364E+02  0.63164427322E+02  0.10702221004E+03  0.41800000000E+01 0.  1.
         -5    1    4    4    0  501  0.80803209328E+02 -0.18841065738E+03  0.23827337252E+03  0.31435554219E+03  0.41800000000E+01 0.  1.
</event>
<event>
11    1  0.6455215E-009  0.1611321E+03  0.7561462E-02  0.1086017E+00
         22   -1    0    0    0    0  0.00000000000E+00  0.00000000000E+00  0.25212374697E+03  0.25212374697E+03  0.00000000000E+00 0.  1.
         22   -1    0    0    0    0 -0.00000000000E+00 -0.00000000000E+00 -0.94663660447E+03  0.94663660447E+03  0.00000000000E+00 0. -1.
        -24    2    1    2    0    0  0.17579126902E+02  0.30362532720E+02 -0.71984453472E+03  0.72469085553E+03  0.75959020767E+02 0.  0.
         25    2    1    2    0    0 -0.10982829218E+03 -0.66804388081E+02 -0.16589484205E+03  0.24432435649E+03  0.12509281563E+03 0.  0.
         24    2    1    2    0    0  0.92249165277E+02  0.36441855362E+02  0.19122651927E+03  0.22974513942E+03  0.79858187410E+02 0.  0.
        -11    1    5    5    0    0  0.10698016088E+03  0.29858696216E+02  0.16329263350E+03  0.19748615323E+03  0.00000000000E+00 0.  1.
         12    1    5    5    0    0 -0.14730995600E+02  0.65831591457E+01  0.27933885768E+02  0.32258986187E+02  0.00000000000E+00 0. -1.
         13    1    3    3    0    0  0.31327691376E+02 -0.15842176188E+02 -0.33686272596E+03  0.33868701619E+03  0.00000000000E+00 0. -1.
        -14    1    3    3    0    0 -0.13748564474E+02  0.46204708908E+02 -0.38298180876E+03  0.38600383934E+03  0.00000000000E+00 0.  1.
          5    1    4    4  501    0 -0.45303167535E+01  0.28989133875E+02 -0.59781876432E+02  0.66725098745E+02  0.41800000000E+01 0.  1.
         -5    1    4    4    0  501 -0.10529797543E+03 -0.95793521957E+02 -0.10611296562E+03  0.17759925774E+03  0.41800000000E+01 0.  1.
</event>
<event>
11    1  0.6455215E-009  0.1647195E+03  0.7561462E-02  0.1082721E+00
         22   -1    0    0    0    0  0.00000000000E+00  0.00000000000E+00  0.11892744029E+04  0.11892744029E+04  0.00000000000E+00 0.  1.
         22   -1    0    0    0    0 -0.00000000000E+00 -0.00000000000E+00 -0.19919222349E+03  0.19919222349E+03  0.00000000000E+00 0.  1.
         24    2    1    2    0    0  0.27552345918E+01  0.12432163173E+03 -0.48764128782E+02  0.15498711937E+03  0.78610479450E+02 0.  0.
         25    2    1    2    0    0  0.29224705145E+02 -0.85528976397E+02 -0.32700929775E+02  0.15775163905E+03  0.12508772770E+03 0.  0.
        -24    2    1    2    0    0 -0.31979939736E+02 -0.38792655335E+02  0.10715472380E+04  0.10757278679E+04  0.80308007484E+02 0.  0.
        -13    1    3    3    0    0 -0.40462640153E+01  0.11102383768E+03 -0.77840152809E+01  0.11136990473E+03  0.00000000000E+00 0.  1.
         14    1    3    3    0    0  0.68014986071E+01  0.13297794050E+02 -0.40980113501E+02  0.43617214634E+02  0.00000000000E+00 0. -1.
         13    1    5    5    0    0  0.61234282597E+01  0.13525240876E+02  0.50652996525E+02  0.52784037089E+02  0.00000000000E+00 0. -1.
        -14    1    5    5    0    0 -0.38103367996E+02 -0.52317896211E+02  0.10208942414E+04  0.10229438309E+04  0.00000000000E+00 0.  1.
          5    1    4    4  501    0  0.41568414729E+02 -0.11486383723E+03 -0.25913053366E+02  0.12494235847E+03  0.41800000000E+01 0.  1.
         -5    1    4    4    0  501 -0.12343709584E+02  0.29334860831E+02 -0.67878764085E+01  0.32809280583E+02  0.41800000000E+01 0.  1.
</event>
<event>
11    1  0.6455215E-009  0.1828526E+03  0.7561462E-02  0.1067358E+00
         22   -1    0    0    0    0  0.00000000000E+00  0.00000000000E+00  0.70611106727E+03  0.70611106727E+03  0.00000000000E+00 0. -1.
         22   -1    0    0    0    0 -0.00000000000E+00 -0.00000000000E+00 -0.25123233541E+03  0.25123233541E+03  0.00000000000E+00 0.  1.
         24    2    1    2    0    0  0.11732819447E+03  0.67511971634E+02 -0.20031483648E+03  0.25485032505E+03  0.80615649425E+02 0.  0.
         25    2    1    2    0    0 -0.77394384642E+02 -0.62475249245E+02  0.46317729365E+03  0.48997627881E+03  0.12510196200E+03 0.  0.
        -24    2    1    2    0    0 -0.39933809830E+02 -0.50367223889E+01  0.19201627468E+03  0.21251679883E+03  0.81688813804E+02 0.  0.
        -13    1    3    3    0    0  0.50356253632E+02  0.48045436177E+02 -0.40610027916E+02  0.80580956712E+02  0.00000000000E+00 0.  1.
         14    1    3    3    0    0  0.66971940840E+02  0.19466535457E+02 -0.15970480856E+03  0.17426936834E+03  0.00000000000E+00 0. -1.
         11    1    5    5    0    0 -0.29089006635E+02  0.36447946660E+02  0.11943465763E+03  0.12821567988E+03  0.00000000000E+00 0. -1.
        -12    1    5    5    0    0 -0.10844803195E+02 -0.41484669049E+02  0.72581617050E+02  0.84301118949E+02  0.00000000000E+00 0.  1.
          5    1    4    4  501    0 -0.65094703571E+02 -0.63286215652E+02  0.46750706576E+03  0.47625916732E+03  0.41800000000E+01 0. -1.
         -5    1    4    4    0  501 -0.12299681071E+02  0.81096640706E+00 -0.43297721077E+01  0.13717111484E+02  0.41800000000E+01 0. -1.
</event>
<event>
11    1  0.6455215E-009  0.1395156E+03  0.7561462E-02  0.1108101E+00
         22   -1    0    0    0    0  0.00000000000E+00  0.00000000000E+00  0.81305788714E+03  0.81305788714E+03  0.00000000000E+00 0.  1.
         22   -1    0    0    0    0 -0.00000000000E+00 -0.00000000000E+00 -0.53858960014E+03  0.53858960014E+03  0.00000000000E+00 0. -1.
         24    2    1    2    0    0  0.16691008061E+02 -0.50994160800E+02 -0.39964645023E+03  0.41089780959E+03  0.78998294633E+02 0.  0.
         25    2    1    2    0    0  0.27313060107E+01  0.10851490374E+03 -0.77268545600E+02  0.18275954031E+03  0.12509067539E+03 0.  0.
        -24    2    1    2    0    0 -0.19422314071E+02 -0.57520742936E+02  0.75138328283E+03  0.75799013739E+03  0.79286496338E+02 0.  0.
        -13    1    3    3    0    0  0.67680620786E+01 -0.50836673666E+01  0.36106128043E-01  0.84647292837E+01  0.00000000000E+00 0.  1.
         14    1    3    3    0    0  0.99229459821E+01 -0.45910493433E+02 -0.39968255636E+03  0.40243308030E+03  0.00000000000E+00 0. -1.
         13    1    5    5    0    0  0.18645052265E+02 -0.57481650468E+02  0.51950697553E+03  0.52300982375E+03  0.00000000000E+00 0. -1.
        -14    1    5    5    0    0 -0.38067366337E+02 -0.39092467473E-01  0.23187630731E+03  0.23498031364E+03  0.00000000000E+00 0.  1.
          5    1    4    4  501    0  0.10335841476E+02  0.19009240909E+02 -0.89348810909E+02  0.92026427019E+02  0.41800000000E+01 0.  1.
         -5    1    4    4    0  501 -0.76045354655E+01  0.89505662826E+02  0.12080265310E+02  0.90733113292E+02  0.41800000000E+01 0.  1.
</event>
<event>
11    1  0.6455215E-009  0.1524288E+03  0.7561462E-02  0.1094423E+00
         22   -1    0    0    0    0  0.00000000000E+00  0.00000000000E+00  0.72578787810E+03  0.72578787810E+03  0.00000000000E+00 0.  1.
         22   -1    0    0    0    0 -0.00000000000E+00 -0.00000000000E+00 -0.13760247090E+03  0.13760247090E+03  0.00000000000E+00 0. -1.
         24    2    1    2    0    0 -0.85308765111E+02 -0.29548333969E+01 -0.64364207504E+02  0.13349285210E+03  0.79945443322E+02 0.  0.
         25    2    1    2    0    0  0.94311848886E+02  0.35349731834E+02  0.14955779369E+03  0.21945246031E+03  0.12509004878E+03 0.  0.
        -24    2    1    2    0    0 -0.90030837745E+01 -0.32394898438E+02  0.50299182101E+03  0.51044503658E+03  0.80142862459E+02 0.  0.
        -11    1    3    3    0    0 -0.69795659841E+02  0.30699518489E+02 -0.27053179454E+02  0.80905927389E+02  0.00000000000E+00 0.  1.
         12    1    3    3    0    0 -0.15513105270E+02 -0.33654351886E+02 -0.37311028050E+02  0.52586924707E+02  0.00000000000E+00 0. -1.
         11    1    5    5    0    0 -0.73565293235E+01 -0.56570199493E+02  0.25660820426E+03  0.26287273819E+03  0.00000000000E+00 0. -1.
        -12    1    5    5    0    0 -0.16465544510E+01  0.24175301055E+02  0.24638361676E+03  0.24757229839E+03  0.00000000000E+00 0.  1.
          5    1    4    4  501    0  0.36524428135E+02  0.11636824997E+02  0.15198682320E+03  0.15680215679E+03  0.41800000000E+01 0. -1.
         -5    1    4    4    0  501  0.57787420751E+02  0.23712906838E+02 -0.24290295113E+01  0.62650303527E+02  0.41800000000E+01 0. -1.
</event>
<event>
11    1  0.6455215E-009  0.1392900E+03  0.7561462E-02  0.1108354E+00
         22   -1    0    0    0    0  0.00000000000E+00  0.00000000000E+00  0.48276268250E+02  0.48276268250E+02  0.00000000000E+00 0. -1.
         22   -1    0    0    0    0 -0.00000000000E+00 -0.00000000000E+00 -0.14304767266E+04  0.14304767266E+04  0.00000000000E+00 0. -1.
        -24    2    1    2    0    0  0.32643365259E+02  0.47690889487E+02 -0.10170281695E+04  0.10216872433E+04  0.78476208039E+02 0.  0.
         25    2    1    2    0    0 -0.59407782309E+02 -0.63380324959E+02 -0.33290703855E+03  0.36608899909E+03  0.12509080201E+03 0.  0.
         24    2    1    2    0    0  0.26764417050E+02  0.15689435472E+02 -0.32265250259E+02  0.90976752469E+02  0.79203729142E+02 0.  0.
        -11    1    5    5    0    0  0.35938280822E+02 -0.82456276378E+01 -0.48282048683E+02  0.60751186232E+02  0.00000000000E+00 0.  1.
         12    1    5    5    0    0 -0.91738637719E+01  0.23935063110E+02  0.16016798424E+02  0.30225566237E+02  0.00000000000E+00 0. -1.
         11    1    3    3    0    0  0.53769784167E+02  0.37850066255E+02 -0.89766098269E+03  0.90006614038E+03  0.00000000000E+00 0. -1.
        -12    1    3    3    0    0 -0.21126418908E+02  0.98408232319E+01 -0.11936718682E+03  0.12162110289E+03  0.00000000000E+00 0.  1.
          5    1    4    4  501    0 -0.74497252434E+01  0.25729715678E+02 -0.17723402204E+03  0.17929553158E+03  0.41800000000E+01 0. -1.
         -5    1    4    4    0  501 -0.51958057066E+02 -0.89110040637E+02 -0.15567301651E+03  0.18679346751E+03  0.41800000000E+01 0. -1.
</event>
<event>
11    1  0.6455215E-009  0.1399185E+03  0.7561462E-02  0.1107649E+00
         22   -1    0    0    0    0  0.00000000000E+00  0.00000000000E+00  0.37360731508E+03  0.37360731508E+03  0.00000000000E+00 0. -1.
         22   -1    0    0    0    0 -0.00000000000E+00 -0.00000000000E+00 -0.24642839555E+03  0.24642839555E+03  0.00000000000E+00 0. -1.
        -24    2    1    2    0    0 -0.22538299728E+02 -0.49535033575E+02 -0.44755480733E+02  0.10882993193E+03  0.82940982169E+02 0.  0.
         25    2    1    2    0    0 -0.12523617768E+02  0.99750211435E+02 -0.12117294376E+03  0.20109337642E+03  0.12509483626E+03 0.  0.
         24    2    1    2    0    0  0.35061917496E+02 -0.50215177859E+02  0.29310734402E+03  0.31011240227E+03  0.80665263745E+02 0.  0.
        -13    1    5    5    0    0  0.30423510847E+02  0.12846850284E+02  0.58978475978E+02  0.67595060494E+02  0.00000000000E+00 0.  1.
         14    1    5    5    0    0  0.46384066492E+01 -0.63062028143E+02  0.23412886805E+03  0.24251734178E+03  0.00000000000E+00 0. -1.
         11    1    3    3    0    0 -0.39710890067E+02 -0.62725222980E+02 -0.22026654287E+02  0.77437599956E+02  0.00000000000E+00 0. -1.
        -12    1    3    3    0    0  0.17172590338E+02  0.13190189405E+02 -0.22728826446E+02  0.31392331979E+02  0.00000000000E+00 0.  1.
          5    1    4    4  501    0 -0.68700040292E+02  0.56481543057E+02 -0.74579679398E+02  0.11614413985E+03  0.41800000000E+01 0. -1.
         -5    1    4    4    0  501  0.56176422524E+02  0.43268668378E+02 -0.46593264363E+02  0.84949236576E+02  0.41800000000E+01 0. -1.
</event>
<event>
11    1  0.6455215E-009  0.1508482E+03  0.7561462E-02  0.1096015E+00
         22   -1    0    0    0    0  0.00000000000E+00  0.00000000000E+00  0.99846676950E+03  0.99846676950E+03  0.00000000000E+00 0.  1.
         22   -1    0    0    0    0 -0.00000000000E+00 -0.00000000000E+00 -0.26057949020E+03  0.26057949020E+03  0.00000000000E+00 0.  1.
         24    2    1    2    0    0  0.61482297512E+02 -0.52320732281E+02 -0.20081781699E+03  0.23076442365E+03  0.80043061331E+02 0.  0.
         25    2    1    2    0    0 -0.96579832581E+02  0.89165395735E+02  0.15528870073E+03  0.23883135265E+03  0.12509077735E+03 0.  0.
        -24    2    1    2    0    0  0.35097535069E+02 -0.36844663454E+02  0.78341639556E+03  0.78945048340E+03  0.83074970416E+02 0.  0.
        -11    1    3    3    0    0  0.67886913793E+02 -0.16315739890E+02 -0.16678018154E+03  0.18080504802E+03  0.00000000000E+00 0.  1.
         12    1    3    3    0    0 -0.64046162811E+01 -0.36004992391E+02 -0.34037635450E+02  0.49959375635E+02  0.00000000000E+00 0. -1.
         11    1    5    5    0    0 -0.25951825010E+02 -0.22457441948E+01  0.16141768147E+03  0.16350598912E+03  0.00000000000E+00 0. -1.
        -12    1    5    5    0    0  0.61049360079E+02 -0.34598919259E+02  0.62199871409E+03  0.62594449428E+03  0.00000000000E+00 0.  1.
          5    1    4    4  501    0 -0.85307669956E+02  0.71127692761E+01  0.12283280162E+03  0.14977770059E+03  0.41800000000E+01 0.  1.
         -5    1    4    4    0  501 -0.11272162625E+02  0.82052626459E+02  0.32455899110E+02  0.89053652065E+02  0.41800000000E+01 0.  1.
</event>
<event>
11    1  0.6455215E-009  0.1707146E+03  0.7561462E-02  0.1077411E+00
         22   -1    0    0    0    0  0.00000000000E+00  0.00000000000E+00  0.40915318942E+03  0.40915318942E+03  0.00000000000E+00 0. -1.
         22   -1    0    0    0    0 -0.00000000000E+00 -0.00000000000E+00 -0.60883544779E+03  0.60883544779E+03  0.00000000000E+00 0. -1.
        -24    2    1    2    0    0 -0.31068360176E+02 -0.11700091499E+02 -0.42718208520E+03  0.43614871624E+03  0.81480265229E+02 0.  0.
         25    2    1    2    0    0 -0.56476529907E+02  0.89849508882E+02 -0.12209811984E+03  0.20449577902E+03  0.12509212642E+03 0.  0.
         24    2    1    2    0    0  0.87544890083E+02 -0.78149417382E+02  0.34959794667E+03  0.37734414194E+03  0.79990236448E+02 0.  0.
        -13    1    5    5    0    0  0.79904161128E+02 -0.24883228556E+02  0.25656723232E+03  0.26987144112E+03  0.00000000000E+00 0.  1.
         14    1    5    5    0    0  0.76407289551E+01 -0.53266188827E+02  0.93030714343E+02  0.10747270082E+03  0.00000000000E+00 0. -1.
         11    1    3    3    0    0 -0.43864300004E+02 -0.34368925039E+02 -0.20471731274E+03  0.21216615649E+03  0.00000000000E+00 0. -1.
        -12    1    3    3    0    0  0.12795939828E+02  0.22668833540E+02 -0.22246477245E+03  0.22398255975E+03  0.00000000000E+00 0.  1.
          5    1    4    4  501    0 -0.78513094865E+02  0.27980218906E+02 -0.24854983150E+02  0.87077214601E+02  0.41800000000E+01 0. -1.
         -5    1    4    4    0  501  0.22036564958E+02  0.61869289976E+02 -0.97243136691E+02  0.11741856442E+03  0.41800000000E+01 0. -1.
</event>
<event>
11    1  0.6455215E-009  0.1307607E+03  0.7561462E-02  0.1118338E+00
         22   -1    0    0    0    0  0.00000000000E+00  0.00000000000E+00  0.29562566194E+03  0.29562566194E+03  0.00000000000E+00 0. -1.
         22   -1    0    0    0    0 -0.00000000000E+00 -0.00000000000E+00 -0.53594070947E+03  0.53594070947E+03  0.00000000000E+00 0.  1.
         24    2    1    2    0    0 -0.30603136798E+02  0.20575309485E+02 -0.40162989369E+03  0.41119443628E+03  0.80089934316E+02 0.  0.
         25    2    1    2    0    0  0.32070926139E+02 -0.36990673829E+02 -0.86235865913E+02  0.15962487947E+03  0.12508646338E+03 0.  0.
        -24    2    1    2    0    0 -0.14677893410E+01  0.16415364344E+02  0.24755071208E+03  0.26074705567E+03  0.80225017284E+02 0.  0.
        -13    1    3    3    0    0 -0.35728528999E+02 -0.17685612522E+02 -0.29712956800E+03  0.29979207604E+03  0.00000000000E+00 0.  1.
         14    1    3    3    0    0  0.51253922013E+01  0.38260922007E+02 -0.10450032569E+03  0.11140236024E+03  0.00000000000E+00 0. -1.
         13    1    5    5    0    0  0.14534736333E+02  0.32786234662E+02  0.22751648227E+03  0.23032573770E+03  0.00000000000E+00 0. -1.
        -14    1    5    5    0    0 -0.16002525674E+02 -0.16370870318E+02  0.20034229810E+02  0.30421317969E+02  0.00000000000E+00 0.  1.
          5    1    4    4  501    0 -0.28985408290E+02 -0.53416755364E+02 -0.72666428237E+02  0.94822918327E+02  0.41800000000E+01 0. -1.
         -5    1    4    4    0  501  0.61056334429E+02  0.16426081535E+02 -0.13569437676E+02  0.64801961138E+02  0.41800000000E+01 0. -1.
</event>
<event>
11    1  0.6455215E-009  0.1326402E+03  0.7561462E-02  0.1116067E+00
         22   -1    0    0    0    0  0.00000000000E+00  0.00000000000E+00  0.17610557227E+03  0.17610557227E+03  0.00000000000E+00 0.  1.
         22   -1    0    0    0    0 -0.00000000000E+00 -0.00000000000E+00 -0.82849584061E+03  0.82849584061E+03  0.00000000000E+00 0.  1.
         24    2    1    2    0    0  0.34504294570E+02 -0.23178792925E+02 -0.51775201495E+03  0.52575897880E+03  0.81409778418E+02 0.  0.
         25    2    1    2    0    0 -0.54394368155E+02  0.14950748002E+02 -0.27966062660E+03  0.31151268089E+03  0.12509121525E+03 0.  0.
        -24    2    1    2    0    0  0.19890073584E+02  0.82280449229E+01  0.14502237321E+03  0.16732975318E+03  0.80650119756E+02 0.  0.
        -13    1    3    3    0    0  0.42447105754E+01 -0.43540477698E+02 -0.15133335906E+03  0.15752960462E+03  0.00000000000E+00 0.  1.
         14    1    3    3    0    0  0.30259583995E+02  0.20361684773E+02 -0.36641865589E+03  0.36822937418E+03  0.00000000000E+00 0. -1.
         13    1    5    5    0    0 -0.75308045098E+01 -0.33043322223E+02  0.61195416878E+02  0.69953221563E+02  0.00000000000E+00 0. -1.
        -14    1    5    5    0    0  0.27420878094E+02  0.41271367146E+02  0.83826956335E+02  0.97376531618E+02  0.00000000000E+00 0.  1.
          5    1    4    4  501    0 -0.37091332547E+02 -0.14604925739E+02 -0.27355320343E+03  0.27647404637E+03  0.41800000000E+01 0.  1.
         -5    1    4    4    0  501 -0.17303035608E+02  0.29555673741E+02 -0.61074231664E+01  0.35038634523E+02  0.41800000000E+01 0.  1.
</event>
<event>
11    1  0.6455215E-009  0.1633414E+03  0.7561462E-02  0.1083976E+00
         22   -1    0    0    0    0  0.00000000000E+00  0.00000000000E+00  0.43417938784E+03  0.43417938784E+03  0.00000000000E+00 0.  1.
         22   -1    0    0    0    0 -0.00000000000E+00 -0.00000000000E+00 -0.16042562963E+03  0.16042562963E+03  0.00000000000E+00 0.  1.
        -24    2    1    2    0    0  0.27295748760E+02 -0.36084017956E+02 -0.70025705822E+02  0.11602105676E+03  0.80685636174E+02 0.  0.
         25    2    1    2    0    0 -0.12375830310E+03  0.24227663473E+01  0.86012489635E+02  0.19587632492E+03  0.12508956354E+03 0.  0.
         24    2    1    2    0    0  0.96462554342E+02  0.33661251608E+02  0.25776697441E+03  0.28270763579E+03  0.55151518450E+02 0.  0.
        -11    1    5    5    0    0  0.68669878659E+02  0.99796275437E+01  0.21773271197E+03  0.22852281957E+03  0.00000000000E+00 0.  1.
         12    1    5    5    0    0  0.27792675683E+02  0.23681624065E+02  0.40034262438E+02  0.54184816221E+02  0.00000000000E+00 0. -1.
         11    1    3    3    0    0  0.60470813544E+01 -0.94691515422E+01  0.18234574020E+02  0.21418023100E+02  0.00000000000E+00 0. -1.
        -12    1    3    3    0    0  0.21248667406E+02 -0.26614866413E+02 -0.88260279842E+02  0.94603033664E+02  0.00000000000E+00 0.  1.
          5    1    4    4  501    0 -0.56173341919E+02 -0.59882121190E+02  0.54399996597E+02  0.98580651298E+02  0.41800000000E+01 0. -1.
         -5    1    4    4    0  501 -0.67584961184E+02  0.62304887538E+02  0.31612493037E+02  0.97295673621E+02  0.41800000000E+01 0. -1.
</event>
<event>
11    1  0.6455215E-009  0.2970828E+03  0.7561462E-02  0.1001433E+00
         22   -1    0    0    0    0  0.00000000000E+00  0.00000000000E+00  0.10794597366E+04  0.10794597366E+04  0.00000000000E+00 0. -1.
         22   -1    0    0    0    0 -0.00000000000E+00 -0.00000000000E+00 -0.39961114025E+03  0.39961114025E+03  0.00000000000E+00 0.  1.
         24    2    1    2    0    0 -0.26483701001E+03 -0.40807871852E+02 -0.26552140463E+03  0.38586950247E+03  0.81177166392E+02 0.  0.
         25    2    1    2    0    0  0.26645144060E+03  0.90582811525E+02  0.26478000123E+03  0.40615146020E+03  0.12509573784E+03 0.  0.
        -24    2    1    2    0    0 -0.16144305858E+01 -0.49774939673E+02  0.68058999970E+03  0.68704991414E+03  0.79716283281E+02 0.  0.
        -11    1    3    3    0    0 -0.94018841039E+02 -0.32943730838E+02 -0.14789899337E+03  0.17832258441E+03  0.00000000000E+00 0.  1.
         12    1    3    3    0    0 -0.17081816897E+03 -0.78641410144E+01 -0.11762241126E+03  0.20754691806E+03  0.00000000000E+00 0. -1.
         11    1    5    5    0    0  0.59778318605E+01 -0.16676941230E+02  0.59060755299E+03  0.59087319832E+03  0.00000000000E+00 0. -1.
        -12    1    5    5    0    0 -0.75922624464E+01 -0.33097998443E+02  0.89982446717E+02  0.96176715827E+02  0.00000000000E+00 0.  1.
          5    1    4    4  501    0  0.18780668901E+03  0.22601681516E+02  0.22688727549E+03  0.29542765041E+03  0.41800000000E+01 0.  1.
         -5    1    4    4    0  501  0.78644751593E+02  0.67981130009E+02  0.37892725739E+02  0.11072380979E+03  0.41800000000E+01 0.  1.
</event>
<event>
11    1  0.6455215E-009  0.1319157E+03  0.7561462E-02  0.1116937E+00
         22   -1    0    0    0    0  0.00000000000E+00  0.00000000000E+00  0.25960326953E+03  0.25960326953E+03  0.00000000000E+00 0. -1.
         22   -1    0    0    0    0 -0.00000000000E+00 -0.00000000000E+00 -0.23197589482E+03  0.23197589482E+03  0.00000000000E+00 0. -1.
         24    2    1    2    0    0 -0.72181709247E+02 -0.45682326840E+02 -0.15165097052E+03  0.18951956460E+03  0.74983827404E+02 0.  0.
         25    2    1    2    0    0 -0.67091137267E+01  0.23098973060E+02  0.10598182574E+03  0.16571729422E+03  0.12510595291E+03 0.  0.
        -24    2    1    2    0    0  0.78890822974E+02  0.22583353780E+02  0.73296519497E+02  0.13634230553E+03  0.80517542736E+02 0.  0.
        -13    1    3    3    0    0 -0.28518817409E+02  0.11798513802E+02 -0.13580987952E+02  0.33719002181E+02  0.00000000000E+00 0.  1.
         14    1    3    3    0    0 -0.43662891838E+02 -0.57480840642E+02 -0.13806998257E+03  0.15580056242E+03  0.00000000000E+00 0. -1.
         13    1    5    5    0    0  0.82628127615E+02 -0.88360272320E+01  0.49212843169E+02  0.96578397083E+02  0.00000000000E+00 0. -1.
        -14    1    5    5    0    0 -0.37373046412E+01  0.31419381012E+02  0.24083676329E+02  0.39763908443E+02  0.00000000000E+00 0.  1.
          5    1    4    4  501    0  0.33720732298E+02 -0.26105613038E+02  0.10031575089E+01  0.42861049261E+02  0.41800000000E+01 0. -1.
         -5    1    4    4    0  501 -0.40429846025E+02  0.49204586098E+02  0.10497866823E+03  0.12285624496E+03  0.41800000000E+01 0. -1.
</event>
<event>
11    1  0.6504079E-009  0.1863064E+03  0.7561462E-02  0.1064653E+00
         22   -1    0    0    0    0  0.00000000000E+00  0.00000000000E+00  0.95890873041E+03  0.95890873041E+03  0.00000000000E+00 0. -1.
         22   -1    0    0    0    0 -0.00000000000E+00 -0.00000000000E+00 -0.70987007691E+03  0.70987007691E+03  0.00000000000E+00 0.  1.
        -24    2    1    2    0    0  0.55208972936E+01  0.31237589944E+01 -0.49912166794E+03  0.50600428063E+03  0.82931625076E+02 0.  0.
         25    2    1    2    0    0 -0.84595129430E+02 -0.11602190946E+03 -0.15496823664E+03  0.24554054064E+03  0.12513026546E+03 0.  0.
         24    2    1    2    0    0  0.79074232136E+02  0.11289815047E+03  0.90312855808E+03  0.91723398604E+03  0.81720659314E+02 0.  0.
        -13    1    5    5    0    0  0.19186860605E+02  0.14304112782E+01  0.31791140724E+03  0.31849308399E+03  0.00000000000E+00 0.  1.
         14    1    5    5    0    0  0.59887371531E+02  0.11146773919E+03  0.58521715083E+03  0.59874090204E+03  0.00000000000E+00 0. -1.
         11    1    3    3    0    0 -0.20736373383E+02  0.31963449077E+02 -0.15217250712E+03  0.15686979053E+03  0.00000000000E+00 0. -1.
        -12    1    3    3    0    0  0.26257270676E+02 -0.28839690083E+02 -0.34694916082E+03  0.34913449010E+03  0.00000000000E+00 0.  1.
          5    1    4    4  501    0 -0.96336344936E+02 -0.11976910473E+03 -0.87678270480E+02  0.17700361950E+03  0.41800000000E+01 0. -1.
         -5    1    4    4    0  501  0.11741215507E+02  0.37471952626E+01 -0.67289966159E+02  0.68536921141E+02  0.41800000000E+01 0. -1.
</event>
<event>
11    1  0.6455215E-009  0.1718255E+03  0.7561462E-02  0.1076454E+00
         22   -1    0    0    0    0  0.00000000000E+00  0.00000000000E+00  0.66400477992E+03  0.66400477992E+03  0.00000000000E+00 0.  1.
         22   -1    0    0    0    0 -0.00000000000E+00 -0.00000000000E+00 -0.12756845695E+03  0.12756845695E+03  0.00000000000E+00 0.  1.
         24    2    1    2    0    0  0.31218095206E+02 -0.25216943374E+02 -0.62725654675E+02  0.10847253336E+03  0.78875338590E+02 0.  0.
         25    2    1    2    0    0  0.81421735136E+02  0.75049109419E+02  0.21771548490E+03  0.27442921451E+03  0.12509793617E+03 0.  0.
        -24    2    1    2    0    0 -0.11263983034E+03 -0.49832166045E+02  0.38144649275E+03  0.40867148900E+03  0.79624009807E+02 0.  0.
        -11    1    3    3    0    0  0.19522788899E+02 -0.37826455094E+02 -0.75755494380E+02  0.86895770439E+02  0.00000000000E+00 0.  1.
         12    1    3    3    0    0  0.11695306307E+02  0.12609511720E+02  0.13029839705E+02  0.21576762921E+02  0.00000000000E+00 0. -1.
         11    1    5    5    0    0  0.12588149801E+02 -0.50375167565E+01  0.40089870210E+02  0.42320630713E+02  0.00000000000E+00 0. -1.
        -12    1    5    5    0    0 -0.12522798014E+03 -0.44794649289E+02  0.34135662254E+03  0.36635085828E+03  0.00000000000E+00 0.  1.
          5    1    4    4  501    0  0.70612823487E+02 -0.14788544371E+02  0.12768209759E+03  0.14671421994E+03  0.41800000000E+01 0. -1.
         -5    1    4    4    0  501  0.10808911650E+02  0.89837653791E+02  0.90033387302E+02  0.12771499457E+03  0.41800000000E+01 0. -1.
</event>
<event>
11    1  0.6455215E-009  0.1747902E+03  0.7561462E-02  0.1073937E+00
         22   -1    0    0    0    0  0.00000000000E+00  0.00000000000E+00  0.45976523859E+03  0.45976523859E+03  0.00000000000E+00 0. -1.
         22   -1    0    0    0    0 -0.00000000000E+00 -0.00000000000E+00 -0.97596238411E+03  0.97596238411E+03  0.00000000000E+00 0. -1.
         24    2    1    2    0    0  0.16952095367E+02 -0.23086459738E+02 -0.82565757361E+03  0.83001751030E+03  0.79989251667E+02 0.  0.
         25    2    1    2    0    0  0.44891407106E+02  0.12712548508E+03 -0.71644847436E+02  0.19737328523E+03  0.12508837743E+03 0.  0.
        -24    2    1    2    0    0 -0.61843502473E+02 -0.10403902534E+03  0.38110527553E+03  0.40833682718E+03  0.82758659991E+02 0.  0.
        -13    1    3    3    0    0 -0.17156407026E+02  0.21723518673E+02 -0.21650810442E+03  0.21827050384E+03  0.00000000000E+00 0.  1.
         14    1    3    3    0    0  0.34108502393E+02 -0.44809978411E+02 -0.60914946918E+03  0.61174700646E+03  0.00000000000E+00 0. -1.
         13    1    5    5    0    0 -0.68878505750E+02 -0.11035507654E+03  0.37538597725E+03  0.39728720516E+03  0.00000000000E+00 0. -1.
        -14    1    5    5    0    0  0.70350032766E+01  0.63160511995E+01  0.57192982789E+01  0.11049622014E+02  0.00000000000E+00 0.  1.
          5    1    4    4  501    0  0.35247641653E+02  0.55598744546E+02 -0.99933759387E+02  0.11974074203E+03  0.41800000000E+01 0.  1.
         -5    1    4    4    0  501  0.96437654532E+01  0.71526740534E+02  0.28288911951E+02  0.77632543195E+02  0.41800000000E+01 0.  1.
</event>
<event>
11    1  0.6455215E-009  0.1719230E+03  0.7561462E-02  0.1076370E+00
         22   -1    0    0    0    0  0.00000000000E+00  0.00000000000E+00  0.17708092308E+04  0.17708092308E+04  0.00000000000E+00 0. -1.
         22   -1    0    0    0    0 -0.00000000000E+00 -0.00000000000E+00 -0.19342750313E+04  0.19342750313E+04  0.00000000000E+00 0. -1.
        -24    2    1    2    0    0 -0.65920907650E+01 -0.24660246735E+02 -0.17915752961E+04  0.17934816080E+04  0.78629850218E+02 0.  0.
         25    2    1    2    0    0  0.79077281602E+02 -0.68787794873E+02 -0.90767762452E+02  0.18673910836E+03  0.12509088976E+03 0.  0.
         24    2    1    2    0    0 -0.72485190837E+02  0.93448041608E+02  0.17188772581E+04  0.17248635457E+04  0.81416114067E+02 0.  0.
        -11    1    5    5    0    0 -0.25397979924E+02  0.61319439002E+02  0.46741636904E+03  0.47210506566E+03  0.00000000000E+00 0.  1.
         12    1    5    5    0    0 -0.47087210913E+02  0.32128602606E+02  0.12514608890E+04  0.12527584800E+04  0.00000000000E+00 0. -1.
         13    1    3    3    0    0  0.12120322653E+01 -0.42838161979E+02 -0.16471925306E+04  0.16477499234E+04  0.00000000000E+00 0. -1.
        -14    1    3    3    0    0 -0.78041230303E+01  0.18177915244E+02 -0.14438276546E+03  0.14573168461E+03  0.00000000000E+00 0.  1.
          5    1    4    4  501    0  0.96044652943E+02 -0.71483169653E+02 -0.30065936627E+02  0.12351458152E+03  0.41800000000E+01 0.  1.
         -5    1    4    4    0  501 -0.16967371341E+02  0.26953747794E+01 -0.60701825825E+02  0.63224526838E+02  0.41800000000E+01 0.  1.
</event>
<event>
11    1  0.6455215E-009  0.1760360E+03  0.7561462E-02  0.1072895E+00
         22   -1    0    0    0    0  0.00000000000E+00  0.00000000000E+00  0.26096329231E+03  0.26096329231E+03  0.00000000000E+00 0.  1.
         22   -1    0    0    0    0 -0.00000000000E+00 -0.00000000000E+00 -0.92998126924E+03  0.92998126924E+03  0.00000000000E+00 0.  1.
         24    2    1    2    0    0 -0.44652488678E+02  0.12661524897E+03 -0.72730278664E+03  0.74389890102E+03  0.79943514176E+02 0.  0.
         25    2    1    2    0    0  0.41234752010E+02 -0.75149817570E+02 -0.15312626004E+03  0.21550898538E+03  0.12509464981E+03 0.  0.
        -24    2    1    2    0    0  0.34177366681E+01 -0.51465431403E+02  0.21141106976E+03  0.23153667516E+03  0.79083626470E+02 0.  0.
        -11    1    3    3    0    0 -0.59346189213E+02  0.83088539029E+02 -0.37646442491E+03  0.39006555694E+03  0.00000000000E+00 0.  1.
         12    1    3    3    0    0  0.14693700535E+02  0.43526709944E+02 -0.35083836174E+03  0.35383334408E+03  0.00000000000E+00 0. -1.
         11    1    5    5    0    0  0.13226856664E+02 -0.28972333651E+02  0.18016544065E+02  0.36591552501E+02  0.00000000000E+00 0. -1.
        -12    1    5    5    0    0 -0.98091199955E+01 -0.22493097751E+02  0.19339452569E+03  0.19494512266E+03  0.00000000000E+00 0.  1.
          5    1    4    4  501    0  0.61055992158E+02  0.95895241095E+01 -0.44573462188E+02  0.76315523208E+02  0.41800000000E+01 0.  1.
         -5    1    4    4    0  501 -0.19821240148E+02 -0.84739341680E+02 -0.10855279785E+03  0.13919346217E+03  0.41800000000E+01 0.  1.
</event>
<event>
11    1  0.6455215E-009  0.1417676E+03  0.7561462E-02  0.1105600E+00
         22   -1    0    0    0    0  0.00000000000E+00  0.00000000000E+00  0.23860439251E+04  0.23860439251E+04  0.00000000000E+00 0.  1.
         22   -1    0    0    0    0 -0.00000000000E+00 -0.00000000000E+00 -0.42627279103E+03  0.42627279103E+03  0.00000000000E+00 0.  1.
        -24    2    1    2    0    0 -0.66066976273E+02  0.35362053752E+01 -0.40338737254E+03  0.41655813170E+03  0.80137099133E+02 0.  0.
         25    2    1    2    0    0  0.11034119532E+03  0.30348571142E+02  0.46461446861E+03  0.49457755904E+03  0.12507654580E+03 0.  0.
         24    2    1    2    0    0 -0.44274219044E+02 -0.33884776518E+02  0.18985440380E+04  0.19011810254E+04  0.83135086038E+02 0.  0.
        -11    1    5    5    0    0 -0.30018698249E+02  0.13197993832E+01  0.15932678160E+04  0.15935511280E+04  0.00000000000E+00 0.  1.
         12    1    5    5    0    0 -0.14255520795E+02 -0.35204575901E+02  0.30527622199E+03  0.30762989736E+03  0.00000000000E+00 0. -1.
         13    1    3    3    0    0  0.41676045735E+00  0.20192386404E+02 -0.21753802853E+03  0.21847356823E+03  0.00000000000E+00 0. -1.
        -14    1    3    3    0    0 -0.66483736731E+02 -0.16656181029E+02 -0.18584934401E+03  0.19808456347E+03  0.00000000000E+00 0.  1.
          5    1    4    4  501    0 -0.36815470072E+01 -0.28808240386E+02  0.17885735110E+03  0.18124815294E+03  0.41800000000E+01 0.  1.
         -5    1    4    4    0  501  0.11402274232E+03  0.59156811528E+02  0.28575711752E+03  0.31332940610E+03  0.41800000000E+01 0.  1.
</event>
<event>
11    1  0.6455215E-009  0.2041978E+03  0.7561462E-02  0.1051594E+00
         22   -1    0    0    0    0  0.00000000000E+00  0.00000000000E+00  0.28963733996E+04  0.28963733996E+04  0.00000000000E+00 0.  1.
         22   -1    0    0    0    0 -0.00000000000E+00 -0.00000000000E+00 -0.26991915212E+03  0.26991915212E+03  0.00000000000E+00 0.  1.
         24    2    1    2    0    0  0.45540986487E+02 -0.16461727696E+02 -0.24822388704E+03  0.26363491995E+03  0.74453361172E+02 0.  0.
         25    2    1    2    0    0  0.89681538000E+02 -0.10032667308E+03  0.97206755519E+03  0.98927706501E+03  0.12508221263E+03 0.  0.
        -24    2    1    2    0    0 -0.13522252449E+03  0.11678840077E+03  0.19026105793E+04  0.19133805668E+04  0.95778468554E+02 0.  0.
        -13    1    3    3    0    0  0.75922811916E+01  0.24717437218E+02 -0.13341101079E+03  0.13589367990E+03  0.00000000000E+00 0.  1.
         14    1    3    3    0    0  0.37948705295E+02 -0.41179164913E+02 -0.11481287625E+03  0.12774124005E+03  0.00000000000E+00 0. -1.
         11    1    5    5    0    0 -0.58145695229E+02 -0.49513423565E+01  0.50380923763E+03  0.50717766669E+03  0.00000000000E+00 0. -1.
        -12    1    5    5    0    0 -0.77076829258E+02  0.12173974313E+03  0.13988013417E+04  0.14062029001E+04  0.00000000000E+00 0.  1.
          5    1    4    4  501    0  0.52688139835E+02  0.17566573511E+02  0.41051928262E+03  0.41428031378E+03  0.41800000000E+01 0. -1.
         -5    1    4    4    0  501  0.36993398165E+02 -0.11789324659E+03  0.56154827257E+03  0.57499675123E+03  0.41800000000E+01 0. -1.
</event>
<event>
11    1  0.6455215E-009  0.1511707E+03  0.7561462E-02  0.1095689E+00
         22   -1    0    0    0    0  0.00000000000E+00  0.00000000000E+00  0.72780928301E+03  0.72780928301E+03  0.00000000000E+00 0.  1.
         22   -1    0    0    0    0 -0.00000000000E+00 -0.00000000000E+00 -0.29825245694E+04  0.29825245694E+04  0.00000000000E+00 0.  1.
        -24    2    1    2    0    0  0.26097373314E+02  0.82228451835E+02 -0.29087304227E+04  0.29121275838E+04  0.11104864331E+03 0.  0.
         25    2    1    2    0    0  0.35856229019E+01 -0.36876222813E+02 -0.63488177615E+01  0.13061636060E+03  0.12509042197E+03 0.  0.
         24    2    1    2    0    0 -0.29682996216E+02 -0.45352229023E+02  0.66036395413E+03  0.66758990795E+03  0.81595516691E+02 0.  0.
        -13    1    5    5    0    0 -0.14625962413E+02 -0.41890185887E+02  0.64225500220E+03  0.64378582953E+03  0.00000000000E+00 0.  1.
         14    1    5    5    0    0 -0.15057033803E+02 -0.34620431359E+01  0.18108951929E+02  0.23804078423E+02  0.00000000000E+00 0. -1.
         11    1    3    3    0    0  0.29607648744E+02  0.55261277937E+02 -0.60556242053E+03  0.60879903652E+03  0.00000000000E+00 0. -1.
        -12    1    3    3    0    0 -0.35102754301E+01  0.26967173898E+02 -0.23031680022E+04  0.23033285473E+04  0.00000000000E+00 0.  1.
          5    1    4    4  501    0 -0.46120359638E+02  0.92253622600E+01  0.27587392292E+02  0.54687580816E+02  0.41800000000E+01 0. -1.
         -5    1    4    4    0  501  0.49705982540E+02 -0.46101585073E+02 -0.33936210054E+02  0.75928779783E+02  0.41800000000E+01 0. -1.
</event>
<event>
11    1  0.6455215E-009  0.1349589E+03  0.7561462E-02  0.1113322E+00
         22   -1    0    0    0    0  0.00000000000E+00  0.00000000000E+00  0.56908885998E+02  0.56908885998E+02  0.00000000000E+00 0. -1.
         22   -1    0    0    0    0 -0.00000000000E+00 -0.00000000000E+00 -0.27842857955E+04  0.27842857955E+04  0.00000000000E+00 0. -1.
         24    2    1    2    0    0 -0.47767814380E+02 -0.38086859558E+02 -0.19142521714E+04  0.19173333019E+04  0.89851219947E+02 0.  0.
         25    2    1    2    0    0  0.83634441720E+01  0.17794684896E+02 -0.82231448514E+03  0.83200710723E+03  0.12509242987E+03 0.  0.
        -24    2    1    2    0    0  0.39404370208E+02  0.20292174662E+02  0.91897470396E+01  0.91854272408E+02  0.79926711210E+02 0.  0.
        -11    1    3    3    0    0 -0.11604522649E+02 -0.10680228268E+02 -0.47899013825E+02  0.50428640148E+02  0.00000000000E+00 0.  1.
         12    1    3    3    0    0 -0.36163291730E+02 -0.27406631290E+02 -0.18663531576E+04  0.18669046618E+04  0.00000000000E+00 0. -1.
         13    1    5    5    0    0  0.48246446078E+02  0.44485662653E+02  0.71909371584E+01  0.66018204444E+02  0.00000000000E+00 0. -1.
        -14    1    5    5    0    0 -0.88420758699E+01 -0.24193487991E+02  0.19988098811E+01  0.25836067963E+02  0.00000000000E+00 0.  1.
          5    1    4    4  501    0  0.15432275873E+01  0.24086960546E+01  0.34064686144E+01  0.61040803149E+01  0.41800000000E+01 0.  1.
         -5    1    4    4    0  501  0.68202165846E+01  0.15385988842E+02 -0.82572095375E+03  0.82590302692E+03  0.41800000000E+01 0.  1.
</event>
<event>
11    1  0.6455215E-009  0.1397765E+03  0.7561462E-02  0.1107808E+00
         22   -1    0    0    0    0  0.00000000000E+00  0.00000000000E+00  0.79484612416E+03  0.79484612416E+03  0.00000000000E+00 0.  1.
         22   -1    0    0    0    0 -0.00000000000E+00 -0.00000000000E+00 -0.12446486277E+04  0.12446486277E+04  0.00000000000E+00 0. -1.
         24    2    1    2    0    0 -0.60981823506E+02  0.12845035996E+02 -0.12139149777E+04  0.12181235639E+04  0.79697340485E+02 0.  0.
         25    2    1    2    0    0  0.68489895863E+02 -0.36146428606E+00  0.17070995570E+03  0.22244158455E+03  0.12508946027E+03 0.  0.
        -24    2    1    2    0    0 -0.75080723570E+01 -0.12483571710E+02  0.59340251844E+03  0.59892960344E+03  0.79861819879E+02 0.  0.
        -13    1    3    3    0    0 -0.11273710460E+02 -0.13880046186E+02 -0.54971105488E+02  0.57806354913E+02  0.00000000000E+00 0.  1.
         14    1    3    3    0    0 -0.49708113045E+02  0.26725082182E+02 -0.11589438722E+04  0.11603172089E+04  0.00000000000E+00 0. -1.
         13    1    5    5    0    0 -0.65446469555E+01  0.33697237467E+02  0.29144423737E+03  0.29345882116E+03  0.00000000000E+00 0. -1.
        -14    1    5    5    0    0 -0.96342540154E+00 -0.46180809177E+02  0.30195828107E+03  0.30547078229E+03  0.00000000000E+00 0.  1.
          5    1    4    4  501    0 -0.90720050410E+01  0.24749046833E+02  0.12713690250E+03  0.12990797117E+03  0.41800000000E+01 0. -1.
         -5    1    4    4    0  501  0.77561900904E+02 -0.25110511119E+02  0.43573053192E+02  0.92533613379E+02  0.41800000000E+01 0. -1.
</event>
<event>
11    1  0.6455215E-009  0.1363060E+03  0.7561462E-02  0.1111755E+00
         22   -1    0    0    0    0  0.00000000000E+00  0.00000000000E+00  0.12537207901E+03  0.12537207901E+03  0.00000000000E+00 0.  1.
         22   -1    0    0    0    0 -0.00000000000E+00 -0.00000000000E+00 -0.16258975924E+04  0.16258975924E+04  0.00000000000E+00 0. -1.
        -24    2    1    2    0    0 -0.16258776826E+02  0.89660985491E+01 -0.12316035452E+04  0.12343990822E+04  0.80926280674E+02 0.  0.
         25    2    1    2    0    0  0.20320471665E+02 -0.62414456058E+02 -0.35842792718E+03  0.38526060942E+03  0.12508665915E+03 0.  0.
         24    2    1    2    0    0 -0.40616948388E+01  0.53448357509E+02  0.89505958964E+02  0.13160997979E+03  0.80228709361E+02 0.  0.
        -13    1    5    5    0    0  0.36393045097E+02  0.30144441852E+02  0.60023123537E+02  0.76393170278E+02  0.00000000000E+00 0.  1.
         14    1    5    5    0    0 -0.40454739936E+02  0.23303915657E+02  0.29482835427E+02  0.55216809515E+02  0.00000000000E+00 0. -1.
         11    1    3    3    0    0  0.51904128998E+01  0.18354043643E+02 -0.11288744277E+04  0.11290355551E+04  0.00000000000E+00 0. -1.
        -12    1    3    3    0    0 -0.21449189726E+02 -0.93879450936E+01 -0.10272911748E+03  0.10536352704E+03  0.00000000000E+00 0.  1.
          5    1    4    4  501    0  0.52655839082E+01 -0.92622505719E+02 -0.16928386235E+03  0.19308328097E+03  0.41800000000E+01 0. -1.
         -5    1    4    4    0  501  0.15054887757E+02  0.30208049661E+02 -0.18914406483E+03  0.19217732845E+03  0.41800000000E+01 0. -1.
</event>
<event>
11    1  0.6455215E-009  0.1551384E+03  0.7561462E-02  0.1091741E+00
         22   -1    0    0    0    0  0.00000000000E+00  0.00000000000E+00  0.13191678553E+04  0.13191678553E+04  0.00000000000E+00 0. -1.
         22   -1    0    0    0    0 -0.00000000000E+00 -0.00000000000E+00 -0.15992692564E+04  0.15992692564E+04  0.00000000000E+00 0. -1.
        -24    2    1    2    0    0 -0.16054991942E+02  0.91178053898E+02 -0.11366871569E+04  0.11433603898E+04  0.81511275812E+02 0.  0.
         25    2    1    2    0    0 -0.29191145423E+02 -0.92753615766E+02 -0.44395536687E+03  0.47137886588E+03  0.12508521583E+03 0.  0.
         24    2    1    2    0    0  0.45246137365E+02  0.15755618677E+01  0.13005411227E+04  0.13036978559E+04  0.78556938172E+02 0.  0.
        -13    1    5    5    0    0  0.32444289014E+02  0.37964458831E+02  0.86998662595E+03  0.87141876348E+03  0.00000000000E+00 0.  1.
         14    1    5    5    0    0  0.12801848351E+02 -0.36388896963E+02  0.43055449671E+03  0.43227909247E+03  0.00000000000E+00 0. -1.
         13    1    3    3    0    0 -0.35713652670E+02  0.46746462344E+02 -0.88951910979E+03  0.89146225013E+03  0.00000000000E+00 0. -1.
        -14    1    3    3    0    0  0.19658660727E+02  0.44431591554E+02 -0.24716804712E+03  0.25189813971E+03  0.00000000000E+00 0.  1.
          5    1    4    4  501    0 -0.44745878664E+02 -0.11855693945E+03 -0.33270119961E+03  0.35604143322E+03  0.41800000000E+01 0.  1.
         -5    1    4    4    0  501  0.15554733241E+02  0.25803323688E+02 -0.11125416726E+03  0.11533743266E+03  0.41800000000E+01 0.  1.
</event>
<event>
11    1  0.6455215E-009  0.1529775E+03  0.7561462E-02  0.1093875E+00
         22   -1    0    0    0    0  0.00000000000E+00  0.00000000000E+00  0.40146985882E+03  0.40146985882E+03  0.00000000000E+00 0.  1.
         22   -1    0    0    0    0 -0.00000000000E+00 -0.00000000000E+00 -0.16259616825E+03  0.16259616825E+03  0.00000000000E+00 0. -1.
         24    2    1    2    0    0  0.18776941503E+02 -0.54129882236E+02 -0.86757658200E+02  0.13197708282E+03  0.81292320976E+02 0.  0.
         25    2    1    2    0    0  0.75196478811E+02  0.26046411004E+02  0.12201441804E+03  0.19200997418E+03  0.12508951205E+03 0.  0.
        -24    2    1    2    0    0 -0.93973420314E+02  0.28083471232E+02  0.20361693074E+03  0.24007897007E+03  0.80983778041E+02 0.  0.
        -13    1    3    3    0    0  0.19009960628E+02 -0.38395466420E+02  0.96453077127E+00  0.42854646940E+02  0.00000000000E+00 0.  1.
         14    1    3    3    0    0 -0.23301912443E+00 -0.15734415815E+02 -0.87722188971E+02  0.89122435878E+02  0.00000000000E+00 0. -1.
         11    1    5    5    0    0 -0.38009684276E+02  0.40061762551E+01  0.13654389445E+02  0.40586055464E+02  0.00000000000E+00 0. -1.
        -12    1    5    5    0    0 -0.55963736038E+02  0.24077294977E+02  0.18996254129E+03  0.19949291461E+03  0.00000000000E+00 0.  1.
          5    1    4    4  501    0  0.10315287816E+03 -0.30240910664E+01  0.64950429334E+02  0.12200693452E+03  0.41800000000E+01 0. -1.
         -5    1    4    4    0  501 -0.27956399352E+02  0.29070502070E+02  0.57063988704E+02  0.70003039664E+02  0.41800000000E+01 0. -1.
</event>
<event>
11    1  0.6455215E-009  0.1791715E+03  0.7561462E-02  0.1070315E+00
         22   -1    0    0    0    0  0.00000000000E+00  0.00000000000E+00  0.10125425872E+04  0.10125425872E+04  0.00000000000E+00 0. -1.
         22   -1    0    0    0    0 -0.00000000000E+00 -0.00000000000E+00 -0.46653420273E+03  0.46653420273E+03  0.00000000000E+00 0.  1.
         24    2    1    2    0    0 -0.80929654497E+01 -0.14349047664E+03 -0.32540889883E+03  0.36466693878E+03  0.80224758146E+02 0.  0.
         25    2    1    2    0    0  0.29715543555E+02  0.86445903539E+02 -0.68403880819E+02  0.16934205994E+03  0.12506692042E+03 0.  0.
        -24    2    1    2    0    0 -0.21622578106E+02  0.57044573105E+02  0.93982116410E+03  0.94506779119E+03  0.78534643631E+02 0.  0.
        -11    1    3    3    0    0 -0.12963379417E+02 -0.65827150047E+02 -0.23965727023E+03  0.24887119171E+03  0.00000000000E+00 0.  1.
         12    1    3    3    0    0  0.48704139668E+01 -0.77663326597E+02 -0.85751628598E+02  0.11579574706E+03  0.00000000000E+00 0. -1.
         13    1    5    5    0    0  0.15862201938E+02  0.45884338906E+02  0.73134849816E+03  0.73295812143E+03  0.00000000000E+00 0. -1.
        -14    1    5    5    0    0 -0.37484780044E+02  0.11160234200E+02  0.20847266594E+03  0.21210966976E+03  0.00000000000E+00 0.  1.
          5    1    4    4  501    0 -0.32688970294E+02  0.18185844486E+02 -0.66884900113E+02  0.76748654592E+02  0.41800000000E+01 0. -1.
         -5    1    4    4    0  501  0.62404513850E+02  0.68260059053E+02 -0.15189807060E+01  0.92593405343E+02  0.41800000000E+01 0. -1.
</event>
<event>
11    1  0.7339235E-009  0.1961287E+03  0.7561462E-02  0.1057296E+00
         22   -1    0    0    0    0  0.00000000000E+00  0.00000000000E+00  0.10428194674E+04  0.10428194674E+04  0.00000000000E+00 0.  1.
         22   -1    0    0    0    0 -0.00000000000E+00 -0.00000000000E+00 -0.80334302264E+03  0.80334302264E+03  0.00000000000E+00 0.  1.
        -24    2    1    2    0    0  0.81259413766E+02 -0.61580872197E+02 -0.58648139379E+03  0.60087317246E+03  0.81809828085E+02 0.  0.
         25    2    1    2    0    0 -0.13727846354E+03  0.19847884896E+03 -0.11081658672E+03  0.29354110844E+03  0.12508731516E+03 0.  0.
         24    2    1    2    0    0  0.56019049771E+02 -0.13689797677E+03  0.93677442523E+03  0.95174820909E+03  0.79994623394E+02 0.  0.
        -13    1    5    5    0    0  0.64941580821E+02 -0.75131559794E+02  0.69453799879E+03  0.70160187568E+03  0.00000000000E+00 0.  1.
         14    1    5    5    0    0 -0.89225310508E+01 -0.61766416974E+02  0.24223642643E+03  0.25014633341E+03  0.00000000000E+00 0. -1.
         11    1    3    3    0    0  0.72830239202E+02 -0.25371498797E+02 -0.23278125281E+03  0.24522452641E+03  0.00000000000E+00 0. -1.
        -12    1    3    3    0    0  0.84291745635E+01 -0.36209373400E+02 -0.35370014098E+03  0.35564864605E+03  0.00000000000E+00 0.  1.
          5    1    4    4  501    0 -0.77757952671E+02  0.11025834212E+03 -0.12757018040E+03  0.18572782381E+03  0.41800000000E+01 0.  1.
         -5    1    4    4    0  501 -0.59520510865E+02  0.88220506845E+02  0.16753593674E+02  0.10781328463E+03  0.41800000000E+01 0.  1.
</event>
<event>
11    1  0.6455215E-009  0.1640878E+03  0.7561462E-02  0.1083294E+00
         22   -1    0    0    0    0  0.00000000000E+00  0.00000000000E+00  0.28875086238E+03  0.28875086238E+03  0.00000000000E+00 0. -1.
         22   -1    0    0    0    0 -0.00000000000E+00 -0.00000000000E+00 -0.23763495244E+03  0.23763495244E+03  0.00000000000E+00 0.  1.
         24    2    1    2    0    0  0.73696272760E+01 -0.10182413326E+03 -0.13233561304E+03  0.18033913212E+03  0.67727561409E+02 0.  0.
         25    2    1    2    0    0 -0.53316276816E+02  0.12360768045E+03  0.66538417320E+02  0.19544135322E+03  0.12509387486E+03 0.  0.
        -24    2    1    2    0    0  0.45946649540E+02 -0.21783547197E+02  0.11691310565E+03  0.15060532950E+03  0.80172772598E+02 0.  0.
        -13    1    3    3    0    0  0.25518994362E+02 -0.20309957706E+02 -0.13973179849E+02  0.35481871574E+02  0.00000000000E+00 0.  1.
         14    1    3    3    0    0 -0.18149367086E+02 -0.81514175551E+02 -0.11836243319E+03  0.14485726054E+03  0.00000000000E+00 0. -1.
         11    1    5    5    0    0  0.61729032909E+02 -0.10662474860E+02  0.11531593308E+03  0.13123233708E+03  0.00000000000E+00 0. -1.
        -12    1    5    5    0    0 -0.15782383369E+02 -0.11121072337E+02  0.15971725732E+01  0.19372992411E+02  0.00000000000E+00 0.  1.
          5    1    4    4  501    0  0.35365344014E+02  0.67502527631E+01  0.62350351650E+01  0.36778003387E+02  0.41800000000E+01 0.  1.
         -5    1    4    4    0  501 -0.88681620830E+02  0.11685742769E+03  0.60303382155E+02  0.15866334983E+03  0.41800000000E+01 0.  1.
</event>
<event>
11    1  0.6455215E-009  0.1391744E+03  0.7561462E-02  0.1108484E+00
         22   -1    0    0    0    0  0.00000000000E+00  0.00000000000E+00  0.30406291249E+04  0.30406291249E+04  0.00000000000E+00 0.  1.
         22   -1    0    0    0    0 -0.00000000000E+00 -0.00000000000E+00 -0.65321991221E+02  0.65321991221E+02  0.00000000000E+00 0. -1.
        -24    2    1    2    0    0  0.60048992323E+02 -0.97568348298E+01 -0.86138278881E+00  0.10202308576E+03  0.81895608809E+02 0.  0.
         25    2    1    2    0    0 -0.63160254797E+02 -0.15364263376E+01  0.35380569197E+03  0.38054947153E+03  0.12509138348E+03 0.  0.
         24    2    1    2    0    0  0.31112624744E+01  0.11293261167E+02  0.26223628245E+04  0.26233785589E+04  0.72049024521E+02 0.  0.
        -13    1    5    5    0    0 -0.34919975910E+01  0.25976857087E+02  0.24750105335E+04  0.24751493151E+04  0.00000000000E+00 0.  1.
         14    1    5    5    0    0  0.66032600654E+01 -0.14683595920E+02  0.14735229106E+03  0.14822924379E+03  0.00000000000E+00 0. -1.
         11    1    3    3    0    0  0.68381196597E+02 -0.63458899943E+01 -0.27445186095E+02  0.73956045106E+02  0.00000000000E+00 0. -1.
        -12    1    3    3    0    0 -0.83322042740E+01 -0.34109448356E+01  0.26583803306E+02  0.28067040652E+02  0.00000000000E+00 0.  1.
          5    1    4    4  501    0 -0.15658878453E+02  0.12874227171E+02 -0.24365371075E+01  0.20841192689E+02  0.41800000000E+01 0. -1.
         -5    1    4    4    0  501 -0.47501376345E+02 -0.14410653508E+02  0.35624222907E+03  0.35970827884E+03  0.41800000000E+01 0. -1.
</event>
<event>
11    1  0.6455215E-009  0.1374769E+03  0.7561462E-02  0.1110409E+00
         22   -1    0    0    0    0  0.00000000000E+00  0.00000000000E+00  0.42996551765E+02  0.42996551765E+02  0.00000000000E+00 0. -1.
         22   -1    0    0    0    0 -0.00000000000E+00 -0.00000000000E+00 -0.23675373693E+04  0.23675373693E+04  0.00000000000E+00 0. -1.
        -24    2    1    2    0    0 -0.11265119527E+02  0.57120428923E+02 -0.20449517278E+04  0.20473672967E+04  0.80595485436E+02 0.  0.
         25    2    1    2    0    0 -0.14587392031E+01 -0.42655922655E+02 -0.26435379316E+03  0.29555416905E+03  0.12509070000E+03 0.  0.
         24    2    1    2    0    0  0.12723858730E+02 -0.14464506268E+02 -0.15235296582E+02  0.67612455317E+02  0.62993740400E+02 0.  0.
        -13    1    5    5    0    0  0.22093687939E+02  0.96157746355E+00 -0.34649040483E+02  0.41104886380E+02  0.00000000000E+00 0.  1.
         14    1    5    5    0    0 -0.93698292095E+01 -0.15426083732E+02  0.19413743901E+02  0.26507568937E+02  0.00000000000E+00 0. -1.
         11    1    3    3    0    0  0.45889641596E+01  0.53158752276E+02 -0.19668827229E+04  0.19676063014E+04  0.00000000000E+00 0. -1.
        -12    1    3    3    0    0 -0.15854083686E+02  0.39616766465E+01 -0.78069004862E+02  0.79760995302E+02  0.00000000000E+00 0.  1.
          5    1    4    4  501    0  0.23482627360E+02 -0.72627813586E+02 -0.96128658404E+02  0.12281866495E+03  0.41800000000E+01 0. -1.
         -5    1    4    4    0  501 -0.24941366563E+02  0.29971890931E+02 -0.16822513476E+03  0.17273550410E+03  0.41800000000E+01 0. -1.
</event>
<event>
11    1  0.6455215E-009  0.1392563E+03  0.7561462E-02  0.1108392E+00
         22   -1    0    0    0    0  0.00000000000E+00  0.00000000000E+00  0.10338668500E+04  0.10338668500E+04  0.00000000000E+00 0.  1.
         22   -1    0    0    0    0 -0.00000000000E+00 -0.00000000000E+00 -0.82649829598E+03  0.82649829598E+03  0.00000000000E+00 0. -1.
         24    2    1    2    0    0 -0.38851708596E+02 -0.35036019977E+02 -0.65707784230E+03  0.66401897821E+03  0.80205577255E+02 0.  0.
         25    2    1    2    0    0  0.96089136923E+02  0.14373850074E+02 -0.12505350001E+03  0.20179465619E+03  0.12507188174E+03 0.  0.
        -24    2    1    2    0    0 -0.57237428327E+02  0.20662169903E+02  0.98949989636E+03  0.99455151161E+03  0.79496011782E+02 0.  0.
        -11    1    3    3    0    0  0.11901173718E+02  0.18494420562E+02 -0.14945797292E+03  0.15106742600E+03  0.00000000000E+00 0.  1.
         12    1    3    3    0    0 -0.50752882314E+02 -0.53530440540E+02 -0.50761986938E+03  0.51295155221E+03  0.00000000000E+00 0. -1.
         11    1    5    5    0    0 -0.27107655545E+02  0.63015004223E+01  0.85084148100E+02  0.89520087995E+02  0.00000000000E+00 0. -1.
        -12    1    5    5    0    0 -0.30129772781E+02  0.14360669481E+02  0.90441574826E+03  0.90503142362E+03  0.00000000000E+00 0.  1.
          5    1    4    4  501    0  0.10151012308E+03 -0.17073373963E+02 -0.39406249976E+02  0.11030018188E+03  0.41800000000E+01 0.  1.
         -5    1    4    4    0  501 -0.54209861585E+01  0.31447224038E+02 -0.85647250033E+02  0.91494474307E+02  0.41800000000E+01 0.  1.
</event>
<event>
11    1  0.6455215E-009  0.1532175E+03  0.7561462E-02  0.1093636E+00
         22   -1    0    0    0    0  0.00000000000E+00  0.00000000000E+00  0.21680659033E+04  0.21680659033E+04  0.00000000000E+00 0. -1.
         22   -1    0    0    0    0 -0.00000000000E+00 -0.00000000000E+00 -0.73047730949E+03  0.73047730949E+03  0.00000000000E+00 0.  1.
         24    2    1    2    0    0  0.55289166667E+02 -0.27273420798E+02 -0.71072071886E+03  0.71791914020E+03  0.80518446491E+02 0.  0.
         25    2    1    2    0    0  0.20798997267E+02 -0.31886833125E+02  0.29043470114E+03  0.31851110669E+03  0.12509053140E+03 0.  0.
        -24    2    1    2    0    0 -0.76088163934E+02  0.59160253924E+02  0.18578746116E+04  0.18621129659E+04  0.80481558235E+02 0.  0.
        -13    1    3    3    0    0  0.48013196072E+02  0.18863063241E+02 -0.46014900455E+03  0.46303152002E+03  0.00000000000E+00 0.  1.
         14    1    3    3    0    0  0.72759705947E+01 -0.46136484040E+02 -0.25057171431E+03  0.25488762018E+03  0.00000000000E+00 0. -1.
         13    1    5    5    0    0 -0.90665558638E+02  0.34985532837E+02  0.13998856391E+04  0.14032547999E+04  0.00000000000E+00 0. -1.
        -14    1    5    5    0    0  0.14577394704E+02  0.24174721087E+02  0.45798897249E+03  0.45885816599E+03  0.00000000000E+00 0.  1.
          5    1    4    4  501    0  0.38113250379E+02 -0.63552586094E+02  0.26218676199E+03  0.27249022297E+03  0.41800000000E+01 0.  1.
         -5    1    4    4    0  501 -0.17314253112E+02  0.31665752968E+02  0.28247939148E+02  0.46020883716E+02  0.41800000000E+01 0.  1.
</event>
<event>
11    1  0.6455215E-009  0.2361962E+03  0.7561462E-02  0.1031521E+00
         22   -1    0    0    0    0  0.00000000000E+00  0.00000000000E+00  0.20234988303E+04  0.20234988303E+04  0.00000000000E+00 0. -1.
         22   -1    0    0    0    0 -0.00000000000E+00 -0.00000000000E+00 -0.27832286123E+03  0.27832286123E+03  0.00000000000E+00 0.  1.
        -24    2    1    2    0    0  0.14476071680E+03 -0.10591347868E+03 -0.65335776447E+02  0.20693119748E+03  0.79865053134E+02 0.  0.
         25    2    1    2    0    0 -0.24616817314E+03  0.62103197831E+02  0.39637530554E+01  0.28305749273E+03  0.12510098402E+03 0.  0.
         24    2    1    2    0    0  0.10140745634E+03  0.43810280846E+02  0.18065479924E+04  0.18118330013E+04  0.83188717439E+02 0.  0.
        -13    1    5    5    0    0  0.40164278623E+02  0.18999339070E+02  0.25239953153E+03  0.25628044732E+03  0.00000000000E+00 0.  1.
         14    1    5    5    0    0  0.61243177721E+02  0.24810941776E+02  0.15541484609E+04  0.15555525540E+04  0.00000000000E+00 0. -1.
         13    1    3    3    0    0  0.11893691284E+03 -0.45060238346E+02 -0.59947055366E+02  0.14060605877E+03  0.00000000000E+00 0. -1.
        -14    1    3    3    0    0  0.25823803960E+02 -0.60853240332E+02 -0.53887210805E+01  0.66325138709E+02  0.00000000000E+00 0.  1.
          5    1    4    4  501    0 -0.18049490796E+02 -0.31088647033E+02 -0.44192850465E+01  0.36459437361E+02  0.41800000000E+01 0.  1.
         -5    1    4    4    0  501 -0.22811868235E+03  0.93191844864E+02  0.83830381018E+01  0.24659805537E+03  0.41800000000E+01 0.  1.
</event>
<event>
11    1  0.6455215E-009  0.1394407E+03  0.7561462E-02  0.1108185E+00
         22   -1    0    0    0    0  0.00000000000E+00  0.00000000000E+00  0.83061599753E+02  0.83061599753E+02  0.00000000000E+00 0.  1.
         22   -1    0    0    0    0 -0.00000000000E+00 -0.00000000000E+00 -0.21996931225E+04  0.21996931225E+04  0.00000000000E+00 0.  1.
        -24    2    1    2    0    0 -0.49516740824E+01  0.93449214821E+01 -0.17152810135E+04  0.17171956933E+04  0.80375664128E+02 0.  0.
         25    2    1    2    0    0  0.42465227125E+01  0.52952965185E+02 -0.43771274003E+03  0.45832512759E+03  0.12508968909E+03 0.  0.
         24    2    1    2    0    0  0.70515136987E+00 -0.62297886667E+02  0.36362230730E+02  0.10723390136E+03  0.79343392009E+02 0.  0.
        -11    1    5    5    0    0  0.18536526968E+02 -0.67240444232E+02  0.38868113152E+01  0.69856907137E+02  0.00000000000E+00 0.  1.
         12    1    5    5    0    0 -0.17831375598E+02  0.49425575641E+01  0.32475419415E+02  0.37376994223E+02  0.00000000000E+00 0. -1.
         13    1    3    3    0    0  0.97066657083E+01  0.35412854342E+02 -0.42944798249E+03  0.43101491769E+03  0.00000000000E+00 0. -1.
        -14    1    3    3    0    0 -0.14658339791E+02 -0.26067932860E+02 -0.12858330310E+04  0.12861807756E+04  0.00000000000E+00 0.  1.
          5    1    4    4  501    0  0.62194615816E+02  0.45825912430E+02 -0.25016536520E+03  0.26185562211E+03  0.41800000000E+01 0.  1.
         -5    1    4    4    0  501 -0.57948093104E+02  0.71270527558E+01 -0.18754737483E+03  0.19646950547E+03  0.41800000000E+01 0.  1.
</event>
<event>
11    1  0.6455215E-009  0.1749075E+03  0.7561462E-02  0.1073838E+00
         22   -1    0    0    0    0  0.00000000000E+00  0.00000000000E+00  0.86221067723E+03  0.86221067723E+03  0.00000000000E+00 0. -1.
         22   -1    0    0    0    0 -0.00000000000E+00 -0.00000000000E+00 -0.15751920008E+04  0.15751920008E+04  0.00000000000E+00 0. -1.
        -24    2    1    2    0    0 -0.12236009932E+03  0.10798521417E+02 -0.14574497211E+04  0.14647439774E+04  0.78908984983E+02 0.  0.
         25    2    1    2    0    0  0.11388859299E+03  0.21104006517E+02 -0.46953218808E+02  0.17682881034E+03  0.12509129749E+03 0.  0.
         24    2    1    2    0    0  0.84715063354E+01 -0.31902527934E+02  0.79142161636E+03  0.79582989024E+03  0.76860273526E+02 0.  0.
        -13    1    5    5    0    0  0.61023792404E+01  0.71793935953E+01  0.11242404032E+02  0.14668823171E+02  0.00000000000E+00 0.  1.
         14    1    5    5    0    0  0.23691270949E+01 -0.39081921529E+02  0.78017921233E+03  0.78116106707E+03  0.00000000000E+00 0. -1.
         13    1    3    3    0    0 -0.10209704396E+03  0.11922259666E+02 -0.14008450986E+04  0.14046113117E+04  0.00000000000E+00 0. -1.
        -14    1    3    3    0    0 -0.20263055359E+02 -0.11237382489E+01 -0.56604622467E+02  0.60132665704E+02  0.00000000000E+00 0.  1.
          5    1    4    4  501    0  0.88118622023E+02  0.65993656117E+02 -0.56836585537E+02  0.12396743141E+03  0.41800000000E+01 0. -1.
         -5    1    4    4    0  501  0.25769970965E+02 -0.44889649600E+02  0.98833667289E+01  0.52861378933E+02  0.41800000000E+01 0. -1.
</event>
<event>
11    1  0.6455215E-009  0.2932855E+03  0.7561462E-02  0.1003074E+00
         22   -1    0    0    0    0  0.00000000000E+00  0.00000000000E+00  0.21537325914E+04  0.21537325914E+04  0.00000000000E+00 0.  1.
         22   -1    0    0    0    0 -0.00000000000E+00 -0.00000000000E+00 -0.58990942307E+02  0.58990942307E+02  0.00000000000E+00 0. -1.
         24    2    1    2    0    0  0.17277432464E+02  0.25074741548E+02  0.77096673001E+02  0.11519145570E+03  0.79987012339E+02 0.  0.
         25    2    1    2    0    0  0.15623198085E+03 -0.22084518668E+03  0.99888412038E+03  0.10424025528E+04  0.12511022294E+03 0.  0.
        -24    2    1    2    0    0 -0.17350941331E+03  0.19577044513E+03  0.10187608557E+04  0.10551295252E+04  0.83624458537E+02 0.  0.
        -11    1    3    3    0    0 -0.28520131225E+01  0.45886328605E+01  0.85183002184E+02  0.85354164465E+02  0.00000000000E+00 0.  1.
         12    1    3    3    0    0  0.20129445587E+02  0.20486108688E+02 -0.80863291832E+01  0.29837291239E+02  0.00000000000E+00 0. -1.
         13    1    5    5    0    0 -0.29284695018E+02  0.75329694538E+01  0.21502127241E+03  0.21713702259E+03  0.00000000000E+00 0. -1.
        -14    1    5    5    0    0 -0.14422471830E+03  0.18823747568E+03  0.80373958332E+03  0.83799250260E+03  0.00000000000E+00 0.  1.
          5    1    4    4  501    0  0.35172472866E+02 -0.44567554766E+02  0.44550656022E+03  0.44912908766E+03  0.41800000000E+01 0.  1.
         -5    1    4    4    0  501  0.12105950798E+03 -0.17627763191E+03  0.55337756016E+03  0.59327346517E+03  0.41800000000E+01 0.  1.
</event>
<event>
11    1  0.6455215E-009  0.1338351E+03  0.7561462E-02  0.1114645E+00
         22   -1    0    0    0    0  0.00000000000E+00  0.00000000000E+00  0.29390487586E+03  0.29390487586E+03  0.00000000000E+00 0. -1.
         22   -1    0    0    0    0 -0.00000000000E+00 -0.00000000000E+00 -0.11808026428E+04  0.11808026428E+04  0.00000000000E+00 0.  1.
        -24    2    1    2    0    0  0.30787076290E+02  0.33841419306E+02 -0.84447208067E+03  0.84948793198E+03  0.80022283325E+02 0.  0.
         25    2    1    2    0    0 -0.26568382307E+02 -0.54022761683E+02 -0.31216955733E+03  0.34164759918E+03  0.12509561056E+03 0.  0.
         24    2    1    2    0    0 -0.42186939829E+01  0.20181342377E+02  0.26974387107E+03  0.28357198749E+03  0.85007247633E+02 0.  0.
        -13    1    5    5    0    0 -0.18830190575E+02 -0.53888665795E+01  0.96831309335E+01  0.21849004206E+02  0.00000000000E+00 0.  1.
         14    1    5    5    0    0  0.14611496593E+02  0.25570208956E+02  0.26006074014E+03  0.26172298328E+03  0.00000000000E+00 0. -1.
         13    1    3    3    0    0 -0.18151048992E+02 -0.91799053337E+01 -0.37049558989E+03  0.37105351820E+03  0.00000000000E+00 0. -1.
        -14    1    3    3    0    0  0.48938125282E+02  0.43021324640E+02 -0.47397649078E+03  0.47843441378E+03  0.00000000000E+00 0.  1.
          5    1    4    4  501    0 -0.29080543332E+02 -0.23476914995E+02 -0.30817136382E+03  0.31045757426E+03  0.41800000000E+01 0. -1.
         -5    1    4    4    0  501  0.25121610251E+01 -0.30545846688E+02 -0.39981935123E+01  0.31190024916E+02  0.41800000000E+01 0. -1.
</event>
<event>
11    1  0.7810362E-009  0.1461188E+03  0.7561462E-02  0.1100912E+00
         22   -1    0    0    0    0  0.00000000000E+00  0.00000000000E+00  0.10668609184E+04  0.10668609184E+04  0.00000000000E+00 0. -1.
         22   -1    0    0    0    0 -0.00000000000E+00 -0.00000000000E+00 -0.26040179317E+03  0.26040179317E+03  0.00000000000E+00 0. -1.
        -24    2    1    2    0    0 -0.26171491932E+02 -0.19877932250E+02 -0.15289896648E+03  0.17724464040E+03  0.83411566449E+02 0.  0.
         25    2    1    2    0    0 -0.50172389996E+02  0.16262400145E+02 -0.42097571302E+02  0.14213226935E+03  0.12509053563E+03 0.  0.
         24    2    1    2    0    0  0.76343881928E+02  0.36155321059E+01  0.10014556630E+04  0.10078858019E+04  0.84136104920E+02 0.  0.
        -13    1    5    5    0    0  0.26531454425E+02  0.27290741964E+02  0.15387062367E+03  0.15850826950E+03  0.00000000000E+00 0.  1.
         14    1    5    5    0    0  0.49812427503E+02 -0.23675209858E+02  0.84758503938E+03  0.84937753236E+03  0.00000000000E+00 0. -1.
         11    1    3    3    0    0 -0.16239888380E+02 -0.20898217720E+01 -0.15580724107E+03  0.15666524088E+03  0.00000000000E+00 0. -1.
        -12    1    3    3    0    0 -0.99316035515E+01 -0.17788110478E+02  0.29082745867E+01  0.20579399519E+02  0.00000000000E+00 0.  1.
          5    1    4    4  501    0 -0.67379194473E+02  0.53419699004E+02 -0.50943493551E+02  0.10003165511E+03  0.41800000000E+01 0. -1.
         -5    1    4    4    0  501  0.17206804477E+02 -0.37157298860E+02  0.88459222485E+01  0.42100614239E+02  0.41800000000E+01 0. -1.
</event>
<event>
11    1  0.6455215E-009  0.1635697E+03  0.7561462E-02  0.1083767E+00
         22   -1    0    0    0    0  0.00000000000E+00  0.00000000000E+00  0.15673011217E+03  0.15673011217E+03  0.00000000000E+00 0. -1.
         22   -1    0    0    0    0 -0.00000000000E+00 -0.00000000000E+00 -0.67960408193E+03  0.67960408193E+03  0.00000000000E+00 0. -1.
         24    2    1    2    0    0 -0.16947651519E+02  0.48727921850E+02 -0.50566338826E+03  0.51466010301E+03  0.80733674126E+02 0.  0.
         25    2    1    2    0    0  0.10734419482E+03 -0.80593727885E+02 -0.53548008629E+02  0.19113605152E+03  0.12508987100E+03 0.  0.
        -24    2    1    2    0    0 -0.90396543297E+02  0.31865806034E+02  0.36337427134E+02  0.13053803958E+03  0.80825778890E+02 0.  0.
        -13    1    3    3    0    0 -0.30754463827E+02 -0.34153736804E+01 -0.83215154471E+02  0.88782113943E+02  0.00000000000E+00 0.  1.
         14    1    3    3    0    0  0.13806812308E+02  0.52143295531E+02 -0.42244823379E+03  0.42587798906E+03  0.00000000000E+00 0. -1.
         11    1    5    5    0    0 -0.89125679782E+02 -0.18921380268E+01  0.37557066295E+02  0.96734172926E+02  0.00000000000E+00 0. -1.
        -12    1    5    5    0    0 -0.12708635151E+01  0.33757944061E+02 -0.12196391614E+01  0.33803866657E+02  0.00000000000E+00 0.  1.
          5    1    4    4  501    0 -0.66309765864E+01 -0.65235479598E+02 -0.39544632798E+01  0.65823611483E+02  0.41800000000E+01 0.  1.
         -5    1    4    4    0  501  0.11397517140E+03 -0.15358248287E+02 -0.49593545350E+02  0.12531244003E+03  0.41800000000E+01 0.  1.
</event>
<event>
11    1  0.6455215E-009  0.1301736E+03  0.7561462E-02  0.1119056E+00
         22   -1    0    0    0    0  0.00000000000E+00  0.00000000000E+00  0.26511198670E+04  0.26511198670E+04  0.00000000000E+00 0.  1.
         22   -1    0    0    0    0 -0.00000000000E+00 -0.00000000000E+00 -0.92498962009E+03  0.92498962009E+03  0.00000000000E+00 0.  1.
        -24    2    1    2    0    0 -0.22888581321E+02 -0.28036251828E+02 -0.90839580593E+03  0.91438806734E+03  0.98044270016E+02 0.  0.
         25    2    1    2    0    0  0.40521704382E+02 -0.11053933030E+02  0.33244085464E+03  0.35767043704E+03  0.12508805592E+03 0.  0.
         24    2    1    2    0    0 -0.17633123061E+02  0.39090184857E+02  0.23020851982E+04  0.23040509827E+04  0.84945285689E+02 0.  0.
        -13    1    5    5    0    0 -0.45041301126E+02  0.46300799429E+02  0.18081084816E+04  0.18092619390E+04  0.00000000000E+00 0.  1.
         14    1    5    5    0    0  0.27408178065E+02 -0.72106145713E+01  0.49397671660E+03  0.49478904366E+03  0.00000000000E+00 0. -1.
         11    1    3    3    0    0 -0.25797572677E+02 -0.11314249465E+02 -0.65244853321E+02  0.71066292164E+02  0.00000000000E+00 0. -1.
        -12    1    3    3    0    0  0.29089913561E+01 -0.16722002362E+02 -0.84315095261E+03  0.84332177517E+03  0.00000000000E+00 0.  1.
          5    1    4    4  501    0  0.58007703464E+01 -0.31729654835E+02  0.30911995770E+03  0.31082638334E+03  0.41800000000E+01 0. -1.
         -5    1    4    4    0  501  0.34720934036E+02  0.20675721806E+02  0.23320896939E+02  0.46844053695E+02  0.41800000000E+01 0. -1.
</event>
<event>
11    1  0.6455215E-009  0.1606261E+03  0.7561462E-02  0.1086490E+00
         22   -1    0    0    0    0  0.00000000000E+00  0.00000000000E+00  0.27338212276E+03  0.27338212276E+03  0.00000000000E+00 0. -1.
         22   -1    0    0    0    0 -0.00000000000E+00 -0.00000000000E+00 -0.72313632742E+03  0.72313632742E+03  0.00000000000E+00 0.  1.
         24    2    1    2    0    0 -0.60659266733E+02 -0.79749067459E+02 -0.65435195938E+03  0.66619692955E+03  0.74849193717E+02 0.  0.
         25    2    1    2    0    0  0.81452795665E+02  0.85557927799E+02  0.13171727902E+03  0.21668300736E+03  0.12508943663E+03 0.  0.
        -24    2    1    2    0    0 -0.20793528932E+02 -0.58088603399E+01  0.72880475696E+02  0.11363851326E+03  0.84475051080E+02 0.  0.
        -11    1    3    3    0    0 -0.47904422019E+02 -0.49710512315E+02 -0.59017589353E+03  0.59419992763E+03  0.00000000000E+00 0.  1.
         12    1    3    3    0    0 -0.12754844714E+02 -0.30038555144E+02 -0.64176065846E+02  0.71997001926E+02  0.00000000000E+00 0. -1.
         11    1    5    5    0    0  0.31060497841E+02  0.38814808536E+01  0.42436762066E+02  0.52732335378E+02  0.00000000000E+00 0. -1.
        -12    1    5    5    0    0 -0.51854026772E+02 -0.96903411935E+01  0.30443713630E+02  0.60906177885E+02  0.00000000000E+00 0.  1.
          5    1    4    4  501    0  0.86734900122E+02  0.11011220594E+03  0.12990770556E+03  0.19115733091E+03  0.41800000000E+01 0. -1.
         -5    1    4    4    0  501 -0.52821044570E+01 -0.24554278138E+02  0.18095734548E+01  0.25525676455E+02  0.41800000000E+01 0. -1.
</event>
<event>
11    1  0.6455215E-009  0.1416030E+03  0.7561462E-02  0.1105781E+00
         22   -1    0    0    0    0  0.00000000000E+00  0.00000000000E+00  0.16772452807E+03  0.16772452807E+03  0.00000000000E+00 0. -1.
         22   -1    0    0    0    0 -0.00000000000E+00 -0.00000000000E+00 -0.13994340176E+04  0.13994340176E+04  0.00000000000E+00 0. -1.
        -24    2    1    2    0    0  0.56736482568E+00  0.13834337150E+02 -0.12641841934E+04  0.12683451899E+04  0.10171595245E+03 0.  0.
         25    2    1    2    0    0  0.55815982008E+02 -0.46648175792E+02 -0.63404910857E+02  0.15798532492E+03  0.12509078310E+03 0.  0.
         24    2    1    2    0    0 -0.56383346833E+02  0.32813838642E+02  0.95879614720E+02  0.14082803091E+03  0.79898710659E+02 0.  0.
        -13    1    5    5    0    0 -0.31697134442E+02 -0.20805410466E+02  0.15174257054E+02  0.40839092958E+02  0.00000000000E+00 0.  1.
         14    1    5    5    0    0 -0.24686212392E+02  0.53619249108E+02  0.80705357666E+02  0.99988937954E+02  0.00000000000E+00 0. -1.
         13    1    3    3    0    0  0.50425885674E+02  0.14506391213E+02 -0.69811621298E+03  0.70008531777E+03  0.00000000000E+00 0. -1.
        -14    1    3    3    0    0 -0.49858520849E+02 -0.67205406289E+00 -0.56606798043E+03  0.56825987209E+03  0.00000000000E+00 0.  1.
          5    1    4    4  501    0 -0.36786554842E+02 -0.34555896812E+02 -0.15621277516E+02  0.52998654066E+02  0.41800000000E+01 0.  1.
         -5    1    4    4    0  501  0.92602536850E+02 -0.12092278980E+02 -0.47783633341E+02  0.10498667085E+03  0.41800000000E+01 0.  1.
</event>
<event>
11    1  0.6455215E-009  0.1407646E+03  0.7561462E-02  0.1106708E+00
         22   -1    0    0    0    0  0.00000000000E+00  0.00000000000E+00  0.19361541197E+03  0.19361541197E+03  0.00000000000E+00 0. -1.
         22   -1    0    0    0    0 -0.00000000000E+00 -0.00000000000E+00 -0.41408329645E+04  0.41408329645E+04  0.00000000000E+00 0. -1.
        -24    2    1    2    0    0  0.23879744670E+02  0.39416274065E+02 -0.40214760192E+04  0.40225062259E+04  0.78505285433E+02 0.  0.
         25    2    1    2    0    0  0.40730203096E+02 -0.55650487656E+02 -0.42505526927E+02  0.14902981651E+03  0.12508892905E+03 0.  0.
         24    2    1    2    0    0 -0.64609947766E+02  0.16234213591E+02  0.11676399360E+03  0.16291233401E+03  0.92025014699E+02 0.  0.
        -13    1    5    5    0    0 -0.15296835166E+02 -0.28667575446E+02  0.51619233388E+01  0.32900889055E+02  0.00000000000E+00 0.  1.
         14    1    5    5    0    0 -0.49313112600E+02  0.44901789036E+02  0.11160207026E+03  0.13001144496E+03  0.00000000000E+00 0. -1.
         13    1    3    3    0    0 -0.68160988698E+01  0.23811996674E+02 -0.33910744328E+04  0.33911648853E+04  0.00000000000E+00 0. -1.
        -14    1    3    3    0    0  0.30695843540E+02  0.15604277392E+02 -0.63040158635E+03  0.63134134061E+03  0.00000000000E+00 0.  1.
          5    1    4    4  501    0  0.51458310453E+02 -0.85595794350E+01 -0.74428426890E+02  0.90985093527E+02  0.41800000000E+01 0.  1.
         -5    1    4    4    0  501 -0.10728107357E+02 -0.47090908221E+02  0.31922899963E+02  0.58044722986E+02  0.41800000000E+01 0.  1.
</event>
<event>
11    1  0.6455215E-009  0.2204212E+03  0.7561462E-02  0.1040954E+00
         22   -1    0    0    0    0  0.00000000000E+00  0.00000000000E+00  0.27673737576E+03  0.27673737576E+03  0.00000000000E+00 0.  1.
         22   -1    0    0    0    0 -0.00000000000E+00 -0.00000000000E+00 -0.24004664486E+04  0.24004664486E+04  0.00000000000E+00 0.  1.
         24    2    1    2    0    0 -0.18575299603E+03 -0.22719784078E+02 -0.20811469676E+04  0.20911269322E+04  0.81355893411E+02 0.  0.
         25    2    1    2    0    0  0.12552484513E+03  0.10741008311E+03 -0.25958201479E+03  0.33214964006E+03  0.12508856179E+03 0.  0.
        -24    2    1    2    0    0  0.60228150908E+02 -0.84690299032E+02  0.21699990958E+03  0.25392725213E+03  0.81180118910E+02 0.  0.
        -13    1    3    3    0    0 -0.18554693280E+02 -0.14890299178E+02 -0.61437164224E+03  0.61483210102E+03  0.00000000000E+00 0.  1.
         14    1    3    3    0    0 -0.16719830275E+03 -0.78294849001E+01 -0.14667753254E+04  0.14762948311E+04  0.00000000000E+00 0. -1.
         13    1    5    5    0    0  0.40068306462E+02  0.35814472485E+01  0.82564773481E+02  0.91843550492E+02  0.00000000000E+00 0. -1.
        -14    1    5    5    0    0  0.20159844446E+02 -0.88271746281E+02  0.13443513610E+03  0.16208370164E+03  0.00000000000E+00 0.  1.
          5    1    4    4  501    0  0.13814035396E+03  0.56251946071E+02 -0.15606169767E+03  0.21591610572E+03  0.41800000000E+01 0.  1.
         -5    1    4    4    0  501 -0.12615508837E+02  0.51158137040E+02 -0.10352031712E+03  0.11623353434E+03  0.41800000000E+01 0.  1.
</event>
<event>
11    1  0.6455215E-009  0.1444898E+03  0.7561462E-02  0.1102646E+00
         22   -1    0    0    0    0  0.00000000000E+00  0.00000000000E+00  0.23625101321E+03  0.23625101321E+03  0.00000000000E+00 0.  1.
         22   -1    0    0    0    0 -0.00000000000E+00 -0.00000000000E+00 -0.46358358465E+03  0.46358358465E+03  0.00000000000E+00 0.  1.
         24    2    1    2    0    0  0.34155533532E+02 -0.96148535471E+01 -0.37760702443E+03  0.38765205695E+03  0.80174849429E+02 0.  0.
         25    2    1    2    0    0 -0.47182279970E+02 -0.61780734170E+02  0.34131801947E+02  0.15118027543E+03  0.12508984419E+03 0.  0.
        -24    2    1    2    0    0  0.13026746438E+02  0.71395587717E+02  0.11614265104E+03  0.16100226548E+03  0.84649796389E+02 0.  0.
        -11    1    3    3    0    0  0.60086477373E+02 -0.99338227508E+00 -0.27285150669E+03  0.27939097386E+03  0.00000000000E+00 0.  1.
         12    1    3    3    0    0 -0.25930943841E+02 -0.86214712720E+01 -0.10475551775E+03  0.10826108310E+03  0.00000000000E+00 0. -1.
         11    1    5    5    0    0  0.39180986591E+01 -0.20350838535E+01  0.77313590654E+02  0.77439552964E+02  0.00000000000E+00 0. -1.
        -12    1    5    5    0    0  0.91086477792E+01  0.73430671570E+02  0.38829060390E+02  0.83562712512E+02  0.00000000000E+00 0.  1.
          5    1    4    4  501    0 -0.16112770014E+02  0.17344427720E+02 -0.34359543185E+02  0.41934486265E+02  0.41800000000E+01 0.  1.
         -5    1    4    4    0  501 -0.31069509956E+02 -0.79125161890E+02  0.68491345131E+02  0.10924578917E+03  0.41800000000E+01 0.  1.
</event>
<event>
11    1  0.6455215E-009  0.1332122E+03  0.7561462E-02  0.1115384E+00
         22   -1    0    0    0    0  0.00000000000E+00  0.00000000000E+00  0.24613449978E+03  0.24613449978E+03  0.00000000000E+00 0.  1.
         22   -1    0    0    0    0 -0.00000000000E+00 -0.00000000000E+00 -0.24913333969E+04  0.24913333969E+04  0.00000000000E+00 0.  1.
         24    2    1    2    0    0  0.53868011198E+02  0.64751931784E+01 -0.21716977687E+04  0.21731998721E+04  0.59856451758E+02 0.  0.
         25    2    1    2    0    0 -0.95068426047E+02  0.99859362843E+01 -0.28946935393E+03  0.32951521846E+03  0.12510015097E+03 0.  0.
        -24    2    1    2    0    0  0.41200414849E+02 -0.16461129463E+02  0.21596822553E+03  0.23475280610E+03  0.80611181391E+02 0.  0.
        -13    1    3    3    0    0  0.57890476298E+02 -0.31196291539E+00 -0.21285261545E+04  0.21293132684E+04  0.00000000000E+00 0.  1.
         14    1    3    3    0    0 -0.40224651003E+01  0.67871560938E+01 -0.43171614177E+02  0.43886603696E+02  0.00000000000E+00 0. -1.
         13    1    5    5    0    0 -0.23703325733E+02 -0.90527165613E+01  0.79585673252E+02  0.83532500950E+02  0.00000000000E+00 0. -1.
        -14    1    5    5    0    0  0.64903740582E+02 -0.74084129014E+01  0.13638255228E+03  0.15122030515E+03  0.00000000000E+00 0.  1.
          5    1    4    4  501    0 -0.45835389039E+02  0.38225104721E+02 -0.36194799253E+02  0.69925513314E+02  0.41800000000E+01 0. -1.
         -5    1    4    4    0  501 -0.49233037009E+02 -0.28239168436E+02 -0.25327455468E+03  0.25958970514E+03  0.41800000000E+01 0. -1.
</event>
<event>
11    1  0.6455215E-009  0.2547791E+03  0.7561462E-02  0.1021384E+00
         22   -1    0    0    0    0  0.00000000000E+00  0.00000000000E+00  0.55857781418E+03  0.55857781418E+03  0.00000000000E+00 0. -1.
         22   -1    0    0    0    0 -0.00000000000E+00 -0.00000000000E+00 -0.25751509354E+04  0.25751509354E+04  0.00000000000E+00 0.  1.
        -24    2    1    2    0    0 -0.26102117021E+02  0.24866882186E+03 -0.18480057021E+04  0.18665659560E+04  0.80161647073E+02 0.  0.
         25    2    1    2    0    0 -0.41231189493E+02 -0.17375334254E+03 -0.69337362078E+03  0.72684602813E+03  0.12509170864E+03 0.  0.
         24    2    1    2    0    0  0.67333306514E+02 -0.74915479320E+02  0.52480620168E+03  0.54031676543E+03  0.79840807052E+02 0.  0.
        -11    1    5    5    0    0  0.22352336681E+02 -0.79205322905E+02  0.37052748057E+03  0.37955727366E+03  0.00000000000E+00 0.  1.
         12    1    5    5    0    0  0.44980969833E+02  0.42898435852E+01  0.15427872111E+03  0.16075949177E+03  0.00000000000E+00 0. -1.
         11    1    3    3    0    0 -0.50391234660E+01  0.67291933726E+02 -0.28250717774E+03  0.29045464807E+03  0.00000000000E+00 0. -1.
        -12    1    3    3    0    0 -0.21062993555E+02  0.18137688814E+03 -0.15654985244E+04  0.15761113080E+04  0.00000000000E+00 0.  1.
          5    1    4    4  501    0 -0.67952298824E+02 -0.11424174086E+03 -0.30107941180E+03  0.32914278798E+03  0.41800000000E+01 0.  1.
         -5    1    4    4    0  501  0.26721109331E+02 -0.59511601683E+02 -0.39229420899E+03  0.39770324015E+03  0.41800000000E+01 0.  1.
</event>
<event>
11    1  0.6455215E-009  0.1511373E+03  0.7561462E-02  0.1095722E+00
         22   -1    0    0    0    0  0.00000000000E+00  0.00000000000E+00  0.75166314140E+02  0.75166314140E+02  0.00000000000E+00 0. -1.
         22   -1    0    0    0    0 -0.00000000000E+00 -0.00000000000E+00 -0.64559516730E+03  0.64559516730E+03  0.00000000000E+00 0. -1.
         24    2    1    2    0    0 -0.43773263449E+02  0.97621809637E+01 -0.37053560381E+03  0.38148103202E+03  0.78865362024E+02 0.  0.
         25    2    1    2    0    0  0.10996045985E+03  0.10164043587E+02 -0.12199600282E+03  0.20670196482E+03  0.12509223415E+03 0.  0.
        -24    2    1    2    0    0 -0.66187196399E+02 -0.19926224551E+02 -0.77897246525E+02  0.13257848460E+03  0.82044342708E+02 0.  0.
        -11    1    3    3    0    0  0.99445162064E+01 -0.24517590831E+02 -0.12864731926E+03  0.13133978230E+03  0.00000000000E+00 0.  1.
         12    1    3    3    0    0 -0.53717779655E+02  0.34279771794E+02 -0.24188828455E+03  0.25014124972E+03  0.00000000000E+00 0. -1.
         13    1    5    5    0    0 -0.84247191887E+02 -0.74059030127E+01 -0.67800905906E+02  0.10839464739E+03  0.00000000000E+00 0. -1.
        -14    1    5    5    0    0  0.18059995488E+02 -0.12520321538E+02 -0.10096340618E+02  0.24183837213E+02  0.00000000000E+00 0.  1.
          5    1    4    4  501    0  0.11591243197E+03 -0.69123257052E+01 -0.40392444388E+02  0.12301420282E+03  0.41800000000E+01 0. -1.
         -5    1    4    4    0  501 -0.59519721194E+01  0.17076369292E+02 -0.81603558436E+02  0.83687762007E+02  0.41800000000E+01 0. -1.
</event>
<event>
11    1  0.6455215E-009  0.2084069E+03  0.7561462E-02  0.1048733E+00
         22   -1    0    0    0    0  0.00000000000E+00  0.00000000000E+00  0.61225410822E+03  0.61225410822E+03  0.00000000000E+00 0.  1.
         22   -1    0    0    0    0 -0.00000000000E+00 -0.00000000000E+00 -0.10600306801E+04  0.10600306801E+04  0.00000000000E+00 0.  1.
        -24    2    1    2    0    0 -0.10082031407E+03 -0.13169675445E+03 -0.99724880007E+03  0.10141419826E+04  0.80436439683E+02 0.  0.
         25    2    1    2    0    0  0.13113610057E+03  0.14356885203E+03  0.22557892759E+03  0.32302052035E+03  0.12509081440E+03 0.  0.
         24    2    1    2    0    0 -0.30315786506E+02 -0.11872097576E+02  0.32389330058E+03  0.33512228536E+03  0.79624634183E+02 0.  0.
        -11    1    5    5    0    0 -0.46847210513E+02  0.17185903942E+02  0.15115692106E+03  0.15918049884E+03  0.00000000000E+00 0.  1.
         12    1    5    5    0    0  0.16531424007E+02 -0.29058001518E+02  0.17273637952E+03  0.17594178652E+03  0.00000000000E+00 0. -1.
         13    1    3    3    0    0 -0.40551406366E+02 -0.24662441131E+01 -0.27083319158E+03  0.27386331734E+03  0.00000000000E+00 0. -1.
        -14    1    3    3    0    0 -0.60268907700E+02 -0.12923051034E+03 -0.72641560848E+03  0.74027866529E+03  0.00000000000E+00 0.  1.
          5    1    4    4  501    0  0.13637903282E+03  0.15203396921E+03  0.16815108106E+03  0.26458614259E+03  0.41800000000E+01 0. -1.
         -5    1    4    4    0  501 -0.52429322476E+01 -0.84651171835E+01  0.57427846526E+02  0.58434377759E+02  0.41800000000E+01 0. -1.
</event>
<event>
11    1  0.8938875E-009  0.1517385E+03  0.7561462E-02  0.1095116E+00
         22   -1    0    0    0    0  0.00000000000E+00  0.00000000000E+00  0.76820844270E+03  0.76820844270E+03  0.00000000000E+00 0.  1.
         22   -1    0    0    0    0 -0.00000000000E+00 -0.00000000000E+00 -0.14324252564E+04  0.14324252564E+04  0.00000000000E+00 0. -1.
         24    2    1    2    0    0  0.87628442772E+01  0.87713361124E+01 -0.70390284703E+03  0.70859217916E+03  0.80435903267E+02 0.  0.
         25    2    1    2    0    0 -0.61509655101E+02 -0.76451414726E+02 -0.71285934628E+03  0.73037331523E+03  0.12509386691E+03 0.  0.
        -24    2    1    2    0    0  0.52746810823E+02  0.67680078614E+02  0.75254537961E+03  0.76166820469E+03  0.80318656442E+02 0.  0.
        -13    1    3    3    0    0 -0.70017695548E+01 -0.20743693246E+02 -0.60839908797E+02  0.64659261431E+02  0.00000000000E+00 0.  1.
         14    1    3    3    0    0  0.15764613832E+02  0.29515029359E+02 -0.64306293823E+03  0.64393291773E+03  0.00000000000E+00 0. -1.
         13    1    5    5    0    0  0.57147911299E+02  0.65869761298E+02  0.41378371831E+03  0.42287311898E+03  0.00000000000E+00 0. -1.
        -14    1    5    5    0    0 -0.44011004756E+01  0.18103173156E+01  0.33876166130E+03  0.33879508571E+03  0.00000000000E+00 0.  1.
          5    1    4    4  501    0 -0.45580822345E+02 -0.10014117460E+03 -0.66816037712E+03  0.67717178630E+03  0.41800000000E+01 0.  1.
         -5    1    4    4    0  501 -0.15928832756E+02  0.23689759878E+02 -0.44698969162E+02  0.53201528927E+02  0.41800000000E+01 0.  1.
</event>
<event>
11    1  0.6455215E-009  0.1941502E+03  0.7561462E-02  0.1058739E+00
         22   -1    0    0    0    0  0.00000000000E+00  0.00000000000E+00  0.14841398994E+04  0.14841398994E+04  0.00000000000E+00 0. -1.
         22   -1    0    0    0    0 -0.00000000000E+00 -0.00000000000E+00 -0.23558388760E+03  0.23558388760E+03  0.00000000000E+00 0. -1.
        -24    2    1    2    0    0  0.13425404971E+03 -0.60328212726E+02 -0.16243885011E+03  0.23447515872E+03  0.83238073734E+02 0.  0.
         25    2    1    2    0    0 -0.17644502392E+03 -0.51982097106E+01  0.30590932778E+03  0.37468366410E+03  0.12508982161E+03 0.  0.
         24    2    1    2    0    0  0.42190974209E+02  0.65526422436E+02  0.11050855342E+04  0.11105649642E+04  0.77889098089E+02 0.  0.
        -11    1    5    5    0    0 -0.18097066768E+02  0.56198330215E+01  0.38762818141E+03  0.38809108901E+03  0.00000000000E+00 0.  1.
         12    1    5    5    0    0  0.60288040977E+02  0.59906589415E+02  0.71745735276E+03  0.72247387522E+03  0.00000000000E+00 0. -1.
         13    1    3    3    0    0  0.68203133925E+02 -0.70781102545E+02 -0.12063975011E+03  0.15561356387E+03  0.00000000000E+00 0. -1.
        -14    1    3    3    0    0  0.66050915783E+02  0.10452889819E+02 -0.41799100001E+02  0.78861594850E+02  0.00000000000E+00 0.  1.
          5    1    4    4  501    0 -0.37626057794E+02 -0.40234850769E+02  0.16400115541E+03  0.17305610309E+03  0.41800000000E+01 0. -1.
         -5    1    4    4    0  501 -0.13881896612E+03  0.35036641058E+02  0.14190817238E+03  0.20162756101E+03  0.41800000000E+01 0. -1.
</event>
<event>
11    1  0.6455215E-009  0.1984479E+03  0.7561462E-02  0.1055627E+00
         22   -1    0    0    0    0  0.00000000000E+00  0.00000000000E+00  0.91198513328E+03  0.91198513328E+03  0.00000000000E+00 0. -1.
         22   -1    0    0    0    0 -0.00000000000E+00 -0.00000000000E+00 -0.19477826537E+04  0.19477826537E+04  0.00000000000E+00 0. -1.
        -24    2    1    2    0    0 -0.11707546908E+03  0.10206296638E+03 -0.18813888413E+04  0.18895140221E+04  0.80720214330E+02 0.  0.
         25    2    1    2    0    0  0.10082952380E+03 -0.60714631996E+02  0.63843131859E+02  0.18323401607E+03  0.12508357106E+03 0.  0.
         24    2    1    2    0    0  0.16245945276E+02 -0.41348334385E+02  0.78174818894E+03  0.78701974889E+03  0.79348842042E+02 0.  0.
        -11    1    5    5    0    0  0.23818231421E+02  0.18763780839E+02  0.25127273489E+03  0.25309558455E+03  0.00000000000E+00 0.  1.
         12    1    5    5    0    0 -0.75722861446E+01 -0.60112115224E+02  0.53047545405E+03  0.53392416433E+03  0.00000000000E+00 0. -1.
         13    1    3    3    0    0 -0.47207656427E+02  0.19468458920E+02 -0.10321499306E+04  0.10334123393E+04  0.00000000000E+00 0. -1.
        -14    1    3    3    0    0 -0.69867812651E+02  0.82594507460E+02 -0.84923891062E+03  0.85610168276E+03  0.00000000000E+00 0.  1.
          5    1    4    4  501    0  0.64436031070E+01 -0.56078063950E+02 -0.16681789944E+02  0.59008675575E+02  0.41800000000E+01 0. -1.
         -5    1    4    4    0  501  0.94385920694E+02 -0.46365680453E+01  0.80524921803E+02  0.12422534049E+03  0.41800000000E+01 0. -1.
</event>
<event>
11    1  0.7231646E-009  0.1591850E+03  0.7561462E-02  0.1087846E+00
         22   -1    0    0    0    0  0.00000000000E+00  0.00000000000E+00  0.45364585172E+03  0.45364585172E+03  0.00000000000E+00 0. -1.
         22   -1    0    0    0    0 -0.00000000000E+00 -0.00000000000E+00 -0.31240110034E+03  0.31240110034E+03  0.00000000000E+00 0. -1.
        -24    2    1    2    0    0  0.18879953669E-01 -0.38896778242E+02 -0.18403206262E+03  0.20440306317E+03  0.79999077779E+02 0.  0.
         25    2    1    2    0    0 -0.53274191389E+02 -0.47622893851E+02 -0.58325376828E+02  0.15542222601E+03  0.12509252283E+03 0.  0.
         24    2    1    2    0    0  0.53255311435E+02  0.86519672093E+02  0.38360219083E+03  0.40622166289E+03  0.86853996662E+02 0.  0.
        -13    1    5    5    0    0 -0.16404258027E+02 -0.48150380511E+01  0.75289206739E+02  0.77205886590E+02  0.00000000000E+00 0.  1.
         14    1    5    5    0    0  0.69659569462E+02  0.91334710144E+02  0.30831298409E+03  0.32901577630E+03  0.00000000000E+00 0. -1.
         11    1    3    3    0    0 -0.28367922172E+01  0.13137828316E+02 -0.12475003019E+03  0.12547198872E+03  0.00000000000E+00 0. -1.
        -12    1    3    3    0    0  0.28556721709E+01 -0.52034606558E+02 -0.59282032438E+02  0.78931074446E+02  0.00000000000E+00 0.  1.
          5    1    4    4  501    0 -0.74695210941E+02 -0.11366094159E+02  0.86853797010E+01  0.76167387080E+02  0.41800000000E+01 0.  1.
         -5    1    4    4    0  501  0.21421019553E+02 -0.36256799692E+02 -0.67010756529E+02  0.79254838926E+02  0.41800000000E+01 0.  1.
</event>
<event>
11    1  0.6455215E-009  0.1456813E+03  0.7561462E-02  0.1101375E+00
         22   -1    0    0    0    0  0.00000000000E+00  0.00000000000E+00  0.49580956421E+03  0.49580956421E+03  0.00000000000E+00 0.  1.
         22   -1    0    0    0    0 -0.00000000000E+00 -0.00000000000E+00 -0.35410693484E+03  0.35410693484E+03  0.00000000000E+00 0.  1.
         24    2    1    2    0    0  0.32514649452E+02  0.45695786340E+02 -0.30712831812E+03  0.32224345685E+03  0.79798085008E+02 0.  0.
         25    2    1    2    0    0 -0.96568663712E+02 -0.50503334059E+02  0.20899844246E+03  0.26684038678E+03  0.12508936607E+03 0.  0.
        -24    2    1    2    0    0  0.64054014260E+02  0.48075477183E+01  0.23983250503E+03  0.26083265542E+03  0.79925054958E+02 0.  0.
        -11    1    3    3    0    0  0.29965795890E+02  0.60696852154E+02 -0.29533250613E+03  0.30299066976E+03  0.00000000000E+00 0.  1.
         12    1    3    3    0    0  0.25488535623E+01 -0.15001065814E+02 -0.11795811985E+02  0.19252787082E+02  0.00000000000E+00 0. -1.
         13    1    5    5    0    0  0.55499360051E+02 -0.75973372778E+01  0.66945935133E+02  0.87290645150E+02  0.00000000000E+00 0. -1.
        -14    1    5    5    0    0  0.85546542091E+01  0.12404884996E+02  0.17288656989E+03  0.17354201027E+03  0.00000000000E+00 0.  1.
          5    1    4    4  501    0  0.28359502267E+02 -0.31840157651E+01  0.60679212047E+02  0.67185106235E+02  0.41800000000E+01 0.  1.
         -5    1    4    4    0  501 -0.12492816598E+03 -0.47319318293E+02  0.14831923042E+03  0.19965528055E+03  0.41800000000E+01 0.  1.
</event>
<event>
11    1  0.6455215E-009  0.2176103E+03  0.7561462E-02  0.1042725E+00
         22   -1    0    0    0    0  0.00000000000E+00  0.00000000000E+00  0.89653643834E+03  0.89653643834E+03  0.00000000000E+00 0.  1.
         22   -1    0    0    0    0 -0.00000000000E+00 -0.00000000000E+00 -0.82797185984E+03  0.82797185984E+03  0.00000000000E+00 0. -1.
         24    2    1    2    0    0 -0.85418033807E+02  0.15737839376E+03 -0.71916621265E+03  0.74531424195E+03  0.78924511501E+02 0.  0.
         25    2    1    2    0    0  0.46999278305E+02 -0.16603729073E+03  0.28885333893E+02  0.21507840422E+03  0.12508814242E+03 0.  0.
        -24    2    1    2    0    0  0.38418755502E+02  0.86588969673E+01  0.75884545725E+03  0.76411565202E+03  0.80469400354E+02 0.  0.
        -11    1    3    3    0    0  0.11271678373E+02  0.86262003265E+01 -0.10765359622E+03  0.10858526071E+03  0.00000000000E+00 0.  1.
         12    1    3    3    0    0 -0.96689712181E+02  0.14875219344E+03 -0.61151261643E+03  0.63672898124E+03  0.00000000000E+00 0. -1.
         13    1    5    5    0    0  0.72459049585E+00  0.30215382467E+02  0.11829413175E+03  0.12209420943E+03  0.00000000000E+00 0. -1.
        -14    1    5    5    0    0  0.37694165006E+02 -0.21556485500E+02  0.64055132550E+03  0.64202144259E+03  0.00000000000E+00 0.  1.
          5    1    4    4  501    0  0.72178473918E+02 -0.17168682486E+03  0.19515535078E+02  0.18730837258E+03  0.41800000000E+01 0.  1.
         -5    1    4    4    0  501 -0.25179195613E+02  0.56495341303E+01  0.93697988148E+01  0.27770031642E+02  0.41800000000E+01 0.  1.
</event>
<event>
11    1  0.6455215E-009  0.1529393E+03  0.7561462E-02  0.1093913E+00
         22   -1    0    0    0    0  0.00000000000E+00  0.00000000000E+00  0.12681990054E+03  0.12681990054E+03  0.00000000000E+00 0. -1.
         22   -1    0    0    0    0 -0.00000000000E+00 -0.00000000000E+00 -0.73019722966E+03  0.73019722966E+03  0.00000000000E+00 0.  1.
        -24    2    1    2    0    0  0.46954915434E+02 -0.80848921886E+02 -0.58358443378E+03  0.59661739188E+03  0.81487475734E+02 0.  0.
         25    2    1    2    0    0 -0.27472448239E+02  0.46287063393E+02 -0.73840464719E+02  0.15490638402E+03  0.12508535458E+03 0.  0.
         24    2    1    2    0    0 -0.19482467195E+02  0.34561858494E+02  0.54047569374E+02  0.10549335430E+03  0.81447034669E+02 0.  0.
        -11    1    5    5    0    0 -0.10956566086E+02  0.18046957807E+02 -0.20040596061E+02  0.29109526224E+02  0.00000000000E+00 0.  1.
         12    1    5    5    0    0 -0.85259011094E+01  0.16514900687E+02  0.74088165436E+02  0.76383828079E+02  0.00000000000E+00 0. -1.
         13    1    3    3    0    0  0.20701917518E+02 -0.23696291896E+02 -0.48264695691E+02  0.57615661835E+02  0.00000000000E+00 0. -1.
        -14    1    3    3    0    0  0.26252997916E+02 -0.57152629990E+02 -0.53531973808E+03  0.53900173005E+03  0.00000000000E+00 0.  1.
          5    1    4    4  501    0  0.47668867355E+01  0.74219506464E+02 -0.82528023917E+02  0.11117376255E+03  0.41800000000E+01 0. -1.
         -5    1    4    4    0  501 -0.32239334974E+02 -0.27932443072E+02  0.86875591972E+01  0.43732621467E+02  0.41800000000E+01 0. -1.
</event>
<event>
11    1  0.6455215E-009  0.1302359E+03  0.7561462E-02  0.1118979E+00
         22   -1    0    0    0    0  0.00000000000E+00  0.00000000000E+00  0.13520022617E+03  0.13520022617E+03  0.00000000000E+00 0.  1.
         22   -1    0    0    0    0 -0.00000000000E+00 -0.00000000000E+00 -0.24338697430E+04  0.24338697430E+04  0.00000000000E+00 0.  1.
         24    2    1    2    0    0  0.27859159067E+02 -0.24545807981E+02 -0.23000578374E+04  0.23019408384E+04  0.85363568097E+02 0.  0.
         25    2    1    2    0    0 -0.15636423809E+02 -0.13035551335E+02 -0.77592958383E+02  0.14860032444E+03  0.12508783269E+03 0.  0.
        -24    2    1    2    0    0 -0.12222735258E+02  0.37581359317E+02  0.78981278973E+02  0.11852880629E+03  0.79052398233E+02 0.  0.
        -11    1    3    3    0    0  0.46993485121E+02 -0.25839000777E+02 -0.21491848582E+04  0.21498538547E+04  0.00000000000E+00 0.  1.
         12    1    3    3    0    0 -0.19134326054E+02  0.12931927954E+01 -0.15087297915E+03  0.15208698373E+03  0.00000000000E+00 0. -1.
         11    1    5    5    0    0 -0.37740132178E+02  0.11971151918E+02  0.10296196304E+02  0.40910117494E+02  0.00000000000E+00 0. -1.
        -12    1    5    5    0    0  0.25517396920E+02  0.25610207399E+02  0.68685082669E+02  0.77618688792E+02  0.00000000000E+00 0.  1.
          5    1    4    4  501    0 -0.66216827233E+02 -0.29740509548E+02 -0.37574981701E+02  0.81844473037E+02  0.41800000000E+01 0. -1.
         -5    1    4    4    0  501  0.50580403424E+02  0.16704958213E+02 -0.40017976682E+02  0.66755851407E+02  0.41800000000E+01 0. -1.
</event>
<event>
11    1  0.6455215E-009  0.1472751E+03  0.7561462E-02  0.1099696E+00
         22   -1    0    0    0    0  0.00000000000E+00  0.00000000000E+00  0.51531480712E+03  0.51531480712E+03  0.00000000000E+00 0.  1.
         22   -1    0    0    0    0 -0.00000000000E+00 -0.00000000000E+00 -0.13313372785E+03  0.13313372785E+03  0.00000000000E+00 0. -1.
         24    2    1    2    0    0 -0.61142682429E+01 -0.35316225082E+02 -0.78712201486E+02  0.11788954760E+03  0.80110640616E+02 0.  0.
         25    2    1    2    0    0  0.13683373107E+02  0.99278814525E+02  0.27183948113E+03  0.31557514278E+03  0.12508976587E+03 0.  0.
        -24    2    1    2    0    0 -0.75691048643E+01 -0.63962589442E+02  0.18905379962E+03  0.21498384460E+03  0.79550047706E+02 0.  0.
        -13    1    3    3    0    0  0.15385855131E+02  0.21046948791E+02 -0.33777007172E+02  0.42668311486E+02  0.00000000000E+00 0.  1.
         14    1    3    3    0    0 -0.21500123374E+02 -0.56363173874E+02 -0.44935194313E+02  0.75221236112E+02  0.00000000000E+00 0. -1.
         11    1    5    5    0    0 -0.11053083551E+02  0.16829535558E+02  0.53208528399E+02  0.56890697109E+02  0.00000000000E+00 0. -1.
        -12    1    5    5    0    0  0.34839786863E+01 -0.80792125000E+02  0.13584527122E+03  0.15809314749E+03  0.00000000000E+00 0.  1.
          5    1    4    4  501    0 -0.45380479728E+02  0.86471035688E+02  0.19096738355E+03  0.21452888368E+03  0.41800000000E+01 0. -1.
         -5    1    4    4    0  501  0.59063852835E+02  0.12807778837E+02  0.80872097581E+02  0.10104625910E+03  0.41800000000E+01 0. -1.
</event>
<event>
11    1  0.6455215E-009  0.1396571E+03  0.7561462E-02  0.1107942E+00
         22   -1    0    0    0    0  0.00000000000E+00  0.00000000000E+00  0.18415934752E+04  0.18415934752E+04  0.00000000000E+00 0. -1.
         22   -1    0    0    0    0 -0.00000000000E+00 -0.00000000000E+00 -0.20552749758E+03  0.20552749758E+03  0.00000000000E+00 0.  1.
         24    2    1    2    0    0  0.67755076075E+02  0.32268369207E+01 -0.14257363040E+03  0.17754715736E+03  0.81207082140E+02 0.  0.
         25    2    1    2    0    0 -0.27429868388E+02 -0.30803055198E+02  0.53979302216E+02  0.14234713077E+03  0.12509082572E+03 0.  0.
        -24    2    1    2    0    0 -0.40325207687E+02  0.27576218277E+02  0.17246603058E+04  0.17272266847E+04  0.80450479175E+02 0.  0.
        -11    1    3    3    0    0  0.77126115173E+02 -0.20672111482E+02 -0.10203586138E+03  0.12956500624E+03  0.00000000000E+00 0.  1.
         12    1    3    3    0    0 -0.93710390985E+01  0.23898948403E+02 -0.40537769018E+02  0.47982151114E+02  0.00000000000E+00 0. -1.
         13    1    5    5    0    0 -0.65303743590E+01  0.14490938337E+02  0.14611113818E+04  0.14611978316E+04  0.00000000000E+00 0. -1.
        -14    1    5    5    0    0 -0.33794833328E+02  0.13085279940E+02  0.26354892403E+03  0.26602885307E+03  0.00000000000E+00 0.  1.
          5    1    4    4  501    0  0.27119126364E+01 -0.59228503330E+02  0.75003431991E+02  0.95699306619E+02  0.41800000000E+01 0. -1.
         -5    1    4    4    0  501 -0.30141781024E+02  0.28425448132E+02 -0.21024129775E+02  0.46647824147E+02  0.41800000000E+01 0. -1.
</event>
<event>
11    1  0.6455215E-009  0.1782850E+03  0.7561462E-02  0.1071039E+00
         22   -1    0    0    0    0  0.00000000000E+00  0.00000000000E+00  0.13509831117E+04  0.13509831117E+04  0.00000000000E+00 0.  1.
         22   -1    0    0    0    0 -0.00000000000E+00 -0.00000000000E+00 -0.17414198317E+03  0.17414198317E+03  0.00000000000E+00 0.  1.
        -24    2    1    2    0    0 -0.45784238557E+02  0.88390337716E+01 -0.12709790890E+03  0.16030143133E+03  0.85839066996E+02 0.  0.
         25    2    1    2    0    0  0.82378474094E+02 -0.12595245918E+03  0.36162845309E+03  0.41118385645E+03  0.12508713265E+03 0.  0.
         24    2    1    2    0    0 -0.36594235537E+02  0.11711342541E+03  0.94231058437E+03  0.95363980711E+03  0.80155797030E+02 0.  0.
        -13    1    5    5    0    0 -0.58701711680E+02  0.80107540717E+02  0.75066535280E+03  0.75720643217E+03  0.00000000000E+00 0.  1.
         14    1    5    5    0    0  0.22107476143E+02  0.37005884696E+02  0.19164523158E+03  0.19643337494E+03  0.00000000000E+00 0. -1.
         11    1    3    3    0    0 -0.11671854916E+02  0.62864289486E+01  0.11496616871E+02  0.17547751582E+02  0.00000000000E+00 0. -1.
        -12    1    3    3    0    0 -0.34112383641E+02  0.25526048230E+01 -0.13859452577E+03  0.14275367975E+03  0.00000000000E+00 0.  1.
          5    1    4    4  501    0  0.56303066323E+02 -0.14718122186E+03  0.32544060593E+03  0.36160946853E+03  0.41800000000E+01 0. -1.
         -5    1    4    4    0  501  0.26075407772E+02  0.21228762679E+02  0.36187847159E+02  0.49574387917E+02  0.41800000000E+01 0. -1.
</event>
<event>
11    1  0.6455215E-009  0.1804198E+03  0.7561462E-02  0.1069304E+00
         22   -1    0    0    0    0  0.00000000000E+00  0.00000000000E+00  0.57342706708E+02  0.57342706708E+02  0.00000000000E+00 0.  1.
         22   -1    0    0    0    0 -0.00000000000E+00 -0.00000000000E+00 -0.26755975595E+04  0.26755975595E+04  0.00000000000E+00 0. -1.
         24    2    1    2    0    0  0.12730380306E+03 -0.24536929487E+02 -0.20779861408E+04  0.20835623771E+04  0.79984116970E+02 0.  0.
         25    2    1    2    0    0 -0.10795460023E+03  0.12049536794E+03 -0.44931838956E+03  0.49366796821E+03  0.12509083991E+03 0.  0.
        -24    2    1    2    0    0 -0.19349202827E+02 -0.95958438456E+02 -0.90950322463E+02  0.15570992088E+03  0.79945010738E+02 0.  0.
        -13    1    3    3    0    0 -0.19123181148E+01  0.66600064121E+01 -0.17935511273E+02  0.19227459806E+02  0.00000000000E+00 0.  1.
         14    1    3    3    0    0  0.12921612118E+03 -0.31196935899E+02 -0.20600506295E+04  0.20643349173E+04  0.00000000000E+00 0. -1.
         13    1    5    5    0    0 -0.47553763887E+02 -0.59935284976E+02 -0.37041320680E+02  0.85003872163E+02  0.00000000000E+00 0. -1.
        -14    1    5    5    0    0  0.28204561061E+02 -0.36023153480E+02 -0.53909001782E+02  0.70706048712E+02  0.00000000000E+00 0.  1.
          5    1    4    4  501    0  0.13315231118E+02  0.41124632887E+02 -0.38584951520E+02  0.58093043418E+02  0.41800000000E+01 0.  1.
         -5    1    4    4    0  501 -0.12126983135E+03  0.79370735056E+02 -0.41073343804E+03  0.43557492479E+03  0.41800000000E+01 0.  1.
</event>
<event>
11    1  0.6455215E-009  0.1405710E+03  0.7561462E-02  0.1106922E+00
         22   -1    0    0    0    0  0.00000000000E+00  0.00000000000E+00  0.37344958185E+03  0.37344958185E+03  0.00000000000E+00 0. -1.
         22   -1    0    0    0    0 -0.00000000000E+00 -0.00000000000E+00 -0.35415034663E+03  0.35415034663E+03  0.00000000000E+00 0. -1.
        -24    2    1    2    0    0 -0.35173899254E+02  0.94440348390E+01 -0.28730978878E+03  0.30049414480E+03  0.80146262241E+02 0.  0.
         25    2    1    2    0    0 -0.34862987694E+02 -0.77011907506E+01  0.34248805752E+02  0.13451754567E+03  0.12508898092E+03 0.  0.
         24    2    1    2    0    0  0.70036886948E+02 -0.17428440884E+01  0.27236021824E+03  0.29258823801E+03  0.80743950243E+02 0.  0.
        -11    1    5    5    0    0  0.27230680345E+02 -0.15391493232E+02  0.22031763898E+02  0.38259726037E+02  0.00000000000E+00 0.  1.
         12    1    5    5    0    0  0.42806206603E+02  0.13648649144E+02  0.25032845434E+03  0.25432851197E+03  0.00000000000E+00 0. -1.
         13    1    3    3    0    0 -0.32780993346E+02 -0.21788296173E+02 -0.24336829052E+03  0.24653082607E+03  0.00000000000E+00 0. -1.
        -14    1    3    3    0    0 -0.23929059078E+01  0.31232331012E+02 -0.43941498261E+02  0.53963318732E+02  0.00000000000E+00 0.  1.
          5    1    4    4  501    0 -0.13150298290E+02 -0.29740581069E+02 -0.41324038326E+02  0.52750175839E+02  0.41800000000E+01 0. -1.
         -5    1    4    4    0  501 -0.21712689405E+02  0.22039390319E+02  0.75572844078E+02  0.81767369830E+02  0.41800000000E+01 0. -1.
</event>
<event>
11    1  0.6455215E-009  0.1596025E+03  0.7561462E-02  0.1087452E+00
         22   -1    0    0    0    0  0.00000000000E+00  0.00000000000E+00  0.14840018398E+04  0.14840018398E+04  0.00000000000E+00 0. -1.
         22   -1    0    0    0    0 -0.00000000000E+00 -0.00000000000E+00 -0.11493121299E+04  0.11493121299E+04  0.00000000000E+00 0. -1.
         24    2    1    2    0    0  0.87414919617E+02 -0.47506899275E+02 -0.11293464627E+04  0.11367863661E+04  0.83435818460E+02 0.  0.
         25    2    1    2    0    0 -0.80109686617E+02 -0.29597102430E+02  0.42075589931E+03  0.44718726164E+03  0.12508944721E+03 0.  0.
        -24    2    1    2    0    0 -0.73052330002E+01  0.77104001706E+02  0.10432802732E+04  0.10493403419E+04  0.81749808658E+02 0.  0.
        -13    1    3    3    0    0 -0.90363881354E+01 -0.28207364032E+02 -0.18862550845E+03  0.19093688521E+03  0.00000000000E+00 0.  1.
         14    1    3    3    0    0  0.96451307753E+02 -0.19299535243E+02 -0.94072095422E+03  0.94584948091E+03  0.00000000000E+00 0. -1.
         13    1    5    5    0    0  0.28658561371E+02  0.65376328320E+02  0.79455351430E+03  0.79775351114E+03  0.00000000000E+00 0. -1.
        -14    1    5    5    0    0 -0.35963794371E+02  0.11727673386E+02  0.24872675889E+03  0.25158683077E+03  0.00000000000E+00 0.  1.
          5    1    4    4  501    0 -0.35224879499E+02 -0.47361481904E+02  0.37788870446E+03  0.38249346068E+03  0.41800000000E+01 0. -1.
         -5    1    4    4    0  501 -0.44884807118E+02  0.17764379473E+02  0.42867194854E+02  0.64693800960E+02  0.41800000000E+01 0. -1.
</event>
<event>
11    1  0.6455215E-009  0.2360387E+03  0.7561462E-02  0.1031611E+00
         22   -1    0    0    0    0  0.00000000000E+00  0.00000000000E+00  0.64905713092E+03  0.64905713092E+03  0.00000000000E+00 0. -1.
         22   -1    0    0    0    0 -0.00000000000E+00 -0.00000000000E+00 -0.50427756334E+03  0.50427756334E+03  0.00000000000E+00 0. -1.
         24    2    1    2    0    0 -0.42408599990E+01  0.13840682226E+02 -0.36796178342E+03  0.37690980750E+03  0.80346621309E+02 0.  0.
         25    2    1    2    0    0  0.13705434973E+03  0.13762100185E+03  0.12501399208E+02  0.23136347063E+03  0.12509730465E+03 0.  0.
        -24    2    1    2    0    0 -0.13281348973E+03 -0.15146168408E+03  0.50023995179E+03  0.54506141612E+03  0.79195158823E+02 0.  0.
        -11    1    3    3    0    0  0.32645016880E+02 -0.10585596384E+02 -0.11155768945E+03  0.11671705125E+03  0.00000000000E+00 0.  1.
         12    1    3    3    0    0 -0.36885876879E+02  0.24426278610E+02 -0.25640409397E+03  0.26019275625E+03  0.00000000000E+00 0. -1.
         13    1    5    5    0    0 -0.12803992417E+03 -0.13924312889E+03  0.49665959133E+03  0.53146365895E+03  0.00000000000E+00 0. -1.
        -14    1    5    5    0    0 -0.47735655634E+01 -0.12218555188E+02  0.35803604567E+01  0.13597757170E+02  0.00000000000E+00 0.  1.
          5    1    4    4  501    0  0.13752573951E+02  0.40267026013E+02  0.53944114649E+02  0.68833179350E+02  0.41800000000E+01 0. -1.
         -5    1    4    4    0  501  0.12330177578E+03  0.97353975837E+02 -0.41442715441E+02  0.16253029128E+03  0.41800000000E+01 0. -1.
</event>
<event>
11    1  0.6455215E-009  0.1453026E+03  0.7561462E-02  0.1101778E+00
         22   -1    0    0    0    0  0.00000000000E+00  0.00000000000E+00  0.41549390678E+03  0.41549390678E+03  0.00000000000E+00 0. -1.
         22   -1    0    0    0    0 -0.00000000000E+00 -0.00000000000E+00 -0.43666260301E+03  0.43666260301E+03  0.00000000000E+00 0.  1.
        -24    2    1    2    0    0  0.73791626862E+02  0.13812912137E+02 -0.36964464633E+03  0.38517271963E+03  0.78005503977E+02 0.  0.
         25    2    1    2    0    0 -0.65999274308E+02  0.39747713741E+02  0.53422047085E+02  0.15631349132E+03  0.12507680639E+03 0.  0.
         24    2    1    2    0    0 -0.77923525547E+01 -0.53560625878E+02  0.29505390301E+03  0.31067029885E+03  0.80806976839E+02 0.  0.
        -13    1    5    5    0    0 -0.19320680858E+02 -0.35674439910E+02  0.48637882342E+02  0.63337176843E+02  0.00000000000E+00 0.  1.
         14    1    5    5    0    0  0.11528328303E+02 -0.17886185968E+02  0.24641602066E+03  0.24733312201E+03  0.00000000000E+00 0. -1.
         11    1    3    3    0    0  0.21947007930E+02  0.12852918537E+02 -0.21839961858E+02  0.33523910959E+02  0.00000000000E+00 0. -1.
        -12    1    3    3    0    0  0.51844618932E+02  0.95999359968E+00 -0.34780468447E+03  0.35164880867E+03  0.00000000000E+00 0.  1.
          5    1    4    4  501    0 -0.32874938031E+02  0.66284241144E+02  0.77589336226E+02  0.10729370751E+03  0.41800000000E+01 0.  1.
         -5    1    4    4    0  501 -0.33124336276E+02 -0.26536527404E+02 -0.24167289141E+02  0.49019783810E+02  0.41800000000E+01 0.  1.
</event>
<event>
11    1  0.6455215E-009  0.1466868E+03  0.7561462E-02  0.1100313E+00
         22   -1    0    0    0    0  0.00000000000E+00  0.00000000000E+00  0.10578481529E+03  0.10578481529E+03  0.00000000000E+00 0.  1.
         22   -1    0    0    0    0 -0.00000000000E+00 -0.00000000000E+00 -0.69385438871E+03  0.69385438871E+03  0.00000000000E+00 0. -1.
         24    2    1    2    0    0  0.74616763679E+02  0.33062188864E+02 -0.54747358144E+03  0.55918670942E+03  0.79383145980E+02 0.  0.
         25    2    1    2    0    0 -0.32093804258E+02 -0.28830946689E+02 -0.64155284753E+02  0.14705655339E+03  0.12509393900E+03 0.  0.
        -24    2    1    2    0    0 -0.42522959421E+02 -0.42312421753E+01  0.23559292768E+02  0.93395941191E+02  0.79634515550E+02 0.  0.
        -11    1    3    3    0    0  0.93649512023E+01 -0.64422707773E+01 -0.69836374348E+01  0.13340777924E+02  0.00000000000E+00 0.  1.
         12    1    3    3    0    0  0.65251812477E+02  0.39504459642E+02 -0.54048994400E+03  0.54584593150E+03  0.00000000000E+00 0. -1.
         11    1    5    5    0    0 -0.28858845085E+02 -0.13888186550E+02 -0.25896293072E+02  0.41186559217E+02  0.00000000000E+00 0. -1.
        -12    1    5    5    0    0 -0.13664114336E+02  0.96569443752E+01  0.49455585840E+02  0.52209381973E+02  0.00000000000E+00 0.  1.
          5    1    4    4  501    0  0.25741163565E+02 -0.11648781302E+01 -0.77203410985E+02  0.81497260755E+02  0.41800000000E+01 0.  1.
         -5    1    4    4    0  501 -0.57834967823E+02 -0.27666068559E+02  0.13048126232E+02  0.65559292634E+02  0.41800000000E+01 0.  1.
</event>
<event>
11    1  0.6455215E-009  0.1644397E+03  0.7561462E-02  0.1082974E+00
         22   -1    0    0    0    0  0.00000000000E+00  0.00000000000E+00  0.55218903787E+02  0.55218903787E+02  0.00000000000E+00 0.  1.
         22   -1    0    0    0    0 -0.00000000000E+00 -0.00000000000E+00 -0.16051115083E+04  0.16051115083E+04  0.00000000000E+00 0.  1.
         24    2    1    2    0    0  0.49213978309E+02 -0.18300274595E+01 -0.11129792738E+04  0.11169632385E+04  0.80365710600E+02 0.  0.
         25    2    1    2    0    0 -0.12170796656E+03  0.61934450979E+02 -0.31213107797E+03  0.36293490350E+03  0.12508888442E+03 0.  0.
        -24    2    1    2    0    0  0.72493988250E+02 -0.60104423520E+02 -0.12478225275E+03  0.18043227015E+03  0.90095912519E+02 0.  0.
        -11    1    3    3    0    0  0.13310977060E+02 -0.36186379842E+02 -0.68971484962E+03  0.69079172692E+03  0.00000000000E+00 0.  1.
         12    1    3    3    0    0  0.35903001249E+02  0.34356352383E+02 -0.42326442421E+03  0.42617151155E+03  0.00000000000E+00 0. -1.
         13    1    5    5    0    0  0.62711000564E+02 -0.69414393012E+01 -0.26844970440E+02  0.68567525908E+02  0.00000000000E+00 0. -1.
        -14    1    5    5    0    0  0.97829876860E+01 -0.53162984219E+02 -0.97937282306E+02  0.11186474424E+03  0.00000000000E+00 0.  1.
          5    1    4    4  501    0 -0.84598284589E+02 -0.33349877070E+01 -0.25434498124E+03  0.26809855236E+03  0.41800000000E+01 0.  1.
         -5    1    4    4    0  501 -0.37109681970E+02  0.65269438686E+02 -0.57786096728E+02  0.94836351140E+02  0.41800000000E+01 0.  1.
</event>
<event>
11    1  0.6455215E-009  0.1949058E+03  0.7561462E-02  0.1058186E+00
         22   -1    0    0    0    0  0.00000000000E+00  0.00000000000E+00  0.11898400654E+03  0.11898400654E+03  0.00000000000E+00 0. -1.
         22   -1    0    0    0    0 -0.00000000000E+00 -0.00000000000E+00 -0.14707992265E+04  0.14707992265E+04  0.00000000000E+00 0.  1.
        -24    2    1    2    0    0 -0.42083690892E+02  0.53598610030E+02 -0.11602099287E+04  0.11650129161E+04  0.80772321101E+02 0.  0.
         25    2    1    2    0    0  0.13893755887E+03 -0.11331714469E+03 -0.52908835763E+02  0.22492354595E+03  0.12508731380E+03 0.  0.
         24    2    1    2    0    0 -0.96853867982E+02  0.59718534664E+02 -0.13869645543E+03  0.19984677097E+03  0.88062761682E+02 0.  0.
        -13    1    5    5    0    0 -0.66022964701E+02 -0.10778476474E+02 -0.66887527696E+02  0.94599940720E+02  0.00000000000E+00 0.  1.
         14    1    5    5    0    0 -0.30830903282E+02  0.70497011138E+02 -0.71808927733E+02  0.10524683025E+03  0.00000000000E+00 0. -1.
         11    1    3    3    0    0  0.13070802623E+02 -0.11902973031E+02 -0.30942604234E+03  0.30993064116E+03  0.00000000000E+00 0. -1.
        -12    1    3    3    0    0 -0.55154493515E+02  0.65501583061E+02 -0.85078388639E+03  0.85508227491E+03  0.00000000000E+00 0.  1.
          5    1    4    4  501    0  0.65338273196E+02 -0.12612525002E+03 -0.21279015756E+02  0.14369042261E+03  0.41800000000E+01 0.  1.
         -5    1    4    4    0  501  0.73599285678E+02  0.12808105328E+02 -0.31629820007E+02  0.81233123343E+02  0.41800000000E+01 0.  1.
</event>
<event>
11    1  0.6455215E-009  0.1370417E+03  0.7561462E-02  0.1110908E+00
         22   -1    0    0    0    0  0.00000000000E+00  0.00000000000E+00  0.23974788612E+03  0.23974788612E+03  0.00000000000E+00 0. -1.
         22   -1    0    0    0    0 -0.00000000000E+00 -0.00000000000E+00 -0.48236820970E+03  0.48236820970E+03  0.00000000000E+00 0. -1.
         24    2    1    2    0    0  0.23149354881E+02 -0.30617057517E+02 -0.26119302831E+03  0.27628138966E+03  0.81463558676E+02 0.  0.
         25    2    1    2    0    0  0.30568606918E+02  0.93595375755E+01 -0.18123791238E+03  0.22252209235E+03  0.12508740954E+03 0.  0.
        -24    2    1    2    0    0 -0.53717961799E+02  0.21257519941E+02  0.19981061711E+03  0.22331261381E+03  0.81281850397E+02 0.  0.
        -11    1    3    3    0    0  0.16635712003E+02 -0.40414914244E+02 -0.57379184460E+02  0.72128240076E+02  0.00000000000E+00 0.  1.
         12    1    3    3    0    0  0.65136428773E+01  0.97978567272E+01 -0.20381384385E+03  0.20415314958E+03  0.00000000000E+00 0. -1.
         13    1    5    5    0    0 -0.53218111702E+02 -0.20197523224E+02  0.13321716813E+03  0.14486863444E+03  0.00000000000E+00 0. -1.
        -14    1    5    5    0    0 -0.49985009680E+00  0.41455043166E+02  0.66593448972E+02  0.78443979374E+02  0.00000000000E+00 0.  1.
          5    1    4    4  501    0  0.79515630878E+02  0.56526921507E+01 -0.11384320950E+03  0.13904113504E+03  0.41800000000E+01 0. -1.
         -5    1    4    4    0  501 -0.48947023960E+02  0.37068454248E+01 -0.67394702873E+02  0.83480957307E+02  0.41800000000E+01 0. -1.
</event>
<event>
11    1  0.8467947E-009  0.1551587E+03  0.7561462E-02  0.1091721E+00
         22   -1    0    0    0    0  0.00000000000E+00  0.00000000000E+00  0.62666261003E+03  0.62666261003E+03  0.00000000000E+00 0. -1.
         22   -1    0    0    0    0 -0.00000000000E+00 -0.00000000000E+00 -0.13885774078E+04  0.13885774078E+04  0.00000000000E+00 0. -1.
         24    2    1    2    0    0 -0.29245009757E+02  0.35089980200E+02 -0.10290058959E+04  0.10331228102E+04  0.80018934833E+02 0.  0.
         25    2    1    2    0    0  0.37371646944E+02  0.56896112824E+02 -0.33701352799E+03  0.36586832323E+03  0.12509078402E+03 0.  0.
        -24    2    1    2    0    0 -0.81266371867E+01 -0.91986093023E+02  0.60410462610E+03  0.61624888437E+03  0.79327200102E+02 0.  0.
        -13    1    3    3    0    0 -0.40072228658E+02  0.27047780821E+02 -0.29063148436E+03  0.29462522916E+03  0.00000000000E+00 0.  1.
         14    1    3    3    0    0  0.10827218901E+02  0.80421993781E+01 -0.73837441154E+03  0.73849758107E+03  0.00000000000E+00 0. -1.
         13    1    5    5    0    0  0.24687491573E+02 -0.75365174371E+02  0.48959267089E+03  0.49597415773E+03  0.00000000000E+00 0. -1.
        -14    1    5    5    0    0 -0.32814128760E+02 -0.16620918652E+02  0.11451195521E+03  0.12027472664E+03  0.00000000000E+00 0.  1.
          5    1    4    4  501    0 -0.23374146107E+02  0.37566151193E+00 -0.58705737357E+01  0.24462785283E+02  0.41800000000E+01 0. -1.
         -5    1    4    4    0  501  0.60745793051E+02  0.56520451312E+02 -0.33114295425E+03  0.34140553795E+03  0.41800000000E+01 0. -1.
</event>
<event>
11    1  0.6455215E-009  0.2575445E+03  0.7561462E-02  0.1019955E+00
         22   -1    0    0    0    0  0.00000000000E+00  0.00000000000E+00  0.11796816342E+04  0.11796816342E+04  0.00000000000E+00 0.  1.
         22   -1    0    0    0    0 -0.00000000000E+00 -0.00000000000E+00 -0.55855794241E+03  0.55855794241E+03  0.00000000000E+00 0.  1.
        -24    2    1    2    0    0 -0.98241076614E+02  0.20098880934E+03 -0.47269188325E+03  0.52897339387E+03  0.79545108711E+02 0.  0.
         25    2    1    2    0    0  0.16525470837E+03 -0.18944117914E+03  0.30955952647E+03  0.41793481270E+03  0.12508128656E+03 0.  0.
         24    2    1    2    0    0 -0.67013631756E+02 -0.11547630196E+02  0.78425604853E+03  0.79133137000E+03  0.80768885651E+02 0.  0.
        -11    1    5    5    0    0 -0.22756513797E+02 -0.39419334294E+02  0.51739594333E+03  0.51939417114E+03  0.00000000000E+00 0.  1.
         12    1    5    5    0    0 -0.44257117959E+02  0.27871704099E+02  0.26686010519E+03  0.27193719886E+03  0.00000000000E+00 0. -1.
         13    1    3    3    0    0 -0.27202328506E+02  0.10124812371E+03 -0.14329290341E+03  0.17755000817E+03  0.00000000000E+00 0. -1.
        -14    1    3    3    0    0 -0.71038748109E+02  0.99740685620E+02 -0.32939897983E+03  0.35142338570E+03  0.00000000000E+00 0.  1.
          5    1    4    4  501    0  0.92110788140E+02 -0.25102320750E+02  0.14768388707E+03  0.17590487969E+03  0.41800000000E+01 0. -1.
         -5    1    4    4    0  501  0.73143920230E+02 -0.16433885839E+03  0.16187563941E+03  0.24202993302E+03  0.41800000000E+01 0. -1.
</event>
<event>
11    1  0.6455215E-009  0.1523295E+03  0.7561462E-02  0.1094522E+00
         22   -1    0    0    0    0  0.00000000000E+00  0.00000000000E+00  0.17051485907E+04  0.17051485907E+04  0.00000000000E+00 0. -1.
         22   -1    0    0    0    0 -0.00000000000E+00 -0.00000000000E+00 -0.32009211910E+02  0.32009211910E+02  0.00000000000E+00 0. -1.
        -24    2    1    2    0    0 -0.10490728192E+02  0.19815118262E+02  0.56356158292E+02  0.96280759074E+02  0.74774819964E+02 0.  0.
         25    2    1    2    0    0 -0.78522787267E+02  0.14766189068E+01  0.65942609803E+03  0.67576542462E+03  0.12509245312E+03 0.  0.
         24    2    1    2    0    0  0.89013515459E+02 -0.21291737168E+02  0.95735712251E+03  0.96511161896E+03  0.80814806936E+02 0.  0.
        -13    1    5    5    0    0  0.36461575219E+02  0.68083921502E+01  0.11917704937E+03  0.12481574327E+03  0.00000000000E+00 0.  1.
         14    1    5    5    0    0  0.52551940240E+02 -0.28100129319E+02  0.83818007314E+03  0.84029587569E+03  0.00000000000E+00 0. -1.
         13    1    3    3    0    0  0.23615530389E+02  0.84448211358E+01 -0.46133487099E+01  0.25500809122E+02  0.00000000000E+00 0. -1.
        -14    1    3    3    0    0 -0.34106258581E+02  0.11370297126E+02  0.60969507002E+02  0.70779949952E+02  0.00000000000E+00 0.  1.
          5    1    4    4  501    0 -0.95002075321E+02  0.28054194253E+02  0.32327551742E+03  0.33813749377E+03  0.41800000000E+01 0. -1.
         -5    1    4    4    0  501  0.16479288054E+02 -0.26577575346E+02  0.33615058061E+03  0.33762793085E+03  0.41800000000E+01 0. -1.
</event>
<event>
11    1  0.6455215E-009  0.2083336E+03  0.7561462E-02  0.1048782E+00
         22   -1    0    0    0    0  0.00000000000E+00  0.00000000000E+00  0.13356561815E+04  0.13356561815E+04  0.00000000000E+00 0. -1.
         22   -1    0    0    0    0 -0.00000000000E+00 -0.00000000000E+00 -0.22145171478E+03  0.22145171478E+03  0.00000000000E+00 0.  1.
        -24    2    1    2    0    0  0.14374442429E+03  0.97708155131E+02 -0.15549136728E+03  0.24698083425E+03  0.81318042862E+02 0.  0.
         25    2    1    2    0    0 -0.10058319801E+03 -0.35805554576E+02  0.38338002961E+03  0.41716449695E+03  0.12508778100E+03 0.  0.
         24    2    1    2    0    0 -0.43161226284E+02 -0.61902600555E+02  0.88631580441E+03  0.89296256511E+03  0.78304623892E+02 0.  0.
        -13    1    5    5    0    0 -0.48448517171E+02 -0.68194535577E+02  0.53075778322E+03  0.53730957366E+03  0.00000000000E+00 0.  1.
         14    1    5    5    0    0  0.52872908866E+01  0.62919350215E+01  0.35555802119E+03  0.35565299144E+03  0.00000000000E+00 0. -1.
         13    1    3    3    0    0  0.54490709191E+01  0.18819519818E+02 -0.55779966153E+02  0.59120819718E+02  0.00000000000E+00 0. -1.
        -14    1    3    3    0    0  0.13829535337E+03  0.78888635314E+02 -0.99711401126E+02  0.18786001453E+03  0.00000000000E+00 0.  1.
          5    1    4    4  501    0 -0.97399058549E+02 -0.23016023105E+02  0.38940486004E+03  0.40208199580E+03  0.41800000000E+01 0. -1.
         -5    1    4    4    0  501 -0.31841394570E+01 -0.12789531471E+02 -0.60248304274E+01  0.15082501153E+02  0.41800000000E+01 0. -1.
</event>
<event>
11    1  0.6455215E-009  0.1344265E+03  0.7561462E-02  0.1113947E+00
         22   -1    0    0    0    0  0.00000000000E+00  0.00000000000E+00  0.24704718210E+03  0.24704718210E+03  0.00000000000E+00 0.  1.
         22   -1    0    0    0    0 -0.00000000000E+00 -0.00000000000E+00 -0.22125913450E+03  0.22125913450E+03  0.00000000000E+00 0. -1.
         24    2    1    2    0    0  0.50949323064E+02 -0.11633816366E+02 -0.11817299197E+03  0.15241494070E+03  0.80834886739E+02 0.  0.
         25    2    1    2    0    0 -0.32019649628E+02  0.29481986929E+02 -0.17631574952E+02  0.13362054712E+03  0.12509649341E+03 0.  0.
        -24    2    1    2    0    0 -0.18929673437E+02 -0.17848170563E+02  0.16159261452E+03  0.18227082877E+03  0.80209676631E+02 0.  0.
        -11    1    3    3    0    0 -0.11997017291E+02  0.50233784890E+01  0.43086542434E+01  0.13701359667E+02  0.00000000000E+00 0.  1.
         12    1    3    3    0    0  0.62946340356E+02 -0.16657194855E+02 -0.12248164621E+03  0.13871358103E+03  0.00000000000E+00 0. -1.
         11    1    5    5    0    0 -0.25229859688E+02  0.20656417461E+02  0.27621300995E+02  0.42733706496E+02  0.00000000000E+00 0. -1.
        -12    1    5    5    0    0  0.63001862518E+01 -0.38504588024E+02  0.13397131353E+03  0.13953712228E+03  0.00000000000E+00 0.  1.
          5    1    4    4  501    0 -0.17343257146E+02 -0.46213664715E+02  0.11901415522E+02  0.50947104591E+02  0.41800000000E+01 0.  1.
         -5    1    4    4    0  501 -0.14676392482E+02  0.75695651643E+02 -0.29532990474E+02  0.82673442534E+02  0.41800000000E+01 0.  1.
</event>
<event>
11    1  0.6455215E-009  0.1534956E+03  0.7561462E-02  0.1093360E+00
         22   -1    0    0    0    0  0.00000000000E+00  0.00000000000E+00  0.54275755700E+02  0.54275755700E+02  0.00000000000E+00 0. -1.
         22   -1    0    0    0    0 -0.00000000000E+00 -0.00000000000E+00 -0.16061754935E+04  0.16061754935E+04  0.00000000000E+00 0. -1.
         24    2    1    2    0    0  0.81057970928E+01  0.63644911814E+02 -0.10094512426E+04  0.10149304174E+04  0.83519831596E+02 0.  0.
         25    2    1    2    0    0 -0.36003098574E+02 -0.13747621104E+03 -0.48086248142E+03  0.51679062639E+03  0.12509154162E+03 0.  0.
        -24    2    1    2    0    0  0.27897301481E+02  0.73831299230E+02 -0.61586013809E+02  0.12873020541E+03  0.80927798145E+02 0.  0.
        -13    1    3    3    0    0  0.15218999828E+02 -0.12170756119E+02 -0.78984832860E+02  0.81353236457E+02  0.00000000000E+00 0.  1.
         14    1    3    3    0    0 -0.71132027347E+01  0.75815667933E+02 -0.93046640976E+03  0.93357718098E+03  0.00000000000E+00 0. -1.
         13    1    5    5    0    0  0.45004474565E+02  0.46404439236E+02 -0.66432921273E+01  0.64983906022E+02  0.00000000000E+00 0. -1.
        -14    1    5    5    0    0 -0.17107173084E+02  0.27426859994E+02 -0.54942721682E+02  0.63746299390E+02  0.00000000000E+00 0.  1.
          5    1    4    4  501    0 -0.17685735010E+02 -0.12804055280E+01 -0.17037782065E+01  0.18297538669E+02  0.41800000000E+01 0.  1.
         -5    1    4    4    0  501 -0.18317363563E+02 -0.13619580552E+03 -0.47915870321E+03  0.49849308773E+03  0.41800000000E+01 0.  1.
</event>
<event>
11    1  0.6455215E-009  0.2461602E+03  0.7561462E-02  0.1025965E+00
         22   -1    0    0    0    0  0.00000000000E+00  0.00000000000E+00  0.16354821753E+04  0.16354821753E+04  0.00000000000E+00 0.  1.
         22   -1    0    0    0    0 -0.00000000000E+00 -0.00000000000E+00 -0.15095391126E+03  0.15095391126E+03  0.00000000000E+00 0.  1.
         24    2    1    2    0    0 -0.19916196769E+03 -0.69517365437E+02 -0.32624586899E+02  0.22780176231E+03  0.79568371678E+02 0.  0.
         25    2    1    2    0    0  0.21155397032E+03  0.66820155865E+02  0.87745983506E+03  0.91367541686E+03  0.12508792763E+03 0.  0.
        -24    2    1    2    0    0 -0.12392002629E+02  0.26972095728E+01  0.63969301590E+03  0.64495890741E+03  0.81265004674E+02 0.  0.
        -11    1    3    3    0    0 -0.18180272510E+03 -0.62015670689E+02 -0.53731483325E+02  0.19946239387E+03  0.00000000000E+00 0.  1.
         12    1    3    3    0    0 -0.17359242582E+02 -0.75016947487E+01  0.21106896426E+02  0.28339368445E+02  0.00000000000E+00 0. -1.
         13    1    5    5    0    0 -0.45713596271E+00 -0.25790111451E+02  0.72969420571E+02  0.77394283771E+02  0.00000000000E+00 0. -1.
        -14    1    5    5    0    0 -0.11934866667E+02  0.28487321023E+02  0.56672359533E+03  0.56756462363E+03  0.00000000000E+00 0.  1.
          5    1    4    4  501    0  0.19041615975E+03  0.67646328376E+02  0.86596550501E+03  0.88924016323E+03  0.41800000000E+01 0.  1.
         -5    1    4    4    0  501  0.21137810563E+02 -0.82617251135E+00  0.11494330052E+02  0.24435253626E+02  0.41800000000E+01 0.  1.
</event>
<event>
11    1  0.6455215E-009  0.1355307E+03  0.7561462E-02  0.1112654E+00
         22   -1    0    0    0    0  0.00000000000E+00  0.00000000000E+00  0.39765380251E+03  0.39765380251E+03  0.00000000000E+00 0. -1.
         22   -1    0    0    0    0 -0.00000000000E+00 -0.00000000000E+00 -0.79797322630E+03  0.79797322630E+03  0.00000000000E+00 0.  1.
        -24    2    1    2    0    0 -0.50948292560E+02  0.13084918318E+02 -0.74235068153E+03  0.74840140792E+03  0.79077110477E+02 0.  0.
         25    2    1    2    0    0  0.37175841598E+02 -0.12094547181E+02  0.44150191835E+02  0.13829267959E+03  0.12508918626E+03 0.  0.
         24    2    1    2    0    0  0.13772450963E+02 -0.99037113701E+00  0.29788106591E+03  0.30893294130E+03  0.80720329245E+02 0.  0.
        -11    1    5    5    0    0 -0.26432760777E+02 -0.18820961702E+02  0.74447848484E+02  0.81212077831E+02  0.00000000000E+00 0.  1.
         12    1    5    5    0    0  0.40205211740E+02  0.17830590565E+02  0.22343321742E+03  0.22772086347E+03  0.00000000000E+00 0. -1.
         11    1    3    3    0    0 -0.44478146766E+02  0.41850306126E+02 -0.38249367501E+03  0.38733856648E+03  0.00000000000E+00 0. -1.
        -12    1    3    3    0    0 -0.64701457943E+01 -0.28765387809E+02 -0.35985700653E+03  0.36106284144E+03  0.00000000000E+00 0.  1.
          5    1    4    4  501    0  0.75484052477E+02 -0.11447601272E+02  0.59421564467E+02  0.96836379925E+02  0.41800000000E+01 0.  1.
         -5    1    4    4    0  501 -0.38308210880E+02 -0.64694590865E+00 -0.15271372632E+02  0.41456299664E+02  0.41800000000E+01 0.  1.
</event>
<event>
11    1  0.6455215E-009  0.1994268E+03  0.7561462E-02  0.1054930E+00
         22   -1    0    0    0    0  0.00000000000E+00  0.00000000000E+00  0.18400500934E+03  0.18400500934E+03  0.00000000000E+00 0.  1.
         22   -1    0    0    0    0 -0.00000000000E+00 -0.00000000000E+00 -0.11804748222E+04  0.11804748222E+04  0.00000000000E+00 0. -1.
         24    2    1    2    0    0  0.13241515496E+03 -0.76263954101E+02 -0.10001635158E+04  0.10149990051E+04  0.80907094201E+02 0.  0.
         25    2    1    2    0    0 -0.17872826396E+03  0.58609543309E+02 -0.61752404642E+02  0.23417848695E+03  0.12508930156E+03 0.  0.
        -24    2    1    2    0    0  0.46313108996E+02  0.17654410793E+02  0.65446107595E+02  0.11530233956E+03  0.80962054213E+02 0.  0.
        -13    1    3    3    0    0  0.46784957257E+01 -0.31151200311E+02 -0.10437112034E+03  0.10902117392E+03  0.00000000000E+00 0.  1.
         14    1    3    3    0    0  0.12773665924E+03 -0.45112753791E+02 -0.89579239551E+03  0.90597783114E+03  0.00000000000E+00 0. -1.
         13    1    5    5    0    0  0.70752485033E+01 -0.61032619159E+01 -0.17886151401E+02  0.20179775998E+02  0.00000000000E+00 0. -1.
        -14    1    5    5    0    0  0.39237860492E+02  0.23757672709E+02  0.83332258995E+02  0.95122563558E+02  0.00000000000E+00 0.  1.
          5    1    4    4  501    0 -0.68258826381E+01  0.18199678068E+01  0.30049225100E+02  0.31150173125E+02  0.41800000000E+01 0. -1.
         -5    1    4    4    0  501 -0.17190238132E+03  0.56789575502E+02 -0.91801629742E+02  0.20302831382E+03  0.41800000000E+01 0. -1.
</event>
<event>
11    1  0.6455215E-009  0.1910974E+03  0.7561462E-02  0.1061004E+00
         22   -1    0    0    0    0  0.00000000000E+00  0.00000000000E+00  0.10240814277E+04  0.10240814277E+04  0.00000000000E+00 0. -1.
         22   -1    0    0    0    0 -0.00000000000E+00 -0.00000000000E+00 -0.13621639754E+03  0.13621639754E+03  0.00000000000E+00 0.  1.
         24    2    1    2    0    0  0.48149116800E+02 -0.43060753601E+02 -0.56643558888E+02  0.11478233218E+03  0.76117836723E+02 0.  0.
         25    2    1    2    0    0  0.96272176087E+02  0.84959854525E+02  0.15334915214E+03  0.23590245050E+03  0.12508994732E+03 0.  0.
        -24    2    1    2    0    0 -0.14442129289E+03 -0.41899100924E+02  0.79115943691E+03  0.80961304255E+03  0.83228478070E+02 0.  0.
        -13    1    3    3    0    0  0.11408160978E+02  0.21641312646E+02 -0.21172890034E+02  0.32354038733E+02  0.00000000000E+00 0.  1.
         14    1    3    3    0    0  0.36740955822E+02 -0.64702066247E+02 -0.35470668854E+02  0.82428293445E+02  0.00000000000E+00 0. -1.
         13    1    5    5    0    0 -0.95611972956E+02 -0.29638822115E+02  0.30842341453E+03  0.32426086994E+03  0.00000000000E+00 0. -1.
        -14    1    5    5    0    0 -0.48809319930E+02 -0.12260278809E+02  0.48273602238E+03  0.48535217261E+03  0.00000000000E+00 0.  1.
          5    1    4    4  501    0  0.11835593249E+03  0.84005619422E+02  0.95386040313E+02  0.17372691195E+03  0.41800000000E+01 0.  1.
         -5    1    4    4    0  501 -0.22083756402E+02  0.95423510262E+00  0.57963111822E+02  0.62175538546E+02  0.41800000000E+01 0.  1.
</event>
<event>
11    1  0.6455215E-009  0.1524913E+03  0.7561462E-02  0.1094360E+00
         22   -1    0    0    0    0  0.00000000000E+00  0.00000000000E+00  0.85142303436E+03  0.85142303436E+03  0.00000000000E+00 0. -1.
         22   -1    0    0    0    0 -0.00000000000E+00 -0.00000000000E+00 -0.25839811546E+03  0.25839811546E+03  0.00000000000E+00 0. -1.
         24    2    1    2    0    0  0.26425481930E+02 -0.80697999031E+02 -0.18738071501E+03  0.22059927662E+03  0.79636896876E+02 0.  0.
         25    2    1    2    0    0 -0.45136670129E+02  0.95755898490E+02  0.77369999276E+02  0.18121547912E+03  0.12508565864E+03 0.  0.
        -24    2    1    2    0    0  0.18711188199E+02 -0.15057899459E+02  0.70303563464E+03  0.70800639408E+03  0.80231549816E+02 0.  0.
        -11    1    3    3    0    0 -0.12849621371E+02 -0.61461046938E+02 -0.63830090523E+02  0.89536883553E+02  0.00000000000E+00 0.  1.
         12    1    3    3    0    0  0.39275103301E+02 -0.19236952093E+02 -0.12355062449E+03  0.13106239306E+03  0.00000000000E+00 0. -1.
         13    1    5    5    0    0 -0.25496073363E+02 -0.25139042294E+02  0.39971667213E+03  0.40131713044E+03  0.00000000000E+00 0. -1.
        -14    1    5    5    0    0  0.44207261562E+02  0.10081142835E+02  0.30331896251E+03  0.30668926364E+03  0.00000000000E+00 0.  1.
          5    1    4    4  501    0  0.37685777605E+02  0.35851633334E+02 -0.12435766518E+01  0.52197474357E+02  0.41800000000E+01 0.  1.
         -5    1    4    4    0  501 -0.82822447734E+02  0.59904265156E+02  0.78613575927E+02  0.12901800476E+03  0.41800000000E+01 0.  1.
</event>
<event>
11    1  0.6455215E-009  0.1952495E+03  0.7561462E-02  0.1057935E+00
         22   -1    0    0    0    0  0.00000000000E+00  0.00000000000E+00  0.42663558857E+03  0.42663558857E+03  0.00000000000E+00 0.  1.
         22   -1    0    0    0    0 -0.00000000000E+00 -0.00000000000E+00 -0.31955385254E+03  0.31955385254E+03  0.00000000000E+00 0.  1.
         24    2    1    2    0    0  0.26847214524E+02  0.15374249026E+03  0.25902264429E+02  0.17756203047E+03  0.80621468144E+02 0.  0.
         25    2    1    2    0    0 -0.91435960974E+02 -0.12186230871E+03 -0.19169896508E+03  0.27496722178E+03  0.12509005794E+03 0.  0.
        -24    2    1    2    0    0  0.64588746450E+02 -0.31880181545E+02  0.27287843668E+03  0.29366018886E+03  0.81151790931E+02 0.  0.
        -13    1    3    3    0    0  0.36574326538E+02  0.15498085890E+03  0.10862526937E+02  0.15960809027E+03  0.00000000000E+00 0.  1.
         14    1    3    3    0    0 -0.97271120143E+01 -0.12383686472E+01  0.15039737491E+02  0.17953940204E+02  0.00000000000E+00 0. -1.
         11    1    5    5    0    0  0.25703252724E+02 -0.27941254177E+02  0.32061465106E+02  0.49692136504E+02  0.00000000000E+00 0. -1.
        -12    1    5    5    0    0  0.38885493726E+02 -0.39389273680E+01  0.24081697157E+03  0.24396805235E+03  0.00000000000E+00 0.  1.
          5    1    4    4  501    0  0.30005500403E+02 -0.39940807657E+02 -0.41012114739E+02  0.64769314695E+02  0.41800000000E+01 0. -1.
         -5    1    4    4    0  501 -0.12144146138E+03 -0.81921501055E+02 -0.15068685035E+03  0.21019790709E+03  0.41800000000E+01 0. -1.
</event>
<event>
11    1  0.6455215E-009  0.1596817E+03  0.7561462E-02  0.1087377E+00
         22   -1    0    0    0    0  0.00000000000E+00  0.00000000000E+00  0.45333902095E+03  0.45333902095E+03  0.00000000000E+00 0. -1.
         22   -1    0    0    0    0 -0.00000000000E+00 -0.00000000000E+00 -0.46479732167E+03  0.46479732167E+03  0.00000000000E+00 0.  1.
         24    2    1    2    0    0 -0.65334227300E+02 -0.75058538016E+02 -0.33433035444E+03  0.35816164155E+03  0.81244262518E+02 0.  0.
         25    2    1    2    0    0 -0.14121063125E+02  0.13308572697E+03 -0.29966116500E+02  0.18562420810E+03  0.12508862198E+03 0.  0.
        -24    2    1    2    0    0  0.79455290425E+02 -0.58027188953E+02  0.35283817022E+03  0.37435049297E+03  0.77221884129E+02 0.  0.
        -11    1    3    3    0    0 -0.48414922971E+02 -0.59099190979E+02 -0.32369171783E+03  0.33258539855E+03  0.00000000000E+00 0.  1.
         12    1    3    3    0    0 -0.16919304329E+02 -0.15959347036E+02 -0.10638636610E+02  0.25576242995E+02  0.00000000000E+00 0. -1.
         11    1    5    5    0    0  0.58158323725E+02 -0.69289274493E+02  0.32584910880E+03  0.33817308568E+03  0.00000000000E+00 0. -1.
        -12    1    5    5    0    0  0.21296966701E+02  0.11262085540E+02  0.26989061424E+02  0.36177407285E+02  0.00000000000E+00 0.  1.
          5    1    4    4  501    0  0.44067703260E+02  0.96580851217E+01 -0.17375972763E+02  0.48524611367E+02  0.41800000000E+01 0.  1.
         -5    1    4    4    0  501 -0.58188766386E+02  0.12342764185E+03 -0.12590143737E+02  0.13709959673E+03  0.41800000000E+01 0.  1.
</event>
<event>
11    1  0.6455215E-009  0.1350505E+03  0.7561462E-02  0.1113215E+00
         22   -1    0    0    0    0  0.00000000000E+00  0.00000000000E+00  0.75243817270E+03  0.75243817270E+03  0.00000000000E+00 0.  1.
         22   -1    0    0    0    0 -0.00000000000E+00 -0.00000000000E+00 -0.21371143170E+03  0.21371143170E+03  0.00000000000E+00 0.  1.
         24    2    1    2    0    0  0.50574658276E+02 -0.58650677122E+01 -0.18262695798E+03  0.20569788862E+03  0.79792358815E+02 0.  0.
         25    2    1    2    0    0 -0.53720521199E+02 -0.41250012242E+02  0.51010593723E+03  0.52957154066E+03  0.12510192473E+03 0.  0.
        -24    2    1    2    0    0  0.31458629236E+01  0.47115079954E+02  0.21124776175E+03  0.23088017512E+03  0.80313829478E+02 0.  0.
        -13    1    3    3    0    0  0.34991573926E+01  0.21476114218E+02 -0.12319296939E+03  0.12509986128E+03  0.00000000000E+00 0.  1.
         14    1    3    3    0    0  0.47075500883E+02 -0.27341181930E+02 -0.59433988585E+02  0.80598027345E+02  0.00000000000E+00 0. -1.
         13    1    5    5    0    0 -0.27142292219E+02  0.33079232549E+02  0.48211932429E+02  0.64461849815E+02  0.00000000000E+00 0. -1.
        -14    1    5    5    0    0  0.30288155142E+02  0.14035847405E+02  0.16303582933E+03  0.16641832531E+03  0.00000000000E+00 0.  1.
          5    1    4    4  501    0 -0.36114842488E+01  0.30711137698E+02  0.30334168325E+03  0.30494239783E+03  0.41800000000E+01 0.  1.
         -5    1    4    4    0  501 -0.50109036951E+02 -0.71961149939E+02  0.20676425398E+03  0.22462914283E+03  0.41800000000E+01 0.  1.
</event>
<event>
11    1  0.6455215E-009  0.1876287E+03  0.7561462E-02  0.1063634E+00
         22   -1    0    0    0    0  0.00000000000E+00  0.00000000000E+00  0.98770104722E+03  0.98770104722E+03  0.00000000000E+00 0. -1.
         22   -1    0    0    0    0 -0.00000000000E+00 -0.00000000000E+00 -0.15912325537E+04  0.15912325537E+04  0.00000000000E+00 0.  1.
        -24    2    1    2    0    0  0.10615221359E+03 -0.90363912945E+02 -0.15448940097E+04  0.15532878601E+04  0.81066306941E+02 0.  0.
         25    2    1    2    0    0 -0.10558186371E+03  0.14024314339E+03  0.26051029718E+03  0.33812486595E+03  0.12508853195E+03 0.  0.
         24    2    1    2    0    0 -0.57034987872E+00 -0.49879230447E+02  0.68085220598E+03  0.68752087485E+03  0.81467564287E+02 0.  0.
        -11    1    5    5    0    0  0.76695484990E+01  0.59377757267E+00  0.38725243649E+01  0.86122581789E+01  0.00000000000E+00 0.  1.
         12    1    5    5    0    0 -0.82398983777E+01 -0.50473008020E+02  0.67697968162E+03  0.67890861667E+03  0.00000000000E+00 0. -1.
         13    1    3    3    0    0  0.98508674968E+02 -0.86794315527E+02 -0.10311563926E+04  0.10394809851E+04  0.00000000000E+00 0. -1.
        -14    1    3    3    0    0  0.76435386238E+01 -0.35695974184E+01 -0.51373761702E+03  0.51380687505E+03  0.00000000000E+00 0.  1.
          5    1    4    4  501    0 -0.94360197098E+02  0.11347628965E+03  0.26963845058E+03  0.30741353506E+03  0.41800000000E+01 0.  1.
         -5    1    4    4    0  501 -0.11221666615E+02  0.26766853737E+02 -0.91281533965E+01  0.30711330890E+02  0.41800000000E+01 0.  1.
</event>
<event>
11    1  0.6455215E-009  0.1328088E+03  0.7561462E-02  0.1115865E+00
         22   -1    0    0    0    0  0.00000000000E+00  0.00000000000E+00  0.12847853378E+04  0.12847853378E+04  0.00000000000E+00 0. -1.
         22   -1    0    0    0    0 -0.00000000000E+00 -0.00000000000E+00 -0.27534969506E+03  0.27534969506E+03  0.00000000000E+00 0.  1.
         24    2    1    2    0    0 -0.35410751591E+02  0.20258919029E+02 -0.23347254659E+03  0.25051366713E+03  0.81137674829E+02 0.  0.
         25    2    1    2    0    0 -0.21794650365E+01  0.77922265793E+01  0.93358855948E+02  0.15629836774E+03  0.12509130629E+03 0.  0.
        -24    2    1    2    0    0  0.37590216627E+02 -0.28051145609E+02  0.11495493333E+04  0.11533229980E+04  0.80562874212E+02 0.  0.
        -11    1    3    3    0    0 -0.36346384902E+02  0.31031361646E+02 -0.23480464990E+03  0.23961892395E+03  0.00000000000E+00 0.  1.
         12    1    3    3    0    0  0.93563331122E+00 -0.10772442617E+02  0.13321033083E+01  0.10894743175E+02  0.00000000000E+00 0. -1.
         13    1    5    5    0    0  0.20435576807E+02 -0.46519852673E+02  0.10244595176E+04  0.10257187786E+04  0.00000000000E+00 0. -1.
        -14    1    5    5    0    0  0.17154639821E+02  0.18468707064E+02  0.12508981568E+03  0.12760421935E+03  0.00000000000E+00 0.  1.
          5    1    4    4  501    0 -0.11519061168E+02 -0.56665080035E+02  0.58276166860E+02  0.82202214627E+02  0.41800000000E+01 0.  1.
         -5    1    4    4    0  501  0.93395961319E+01  0.64457306615E+02  0.35082689087E+02  0.74096153109E+02  0.41800000000E+01 0.  1.
</event>
<event>
11    1  0.6455215E-009  0.1715510E+03  0.7561462E-02  0.1076690E+00
         22   -1    0    0    0    0  0.00000000000E+00  0.00000000000E+00  0.45973553815E+03  0.45973553815E+03  0.00000000000E+00 0.  1.
         22   -1    0    0    0    0 -0.00000000000E+00 -0.00000000000E+00 -0.13951917091E+03  0.13951917091E+03  0.00000000000E+00 0. -1.
        -24    2    1    2    0    0 -0.40340491098E+02 -0.16779043982E+01 -0.53881722206E+02  0.10401278640E+03  0.79279563332E+02 0.  0.
         25    2    1    2    0    0 -0.62542237726E+01  0.11386445620E+03  0.14040936482E+03  0.21991367717E+03  0.12507200316E+03 0.  0.
         24    2    1    2    0    0  0.46594714870E+02 -0.11218655180E+03  0.23368872462E+03  0.27532824549E+03  0.80239222888E+02 0.  0.
        -13    1    5    5    0    0  0.37304789698E+01 -0.10066138711E+03  0.15174202578E+03  0.18213257182E+03  0.00000000000E+00 0.  1.
         14    1    5    5    0    0  0.42864235901E+02 -0.11525164691E+02  0.81946698839E+02  0.93195673672E+02  0.00000000000E+00 0. -1.
         13    1    3    3    0    0 -0.15275402318E+02  0.13831519578E+02 -0.68198861583E+02  0.71244182717E+02  0.00000000000E+00 0. -1.
        -14    1    3    3    0    0 -0.25065088780E+02 -0.15509423976E+02  0.14317139376E+02  0.32768603686E+02  0.00000000000E+00 0.  1.
          5    1    4    4  501    0 -0.57007872829E+02  0.88973738906E+02  0.60168761719E+02  0.12167159104E+03  0.41800000000E+01 0. -1.
         -5    1    4    4    0  501  0.50753649056E+02  0.24890717289E+02  0.80240603105E+02  0.98242086126E+02  0.41800000000E+01 0. -1.
</event>
<event>
11    1  0.6455215E-009  0.2115183E+03  0.7561462E-02  0.1046665E+00
         22   -1    0    0    0    0  0.00000000000E+00  0.00000000000E+00  0.35293611657E+03  0.35293611657E+03  0.00000000000E+00 0. -1.
         22   -1    0    0    0    0 -0.00000000000E+00 -0.00000000000E+00 -0.10124714658E+04  0.10124714658E+04  0.00000000000E+00 0.  1.
        -24    2    1    2    0    0  0.33131953202E+02  0.92556196160E+02 -0.78032920592E+03  0.79055984137E+03  0.80042597407E+02 0.  0.
         25    2    1    2    0    0  0.13368198431E+03 -0.13242848490E+03 -0.13000726849E+03  0.26068698145E+03  0.12509051081E+03 0.  0.
         24    2    1    2    0    0 -0.16681393751E+03  0.39872288736E+02  0.25080112514E+03  0.31416075960E+03  0.79869201494E+02 0.  0.
        -13    1    5    5    0    0 -0.83408892146E+02  0.56105426646E+01  0.59300832686E+02  0.10249444002E+03  0.00000000000E+00 0.  1.
         14    1    5    5    0    0 -0.83405045362E+02  0.34261746071E+02  0.19150029245E+03  0.21166631958E+03  0.00000000000E+00 0. -1.
         13    1    3    3    0    0  0.33350557935E+02 -0.11073116323E+00 -0.24674525792E+03  0.24898894410E+03  0.00000000000E+00 0. -1.
        -14    1    3    3    0    0 -0.21860473296E+00  0.92666927324E+02 -0.53358394800E+03  0.54157089727E+03  0.00000000000E+00 0.  1.
          5    1    4    4  501    0  0.10465113813E+03 -0.10440650672E+03 -0.27466728704E+02  0.15041433756E+03  0.41800000000E+01 0. -1.
         -5    1    4    4    0  501  0.29030846178E+02 -0.28021978172E+02 -0.10254053978E+03  0.11027264389E+03  0.41800000000E+01 0. -1.
</event>
<event>
11    1  0.6455215E-009  0.1703066E+03  0.7561462E-02  0.1077765E+00
         22   -1    0    0    0    0  0.00000000000E+00  0.00000000000E+00  0.17416440683E+04  0.17416440683E+04  0.00000000000E+00 0. -1.
         22   -1    0    0    0    0 -0.00000000000E+00 -0.00000000000E+00 -0.15210942773E+04  0.15210942773E+04  0.00000000000E+00 0. -1.
         24    2    1    2    0    0 -0.20765608056E+02  0.80919627144E+01 -0.14793927225E+04  0.14817696763E+04  0.80881739817E+02 0.  0.
         25    2    1    2    0    0  0.45070314681E+02 -0.12007075028E+03  0.17779361944E+03  0.25240174746E+03  0.12509097757E+03 0.  0.
        -24    2    1    2    0    0 -0.24304706625E+02  0.11197878757E+03  0.15221488941E+04  0.15285669218E+04  0.80309469689E+02 0.  0.
        -13    1    3    3    0    0  0.81900569227E+01  0.75935819153E+01 -0.28828121323E+02  0.30916016847E+02  0.00000000000E+00 0.  1.
         14    1    3    3    0    0 -0.28955664979E+02  0.49838079914E+00 -0.14505646012E+04  0.14508536595E+04  0.00000000000E+00 0. -1.
         11    1    5    5    0    0 -0.48094557979E+02  0.98847136004E+02  0.10788223189E+04  0.10844083357E+04  0.00000000000E+00 0. -1.
        -12    1    5    5    0    0  0.23789851355E+02  0.13131651565E+02  0.44332657521E+03  0.44415858608E+03  0.00000000000E+00 0.  1.
          5    1    4    4  501    0 -0.42003467917E+02 -0.24569078096E+02  0.61137389288E+02  0.78250774338E+02  0.41800000000E+01 0.  1.
         -5    1    4    4    0  501  0.87073782599E+02 -0.95501672188E+02  0.11665623015E+03  0.17415097312E+03  0.41800000000E+01 0.  1.
</event>
<event>
11    1  0.6455215E-009  0.1484953E+03  0.7561462E-02  0.1098426E+00
         22   -1    0    0    0    0  0.00000000000E+00  0.00000000000E+00  0.27999915795E+03  0.27999915795E+03  0.00000000000E+00 0.  1.
         22   -1    0    0    0    0 -0.00000000000E+00 -0.00000000000E+00 -0.19546657679E+04  0.19546657679E+04  0.00000000000E+00 0. -1.
         24    2    1    2    0    0  0.31718323488E+02 -0.11792253291E+02 -0.10726534546E+04  0.10761967522E+04  0.80429512131E+02 0.  0.
         25    2    1    2    0    0 -0.11045302631E+03  0.23342399386E+02 -0.86024933353E+03  0.87659627810E+03  0.12508948917E+03 0.  0.
        -24    2    1    2    0    0  0.78734702821E+02 -0.11550146094E+02  0.25823617821E+03  0.28187189556E+03  0.80207745648E+02 0.  0.
        -11    1    3    3    0    0 -0.12952398208E+02 -0.25911620124E+02 -0.18012252437E+03  0.18243711372E+03  0.00000000000E+00 0.  1.
         12    1    3    3    0    0  0.44670721696E+02  0.14119366833E+02 -0.89253093024E+03  0.89375963846E+03  0.00000000000E+00 0. -1.
         13    1    5    5    0    0  0.60052242323E+02  0.89386355883E+01  0.74739321879E+02  0.96291937612E+02  0.00000000000E+00 0. -1.
        -14    1    5    5    0    0  0.18682460498E+02 -0.20488781683E+02  0.18349685634E+03  0.18557995794E+03  0.00000000000E+00 0.  1.
          5    1    4    4  501    0 -0.12776894045E+03  0.25171608829E+02 -0.52704288545E+03  0.54290900484E+03  0.41800000000E+01 0.  1.
         -5    1    4    4    0  501  0.17315914139E+02 -0.18292094433E+01 -0.33320644809E+03  0.33368727326E+03  0.41800000000E+01 0.  1.
</event>
<event>
11    1  0.6455215E-009  0.3495380E+03  0.7561462E-02  0.9811633E-01
         22   -1    0    0    0    0  0.00000000000E+00  0.00000000000E+00  0.11788752628E+04  0.11788752628E+04  0.00000000000E+00 0.  1.
         22   -1    0    0    0    0 -0.00000000000E+00 -0.00000000000E+00 -0.75898296229E+03  0.75898296229E+03  0.00000000000E+00 0. -1.
        -24    2    1    2    0    0 -0.23371348492E+03  0.23383268292E+03 -0.52406446203E+03  0.62489809114E+03  0.80958923632E+02 0.  0.
         25    2    1    2    0    0  0.13620365811E+03 -0.29851755154E+03 -0.70974849072E+01  0.35122919117E+03  0.12508958940E+03 0.  0.
         24    2    1    2    0    0  0.97509826810E+02  0.64684868621E+02  0.95105424748E+03  0.96173094283E+03  0.82036127364E+02 0.  0.
        -11    1    5    5    0    0  0.79699959770E+02  0.84518137295E+02  0.76063911726E+03  0.76945907353E+03  0.00000000000E+00 0.  1.
         12    1    5    5    0    0  0.17809867040E+02 -0.19833268674E+02  0.19041513022E+03  0.19227186931E+03  0.00000000000E+00 0. -1.
         11    1    3    3    0    0 -0.15293279180E+03  0.12567943555E+03 -0.37326176788E+03  0.42250219726E+03  0.00000000000E+00 0. -1.
        -12    1    3    3    0    0 -0.80780693125E+02  0.10815324737E+03 -0.15080269414E+03  0.20239589388E+03  0.00000000000E+00 0.  1.
          5    1    4    4  501    0  0.93687134157E+02 -0.82760924635E+02  0.28862411971E+02  0.12836339423E+03  0.41800000000E+01 0.  1.
         -5    1    4    4    0  501  0.42516523957E+02 -0.21575662690E+03 -0.35959896878E+02  0.22286579694E+03  0.41800000000E+01 0.  1.
</event>
<event>
11    1  0.6455215E-009  0.1507119E+03  0.7561462E-02  0.1096154E+00
         22   -1    0    0    0    0  0.00000000000E+00  0.00000000000E+00  0.48934080842E+03  0.48934080842E+03  0.00000000000E+00 0.  1.
         22   -1    0    0    0    0 -0.00000000000E+00 -0.00000000000E+00 -0.19281216251E+03  0.19281216251E+03  0.00000000000E+00 0. -1.
        -24    2    1    2    0    0  0.85605795866E+02 -0.13315634643E+02 -0.12121618438E+03  0.16940770035E+03  0.80622249836E+02 0.  0.
         25    2    1    2    0    0 -0.37820367085E+02  0.90146156968E+02  0.14727796770E+03  0.21653330988E+03  0.12505664610E+03 0.  0.
         24    2    1    2    0    0 -0.47785428780E+02 -0.76830522326E+02  0.27046686258E+03  0.29621196071E+03  0.80017657722E+02 0.  0.
        -11    1    5    5    0    0  0.42663949822E+01 -0.61460160401E+02  0.10141536518E+03  0.11866182932E+03  0.00000000000E+00 0.  1.
         12    1    5    5    0    0 -0.52051823763E+02 -0.15370361925E+02  0.16905149740E+03  0.17755013139E+03  0.00000000000E+00 0. -1.
         11    1    3    3    0    0  0.89843619554E+02 -0.21822801227E+02 -0.12787874527E+03  0.15780077351E+03  0.00000000000E+00 0. -1.
        -12    1    3    3    0    0 -0.42378236884E+01  0.85071665848E+01  0.66625608915E+01  0.11606926835E+02  0.00000000000E+00 0.  1.
          5    1    4    4  501    0 -0.16445233880E+02  0.10374564636E+03  0.50909386110E+02  0.11680258067E+03  0.41800000000E+01 0. -1.
         -5    1    4    4    0  501 -0.21375133205E+02 -0.13599489391E+02  0.96368581592E+02  0.99730729213E+02  0.41800000000E+01 0. -1.
</event>
<event>
11    1  0.6455215E-009  0.1532240E+03  0.7561462E-02  0.1093629E+00
         22   -1    0    0    0    0  0.00000000000E+00  0.00000000000E+00  0.14083429205E+04  0.14083429205E+04  0.00000000000E+00 0.  1.
         22   -1    0    0    0    0 -0.00000000000E+00 -0.00000000000E+00 -0.24940010867E+03  0.24940010867E+03  0.00000000000E+00 0.  1.
         24    2    1    2    0    0  0.43695377466E+02  0.66019497511E+02 -0.15652200824E+03  0.19428470062E+03  0.83543675825E+02 0.  0.
         25    2    1    2    0    0 -0.16410504740E+01 -0.14225766037E+03  0.54764371300E+02  0.19719755216E+03  0.12509117967E+03 0.  0.
        -24    2    1    2    0    0 -0.42054326992E+02  0.76238162862E+02  0.12607004488E+04  0.12662607764E+04  0.80435740861E+02 0.  0.
        -13    1    3    3    0    0  0.40005545345E+02  0.74138217925E+02 -0.16285020291E+03  0.18334968667E+03  0.00000000000E+00 0.  1.
         14    1    3    3    0    0  0.36898321207E+01 -0.81187204143E+01  0.63281946737E+01  0.10935013949E+02  0.00000000000E+00 0. -1.
         13    1    5    5    0    0 -0.42260558977E+02  0.91724566940E+02  0.99583727240E+03  0.10009451654E+04  0.00000000000E+00 0. -1.
        -14    1    5    5    0    0  0.20623198481E+00 -0.15486404078E+02  0.26486317638E+03  0.26531561101E+03  0.00000000000E+00 0.  1.
          5    1    4    4  501    0 -0.11262932300E+02 -0.11991804293E+03  0.92627018495E+02  0.15200140664E+03  0.41800000000E+01 0.  1.
         -5    1    4    4    0  501  0.96218818260E+01 -0.22339617443E+02 -0.37862647195E+02  0.45196145521E+02  0.41800000000E+01 0.  1.
</event>
<event>
11    1  0.6455215E-009  0.1318046E+03  0.7561462E-02  0.1117071E+00
         22   -1    0    0    0    0  0.00000000000E+00  0.00000000000E+00  0.19089167426E+04  0.19089167426E+04  0.00000000000E+00 0.  1.
         22   -1    0    0    0    0 -0.00000000000E+00 -0.00000000000E+00 -0.14193375050E+03  0.14193375050E+03  0.00000000000E+00 0. -1.
        -24    2    1    2    0    0  0.83414505816E+01 -0.26284228928E+02 -0.11838890466E+03  0.14697968160E+03  0.82623565447E+02 0.  0.
         25    2    1    2    0    0 -0.47143215680E+02  0.32111804553E+02  0.60851823978E+03  0.62385559978E+03  0.12509080885E+03 0.  0.
         24    2    1    2    0    0  0.38801765098E+02 -0.58275756247E+01  0.12768536570E+04  0.12800152117E+04  0.80895879206E+02 0.  0.
        -13    1    5    5    0    0  0.12075571884E+02  0.64875333114E+01  0.11377700943E+04  0.11378526684E+04  0.00000000000E+00 0.  1.
         14    1    5    5    0    0  0.26726193214E+02 -0.12315108936E+02  0.13908356267E+03  0.14216254330E+03  0.00000000000E+00 0. -1.
         11    1    3    3    0    0 -0.91644387896E-01 -0.28644876887E+02 -0.12961461877E+03  0.13274218158E+03  0.00000000000E+00 0. -1.
        -12    1    3    3    0    0  0.84330949695E+01  0.23606479586E+01  0.11225714109E+02  0.14237500020E+02  0.00000000000E+00 0.  1.
          5    1    4    4  501    0 -0.39963664173E+02 -0.29963621070E+02  0.45930263690E+03  0.46202954202E+03  0.41800000000E+01 0. -1.
         -5    1    4    4    0  501 -0.71795515067E+01  0.62075425623E+02  0.14921560288E+03  0.16182605776E+03  0.41800000000E+01 0. -1.
</event>
<event>
11    1  0.8809629E-009  0.1543132E+03  0.7561462E-02  0.1092551E+00
         22   -1    0    0    0    0  0.00000000000E+00  0.00000000000E+00  0.11775526338E+04  0.11775526338E+04  0.00000000000E+00 0.  1.
         22   -1    0    0    0    0 -0.00000000000E+00 -0.00000000000E+00 -0.36967258175E+03  0.36967258175E+03  0.00000000000E+00 0.  1.
         24    2    1    2    0    0 -0.13690544976E+02  0.34900965200E+02 -0.17258479759E+03  0.19338214082E+03  0.78775831546E+02 0.  0.
         25    2    1    2    0    0 -0.44203670679E+02 -0.10387387113E+03 -0.14477811482E+03  0.22215269189E+03  0.12508944951E+03 0.  0.
        -24    2    1    2    0    0  0.57894215655E+02  0.68972905929E+02  0.11252429644E+04  0.11316903828E+04  0.80264510283E+02 0.  0.
        -13    1    3    3    0    0  0.12038682931E+01  0.47366530854E+02 -0.16637603237E+03  0.17299139196E+03  0.00000000000E+00 0.  1.
         14    1    3    3    0    0 -0.14894413269E+02 -0.12465565653E+02 -0.62087652198E+01  0.20390748864E+02  0.00000000000E+00 0. -1.
         13    1    5    5    0    0  0.34361927571E+02  0.73816289960E+02  0.55492642723E+03  0.56086801153E+03  0.00000000000E+00 0. -1.
        -14    1    5    5    0    0  0.23532288084E+02 -0.48433840309E+01  0.57031653721E+03  0.57082237129E+03  0.00000000000E+00 0.  1.
          5    1    4    4  501    0  0.44909381544E+01 -0.11287219790E+03 -0.71983526931E+02  0.13401269393E+03  0.41800000000E+01 0.  1.
         -5    1    4    4    0  501 -0.48694608833E+02  0.89983267743E+01 -0.72794587884E+02  0.88139997954E+02  0.41800000000E+01 0.  1.
</event>
<event>
11    1  0.6455215E-009  0.1590745E+03  0.7561462E-02  0.1087951E+00
         22   -1    0    0    0    0  0.00000000000E+00  0.00000000000E+00  0.39680204507E+03  0.39680204507E+03  0.00000000000E+00 0.  1.
         22   -1    0    0    0    0 -0.00000000000E+00 -0.00000000000E+00 -0.59426322453E+03  0.59426322453E+03  0.00000000000E+00 0.  1.
        -24    2    1    2    0    0 -0.11838620272E+02 -0.92046637774E+01 -0.53043880766E+03  0.53672334303E+03  0.80509251125E+02 0.  0.
         25    2    1    2    0    0  0.10588948822E+03 -0.83052199288E+00  0.12621481281E+03  0.20686086379E+03  0.12509182433E+03 0.  0.
         24    2    1    2    0    0 -0.94050867945E+02  0.10035185770E+02  0.20676281540E+03  0.24748106277E+03  0.97722791013E+02 0.  0.
        -11    1    5    5    0    0 -0.90220919772E+02  0.15001205796E+02  0.21699393664E+03  0.23548082528E+03  0.00000000000E+00 0.  1.
         12    1    5    5    0    0 -0.38299481731E+01 -0.49660200255E+01 -0.10231121238E+02  0.12000237485E+02  0.00000000000E+00 0. -1.
         11    1    3    3    0    0 -0.43952433865E+02  0.24307549651E+01 -0.21635403833E+03  0.22078676345E+03  0.00000000000E+00 0. -1.
        -12    1    3    3    0    0  0.32113813593E+02 -0.11635418742E+02 -0.31408476933E+03  0.31593657958E+03  0.00000000000E+00 0.  1.
          5    1    4    4  501    0  0.44504831258E+01 -0.48279487783E+02  0.20514880593E+02  0.52811442570E+02  0.41800000000E+01 0.  1.
         -5    1    4    4    0  501  0.10143900509E+03  0.47448965790E+02  0.10569993222E+03  0.15404942122E+03  0.41800000000E+01 0.  1.
</event>
<event>
11    1  0.6455215E-009  0.1255324E+03  0.7561462E-02  0.1124883E+00
         22   -1    0    0    0    0  0.00000000000E+00  0.00000000000E+00  0.17352196910E+03  0.17352196910E+03  0.00000000000E+00 0. -1.
         22   -1    0    0    0    0 -0.00000000000E+00 -0.00000000000E+00 -0.67672596425E+03  0.67672596425E+03  0.00000000000E+00 0. -1.
        -24    2    1    2    0    0 -0.22750603273E+02 -0.33903816943E+01 -0.37254212886E+03  0.38205091334E+03  0.81524094418E+02 0.  0.
         25    2    1    2    0    0  0.32317546709E+02  0.21906762173E+01 -0.27255010502E+03  0.30162842330E+03  0.12508766170E+03 0.  0.
         24    2    1    2    0    0 -0.95669434351E+01  0.11997054770E+01  0.14188823873E+03  0.16656859671E+03  0.86717122994E+02 0.  0.
        -11    1    5    5    0    0 -0.21662092183E+02 -0.21333605835E+02  0.96765940967E+01  0.31906197658E+02  0.00000000000E+00 0.  1.
         12    1    5    5    0    0  0.12095148748E+02  0.22533311312E+02  0.13221164463E+03  0.13466239905E+03  0.00000000000E+00 0. -1.
         11    1    3    3    0    0  0.15833550306E+02 -0.10168190504E+02 -0.29078002594E+03  0.29138825800E+03  0.00000000000E+00 0. -1.
        -12    1    3    3    0    0 -0.38584153579E+02  0.67778088094E+01 -0.81762102923E+02  0.90662655345E+02  0.00000000000E+00 0.  1.
          5    1    4    4  501    0  0.59651410789E+02  0.40656018243E+02 -0.10485545205E+03  0.12737087914E+03  0.41800000000E+01 0. -1.
         -5    1    4    4    0  501 -0.27333864080E+02 -0.38465342026E+02 -0.16769465296E+03  0.17425754416E+03  0.41800000000E+01 0. -1.
</event>
<event>
11    1  0.6455215E-009  0.1940083E+03  0.7561462E-02  0.1058843E+00
         22   -1    0    0    0    0  0.00000000000E+00  0.00000000000E+00  0.12578158690E+03  0.12578158690E+03  0.00000000000E+00 0.  1.
         22   -1    0    0    0    0 -0.00000000000E+00 -0.00000000000E+00 -0.11610793974E+04  0.11610793974E+04  0.00000000000E+00 0.  1.
         24    2    1    2    0    0 -0.96229021700E+02  0.33763690188E+02 -0.79675008010E+03  0.80710321557E+03  0.78771181584E+02 0.  0.
         25    2    1    2    0    0  0.15589841287E+03  0.96980309130E+02 -0.22230009840E+03  0.31428380864E+03  0.12508990019E+03 0.  0.
        -24    2    1    2    0    0 -0.59669391165E+02 -0.13074399932E+03 -0.16247631963E+02  0.16547396006E+03  0.80394131081E+02 0.  0.
        -11    1    3    3    0    0 -0.10901527785E+03  0.21601552635E+02 -0.67752907024E+03  0.68658327893E+03  0.00000000000E+00 0.  1.
         12    1    3    3    0    0  0.12786256148E+02  0.12162137553E+02 -0.11922100986E+03  0.12051993664E+03  0.00000000000E+00 0. -1.
         11    1    5    5    0    0 -0.70385867718E+02 -0.68769710547E+02 -0.26114601127E+02  0.10181068635E+03  0.00000000000E+00 0. -1.
        -12    1    5    5    0    0  0.10716476552E+02 -0.61974288771E+02  0.98669691640E+01  0.63663273705E+02  0.00000000000E+00 0.  1.
          5    1    4    4  501    0  0.14317261639E+03  0.11370691130E+03 -0.14303347233E+03  0.23217171742E+03  0.41800000000E+01 0.  1.
         -5    1    4    4    0  501  0.12725796475E+02 -0.16726602174E+02 -0.79266626065E+02  0.82112091217E+02  0.41800000000E+01 0.  1.
</event>
<event>
11    1  0.6455215E-009  0.1433428E+03  0.7561462E-02  0.1103882E+00
         22   -1    0    0    0    0  0.00000000000E+00  0.00000000000E+00  0.69184882418E+03  0.69184882418E+03  0.00000000000E+00 0. -1.
         22   -1    0    0    0    0 -0.00000000000E+00 -0.00000000000E+00 -0.42387254617E+03  0.42387254617E+03  0.00000000000E+00 0.  1.
        -24    2    1    2    0    0 -0.61742002016E+02  0.30879674432E+02 -0.36916713912E+03  0.38398031842E+03  0.79942974802E+02 0.  0.
         25    2    1    2    0    0  0.79690789432E+02 -0.35563718714E+02  0.88350886391E+02  0.17626404020E+03  0.12509089788E+03 0.  0.
         24    2    1    2    0    0 -0.17948787416E+02  0.46840442824E+01  0.54879253074E+03  0.55547701173E+03  0.83889031058E+02 0.  0.
        -13    1    5    5    0    0 -0.32956943485E+02  0.34543540144E+02  0.22778930802E+03  0.23273887758E+03  0.00000000000E+00 0.  1.
         14    1    5    5    0    0  0.15008156069E+02 -0.29859495862E+02  0.32100322271E+03  0.32273813415E+03  0.00000000000E+00 0. -1.
         13    1    3    3    0    0  0.17862802599E+02 -0.38211608107E+01 -0.79783607490E+02  0.81848060519E+02  0.00000000000E+00 0. -1.
        -14    1    3    3    0    0 -0.79604804614E+02  0.34700835242E+02 -0.28938353163E+03  0.30213225790E+03  0.00000000000E+00 0.  1.
          5    1    4    4  501    0  0.43525977661E+02 -0.21253862062E+02  0.11770984197E+03  0.12735508109E+03  0.41800000000E+01 0.  1.
         -5    1    4    4    0  501  0.36164811771E+02 -0.14309856652E+02 -0.29358955579E+02  0.48908959102E+02  0.41800000000E+01 0.  1.
</event>
<event>
11    1  0.6455215E-009  0.2587168E+03  0.7561462E-02  0.1019355E+00
         22   -1    0    0    0    0  0.00000000000E+00  0.00000000000E+00  0.96533508108E+03  0.96533508108E+03  0.00000000000E+00 0. -1.
         22   -1    0    0    0    0 -0.00000000000E+00 -0.00000000000E+00 -0.55763111394E+03  0.55763111394E+03  0.00000000000E+00 0. -1.
        -24    2    1    2    0    0 -0.17329863382E+03  0.85168108214E+02 -0.21813818230E+03  0.30239499676E+03  0.81070613320E+02 0.  0.
         25    2    1    2    0    0  0.38642050060E+03 -0.11735679959E+03 -0.12002313132E+03  0.43948390398E+03  0.12508848112E+03 0.  0.
         24    2    1    2    0    0 -0.21312186678E+03  0.32188691371E+02  0.74586528076E+03  0.78108729427E+03  0.85587979737E+02 0.  0.
        -13    1    5    5    0    0  0.89375812931E+00 -0.44744846610E+01  0.91982255595E+02  0.92095359062E+02  0.00000000000E+00 0.  1.
         14    1    5    5    0    0 -0.21401562491E+03  0.36663176032E+02  0.65388302517E+03  0.68899193521E+03  0.00000000000E+00 0. -1.
         11    1    3    3    0    0 -0.61719115914E+02  0.53443094614E+02 -0.14149834242E+03  0.16336215761E+03  0.00000000000E+00 0. -1.
        -12    1    3    3    0    0 -0.11157951791E+03  0.31725013600E+02 -0.76639839887E+02  0.13903283915E+03  0.00000000000E+00 0.  1.
          5    1    4    4  501    0  0.32348695134E+03 -0.44794345526E+02 -0.95062131258E+02  0.34015382150E+03  0.41800000000E+01 0. -1.
         -5    1    4    4    0  501  0.62933549261E+02 -0.72562454059E+02 -0.24961000065E+02  0.99330082482E+02  0.41800000000E+01 0. -1.
</event>
<event>
11    1  0.6455215E-009  0.1371090E+03  0.7561462E-02  0.1110830E+00
         22   -1    0    0    0    0  0.00000000000E+00  0.00000000000E+00  0.95852099490E+02  0.95852099490E+02  0.00000000000E+00 0. -1.
         22   -1    0    0    0    0 -0.00000000000E+00 -0.00000000000E+00 -0.54759538418E+03  0.54759538418E+03  0.00000000000E+00 0. -1.
         24    2    1    2    0    0 -0.16262891747E+02 -0.54233678718E+02 -0.33636059957E+03  0.35067468441E+03  0.81415648295E+02 0.  0.
         25    2    1    2    0    0 -0.94490476819E+00  0.56465474834E+02 -0.15147857288E+03  0.20440666323E+03  0.12508830176E+03 0.  0.
        -24    2    1    2    0    0  0.17207796515E+02 -0.22317961152E+01  0.36095887754E+02  0.88366136036E+02  0.78769103781E+02 0.  0.
        -11    1    3    3    0    0 -0.22035563475E+02  0.27387697762E+01 -0.21864418980E+03  0.21976885278E+03  0.00000000000E+00 0.  1.
         12    1    3    3    0    0  0.57726717274E+01 -0.56972448495E+02 -0.11771640977E+03  0.13090583163E+03  0.00000000000E+00 0. -1.
         13    1    5    5    0    0 -0.25608303921E+02 -0.10762891132E+02  0.35014551021E+02  0.44695009100E+02  0.00000000000E+00 0. -1.
        -14    1    5    5    0    0  0.42816100437E+02  0.85310950164E+01  0.10813367330E+01  0.43671126937E+02  0.00000000000E+00 0.  1.
          5    1    4    4  501    0  0.50088098637E+02  0.65026097368E+02 -0.70847453860E+02  0.10850827195E+03  0.41800000000E+01 0. -1.
         -5    1    4    4    0  501 -0.51033003405E+02 -0.85606225345E+01 -0.80631119016E+02  0.95898391272E+02  0.41800000000E+01 0. -1.
</event>
<event>
11    1  0.6455215E-009  0.1308946E+03  0.7561462E-02  0.1118175E+00
         22   -1    0    0    0    0  0.00000000000E+00  0.00000000000E+00  0.14704904317E+03  0.14704904317E+03  0.00000000000E+00 0.  1.
         22   -1    0    0    0    0 -0.00000000000E+00 -0.00000000000E+00 -0.28762507107E+03  0.28762507107E+03  0.00000000000E+00 0.  1.
         24    2    1    2    0    0 -0.24512544708E+02  0.27431607816E+02 -0.12516688352E+03  0.15109696250E+03  0.76224572095E+02 0.  0.
         25    2    1    2    0    0  0.41907088676E+02 -0.18614036209E+02 -0.99382110703E+02  0.16621271702E+03  0.12508867633E+03 0.  0.
        -24    2    1    2    0    0 -0.17394543968E+02 -0.88175716075E+01  0.83972966317E+02  0.11736443473E+03  0.79640641250E+02 0.  0.
        -13    1    3    3    0    0 -0.47942889269E+02  0.89636700614E+01 -0.10288646508E+03  0.11386172627E+03  0.00000000000E+00 0.  1.
         14    1    3    3    0    0  0.23430344561E+02  0.18467937755E+02 -0.22280418436E+02  0.37235236227E+02  0.00000000000E+00 0. -1.
         13    1    5    5    0    0  0.21843906753E+02 -0.16454004485E+02  0.35794174768E+01  0.27580840366E+02  0.00000000000E+00 0. -1.
        -14    1    5    5    0    0 -0.39238450720E+02  0.76364328779E+01  0.80393548840E+02  0.89783594365E+02  0.00000000000E+00 0.  1.
          5    1    4    4  501    0 -0.36053508250E+02 -0.22055996667E+02 -0.36414562714E+01  0.42626928694E+02  0.41800000000E+01 0.  1.
         -5    1    4    4    0  501  0.77960596925E+02  0.34419604579E+01 -0.95740654432E+02  0.12358578832E+03  0.41800000000E+01 0.  1.
</event>
<event>
11    1  0.6455215E-009  0.1345833E+03  0.7561462E-02  0.1113762E+00
         22   -1    0    0    0    0  0.00000000000E+00  0.00000000000E+00  0.15444140939E+04  0.15444140939E+04  0.00000000000E+00 0.  1.
         22   -1    0    0    0    0 -0.00000000000E+00 -0.00000000000E+00 -0.15564883898E+03  0.15564883898E+03  0.00000000000E+00 0. -1.
        -24    2    1    2    0    0 -0.37230412837E+02  0.44752109324E+01 -0.61574848845E+02  0.10966910490E+03  0.82642116421E+02 0.  0.
         25    2    1    2    0    0  0.11824218783E+02 -0.47484038493E+02 -0.26383919818E+01  0.13435468947E+03  0.12509866269E+03 0.  0.
         24    2    1    2    0    0  0.25406194054E+02  0.43008827560E+02  0.14529784958E+04  0.14560391385E+04  0.80051419927E+02 0.  0.
        -13    1    5    5    0    0  0.23760281546E+02 -0.14980589044E+02  0.23380508077E+03  0.23548627310E+03  0.00000000000E+00 0.  1.
         14    1    5    5    0    0  0.16459125081E+01  0.57989416605E+02  0.12191734150E+04  0.12205528654E+04  0.00000000000E+00 0. -1.
         11    1    3    3    0    0 -0.45336426345E+02 -0.29934234322E+02 -0.45370279722E+02  0.70780733397E+02  0.00000000000E+00 0. -1.
        -12    1    3    3    0    0  0.81060135078E+01  0.34409445255E+02 -0.16204569123E+02  0.38888371504E+02  0.00000000000E+00 0.  1.
          5    1    4    4  501    0  0.20441187134E+01 -0.82532821129E+02 -0.30734628888E+02  0.88192600584E+02  0.41800000000E+01 0.  1.
         -5    1    4    4    0  501  0.97801000691E+01  0.35048782637E+02  0.28096236906E+02  0.46162088882E+02  0.41800000000E+01 0.  1.
</event>
<event>
11    1  0.6455215E-009  0.1777631E+03  0.7561462E-02  0.1071467E+00
         22   -1    0    0    0    0  0.00000000000E+00  0.00000000000E+00  0.11311795024E+04  0.11311795024E+04  0.00000000000E+00 0. -1.
         22   -1    0    0    0    0 -0.00000000000E+00 -0.00000000000E+00 -0.84003180833E+02  0.84003180833E+02  0.00000000000E+00 0.  1.
         24    2    1    2    0    0 -0.13308076244E+03  0.32633132904E+02  0.27452161773E+02  0.16126373557E+03  0.80479565914E+02 0.  0.
         25    2    1    2    0    0  0.78062704203E+02  0.29546628177E+02  0.48296461176E+03  0.50583212301E+03  0.12507810133E+03 0.  0.
        -24    2    1    2    0    0  0.55018058235E+02 -0.62179761081E+02  0.53675954799E+03  0.54808682461E+03  0.73450973660E+02 0.  0.
        -11    1    3    3    0    0 -0.38628759239E+02  0.16877527887E+02 -0.28002702298E+02  0.50608134957E+02  0.00000000000E+00 0.  1.
         12    1    3    3    0    0 -0.94452003200E+02  0.15755605017E+02  0.55454864071E+02  0.11065560061E+03  0.00000000000E+00 0. -1.
         13    1    5    5    0    0  0.66590624520E+02 -0.28367355337E+02  0.41199185400E+03  0.41830169242E+03  0.00000000000E+00 0. -1.
        -14    1    5    5    0    0 -0.11572566285E+02 -0.33812405744E+02  0.12476769399E+03  0.12978513218E+03  0.00000000000E+00 0.  1.
          5    1    4    4  501    0  0.29739664176E+02 -0.68452297687E+01  0.15557665763E+02  0.34508233219E+02  0.41800000000E+01 0.  1.
         -5    1    4    4    0  501  0.48323040027E+02  0.36391857946E+02  0.46740694600E+03  0.47132388979E+03  0.41800000000E+01 0.  1.
</event>
<event>
11    1  0.6455215E-009  0.1870731E+03  0.7561462E-02  0.1064061E+00
         22   -1    0    0    0    0  0.00000000000E+00  0.00000000000E+00  0.26593309007E+03  0.26593309007E+03  0.00000000000E+00 0. -1.
         22   -1    0    0    0    0 -0.00000000000E+00 -0.00000000000E+00 -0.29132567672E+04  0.29132567672E+04  0.00000000000E+00 0. -1.
        -24    2    1    2    0    0 -0.14541999064E+02  0.62285378247E+02 -0.26940508037E+04  0.26959800167E+04  0.79420273109E+02 0.  0.
         25    2    1    2    0    0 -0.28172300259E+01  0.84623134869E+02 -0.15754640593E+03  0.21826093102E+03  0.12509177530E+03 0.  0.
         24    2    1    2    0    0  0.17359229089E+02 -0.14690851312E+03  0.20427353249E+03  0.26494890950E+03  0.81159069193E+02 0.  0.
        -13    1    5    5    0    0 -0.57469572425E+00  0.16981038598E+00 -0.69298096299E+01  0.69556719481E+01  0.00000000000E+00 0.  1.
         14    1    5    5    0    0  0.17933924814E+02 -0.14707832350E+03  0.21120334212E+03  0.25799323756E+03  0.00000000000E+00 0. -1.
         13    1    3    3    0    0 -0.82996885039E+00  0.20290480917E+02 -0.21628745023E+04  0.21629698346E+04  0.00000000000E+00 0. -1.
        -14    1    3    3    0    0 -0.13712030213E+02  0.41994897329E+02 -0.53117630131E+03  0.53301018213E+03  0.00000000000E+00 0.  1.
          5    1    4    4  501    0  0.53849008130E+02  0.83437596411E+01 -0.71536193798E+02  0.90023515954E+02  0.41800000000E+01 0. -1.
         -5    1    4    4    0  501 -0.56666238156E+02  0.76279375227E+02 -0.86010212132E+02  0.12823741507E+03  0.41800000000E+01 0. -1.
</event>
<event>
11    1  0.6455215E-009  0.1480220E+03  0.7561462E-02  0.1098917E+00
         22   -1    0    0    0    0  0.00000000000E+00  0.00000000000E+00  0.15329145193E+04  0.15329145193E+04  0.00000000000E+00 0.  1.
         22   -1    0    0    0    0 -0.00000000000E+00 -0.00000000000E+00 -0.38429879270E+03  0.38429879270E+03  0.00000000000E+00 0. -1.
         24    2    1    2    0    0 -0.76421591954E+02  0.15850908796E+02 -0.32176312116E+03  0.34055237672E+03  0.79705107282E+02 0.  0.
         25    2    1    2    0    0  0.78461503623E+02 -0.85447569156E+02  0.91304733296E+02  0.19349061036E+03  0.12507824492E+03 0.  0.
        -24    2    1    2    0    0 -0.20399116690E+01  0.69596660360E+02  0.13790741145E+04  0.13831703250E+04  0.80416902241E+02 0.  0.
        -11    1    3    3    0    0  0.52717828546E+01  0.15547358098E+01  0.23640299505E+01  0.59831041702E+01  0.00000000000E+00 0.  1.
         12    1    3    3    0    0 -0.81693374809E+02  0.14296172986E+02 -0.32412715111E+03  0.33456927255E+03  0.00000000000E+00 0. -1.
         13    1    5    5    0    0  0.10170666901E+01  0.18795092005E+02  0.55249199597E+02  0.58367490646E+02  0.00000000000E+00 0. -1.
        -14    1    5    5    0    0 -0.30569783592E+01  0.50801568355E+02  0.13238249149E+04  0.13248028343E+04  0.00000000000E+00 0.  1.
          5    1    4    4  501    0 -0.32210540970E+02 -0.32568021970E+01  0.18977788552E+02  0.37759165357E+02  0.41800000000E+01 0. -1.
         -5    1    4    4    0  501  0.11067204459E+03 -0.82190766959E+02  0.72326944743E+02  0.15573144501E+03  0.41800000000E+01 0. -1.
</event>
<event>
11    1  0.6455215E-009  0.2693119E+03  0.7561462E-02  0.1014086E+00
         22   -1    0    0    0    0  0.00000000000E+00  0.00000000000E+00  0.14326684642E+04  0.14326684642E+04  0.00000000000E+00 0. -1.
         22   -1    0    0    0    0 -0.00000000000E+00 -0.00000000000E+00 -0.26282274924E+04  0.26282274924E+04  0.00000000000E+00 0.  1.
        -24    2    1    2    0    0 -0.35845794661E+02 -0.26778544993E+02 -0.25443598064E+04  0.25465241455E+04  0.94954663100E+02 0.  0.
         25    2    1    2    0    0 -0.13317651246E+03 -0.15150036007E+03  0.13384459467E+03  0.27248896475E+03  0.12509003885E+03 0.  0.
         24    2    1    2    0    0  0.16902230712E+03  0.17827890506E+03  0.12149561835E+04  0.12418828464E+04  0.76174588684E+02 0.  0.
        -11    1    5    5    0    0 -0.59003751789E+01  0.47978952601E+01  0.14140114960E+02  0.16055437623E+02  0.00000000000E+00 0.  1.
         12    1    5    5    0    0  0.17492268230E+03  0.17348100980E+03  0.12008160686E+04  0.12258274088E+04  0.00000000000E+00 0. -1.
         13    1    3    3    0    0  0.22802933752E+01 -0.20489291253E+02 -0.11349168270E+03  0.11534891779E+03  0.00000000000E+00 0. -1.
        -14    1    3    3    0    0 -0.38126088036E+02 -0.62892537398E+01 -0.24308681237E+04  0.24311752277E+04  0.00000000000E+00 0.  1.
          5    1    4    4  501    0 -0.23723249959E+02 -0.10351395023E+03  0.10516161500E+03  0.14951377244E+03  0.41800000000E+01 0.  1.
         -5    1    4    4    0  501 -0.10945326250E+03 -0.47986409838E+02  0.28682979663E+02  0.12297519231E+03  0.41800000000E+01 0.  1.
</event>
<event>
11    1  0.6455215E-009  0.1506036E+03  0.7561462E-02  0.1096264E+00
         22   -1    0    0    0    0  0.00000000000E+00  0.00000000000E+00  0.20198777679E+02  0.20198777679E+02  0.00000000000E+00 0.  1.
         22   -1    0    0    0    0 -0.00000000000E+00 -0.00000000000E+00 -0.18282334527E+04  0.18282334527E+04  0.00000000000E+00 0.  1.
         24    2    1    2    0    0  0.30971325428E+02 -0.35341496511E+02 -0.74509170519E+03  0.75008465230E+03  0.72505807389E+02 0.  0.
         25    2    1    2    0    0 -0.10177677785E+03  0.43586884137E+02 -0.70209576805E+03  0.72169540100E+03  0.12508978905E+03 0.  0.
        -24    2    1    2    0    0  0.70805452427E+02 -0.82453876260E+01 -0.36084720181E+03  0.37665217711E+03  0.81084899675E+02 0.  0.
        -11    1    3    3    0    0  0.50512566381E+02 -0.18232139675E+02 -0.62021008209E+03  0.62253070302E+03  0.00000000000E+00 0.  1.
         12    1    3    3    0    0 -0.19541240953E+02 -0.17109356835E+02 -0.12488162310E+03  0.12755394928E+03  0.00000000000E+00 0. -1.
         11    1    5    5    0    0  0.95599774518E+01 -0.35908623716E+02 -0.85561794314E+02  0.93282597908E+02  0.00000000000E+00 0. -1.
        -12    1    5    5    0    0  0.61245474975E+02  0.27663236090E+02 -0.27528540750E+03  0.28336957920E+03  0.00000000000E+00 0.  1.
          5    1    4    4  501    0  0.24090898606E+02  0.13408957054E+01 -0.44261706413E+02  0.50583994025E+02  0.41800000000E+01 0. -1.
         -5    1    4    4    0  501 -0.12586767646E+03  0.42245988431E+02 -0.65783406164E+03  0.67111140698E+03  0.41800000000E+01 0. -1.
</event>
<event>
11    1  0.6455215E-009  0.1759049E+03  0.7561462E-02  0.1073004E+00
         22   -1    0    0    0    0  0.00000000000E+00  0.00000000000E+00  0.31003299249E+03  0.31003299249E+03  0.00000000000E+00 0. -1.
         22   -1    0    0    0    0 -0.00000000000E+00 -0.00000000000E+00 -0.13339122222E+04  0.13339122222E+04  0.00000000000E+00 0. -1.
         24    2    1    2    0    0  0.18031653870E+02  0.47812371968E+02 -0.12207488436E+04  0.12244989331E+04  0.80986014804E+02 0.  0.
         25    2    1    2    0    0 -0.12307836697E+03 -0.94724320466E+02  0.30829910044E+02  0.20178990581E+03  0.12509077275E+03 0.  0.
        -24    2    1    2    0    0  0.10504671310E+03  0.46911948498E+02  0.16603970385E+03  0.21765637577E+03  0.81052895137E+02 0.  0.
        -11    1    3    3    0    0  0.49284625375E+02  0.27301602291E+02 -0.60556107100E+03  0.60817642383E+03  0.00000000000E+00 0.  1.
         12    1    3    3    0    0 -0.31252971504E+02  0.20510769677E+02 -0.61518777256E+03  0.61632250925E+03  0.00000000000E+00 0. -1.
         11    1    5    5    0    0  0.10628854650E+03  0.42010302920E+02  0.17402842420E+03  0.20820185662E+03  0.00000000000E+00 0. -1.
        -12    1    5    5    0    0 -0.12418333999E+01  0.49016455778E+01 -0.79887203463E+01  0.94545191488E+01  0.00000000000E+00 0.  1.
          5    1    4    4  501    0 -0.17735014585E+02 -0.59172116592E+02  0.60580215096E+02  0.86621619619E+02  0.41800000000E+01 0.  1.
         -5    1    4    4    0  501 -0.10534335239E+03 -0.35552203874E+02 -0.29750305052E+02  0.11516828619E+03  0.41800000000E+01 0.  1.
</event>
<event>
11    1  0.6455215E-009  0.1941941E+03  0.7561462E-02  0.1058707E+00
         22   -1    0    0    0    0  0.00000000000E+00  0.00000000000E+00  0.37737125657E+03  0.37737125657E+03  0.00000000000E+00 0. -1.
         22   -1    0    0    0    0 -0.00000000000E+00 -0.00000000000E+00 -0.89689459143E+03  0.89689459143E+03  0.00000000000E+00 0.  1.
         24    2    1    2    0    0 -0.64196927775E+01 -0.13132615774E+02 -0.66570585274E+03  0.67041014968E+03  0.77921809351E+02 0.  0.
         25    2    1    2    0    0  0.12525536257E+03 -0.76406217176E+02 -0.16246111447E+03  0.25212794990E+03  0.12509226007E+03 0.  0.
        -24    2    1    2    0    0 -0.11883566980E+03  0.89538832950E+02  0.30864363235E+03  0.35172774841E+03  0.79450602192E+02 0.  0.
        -13    1    3    3    0    0  0.11353905381E+02 -0.85874150516E+00 -0.61728585479E+03  0.61739086090E+03  0.00000000000E+00 0.  1.
         14    1    3    3    0    0 -0.17773598159E+02 -0.12273874269E+02 -0.48419997952E+02  0.53019288780E+02  0.00000000000E+00 0. -1.
         11    1    5    5    0    0 -0.10265653095E+03  0.10223784016E+03  0.28901714997E+03  0.32329839512E+03  0.00000000000E+00 0. -1.
        -12    1    5    5    0    0 -0.16179138846E+02 -0.12699007213E+02  0.19626482378E+02  0.28429353291E+02  0.00000000000E+00 0.  1.
          5    1    4    4  501    0  0.90625785767E+02  0.15887924435E+02 -0.60217863592E+02  0.11004145893E+03  0.41800000000E+01 0.  1.
         -5    1    4    4    0  501  0.34629576807E+02 -0.92294141611E+02 -0.10224325088E+03  0.14208649097E+03  0.41800000000E+01 0.  1.
</event>
<event>
11    1  0.6455215E-009  0.1556611E+03  0.7561462E-02  0.1091231E+00
         22   -1    0    0    0    0  0.00000000000E+00  0.00000000000E+00  0.41146342148E+03  0.41146342148E+03  0.00000000000E+00 0. -1.
         22   -1    0    0    0    0 -0.00000000000E+00 -0.00000000000E+00 -0.20871876070E+04  0.20871876070E+04  0.00000000000E+00 0.  1.
         24    2    1    2    0    0 -0.23841321205E+02 -0.56156343894E+02 -0.20212234608E+04  0.20237295199E+04  0.80093370248E+02 0.  0.
         25    2    1    2    0    0  0.25595942933E+02 -0.48020624287E+02  0.39965652233E+02  0.14216715977E+03  0.12511241069E+03 0.  0.
        -24    2    1    2    0    0 -0.17546217280E+01  0.10417696818E+03  0.30553362300E+03  0.33275434879E+03  0.80738729576E+02 0.  0.
        -13    1    3    3    0    0 -0.41982608309E+02 -0.42550143392E+02 -0.18554071099E+04  0.18563697362E+04  0.00000000000E+00 0.  1.
         14    1    3    3    0    0  0.18141287104E+02 -0.13606200502E+02 -0.16581635091E+03  0.16735978376E+03  0.00000000000E+00 0. -1.
         13    1    5    5    0    0 -0.29926612644E+02  0.98619929530E+02  0.24218433791E+03  0.26320096157E+03  0.00000000000E+00 0. -1.
        -14    1    5    5    0    0  0.28171990916E+02  0.55570386507E+01  0.63349285099E+02  0.69553387217E+02  0.00000000000E+00 0.  1.
          5    1    4    4  501    0  0.20948980042E+02 -0.85235062873E+02  0.93320584305E+00  0.87876157068E+02  0.41800000000E+01 0.  1.
         -5    1    4    4    0  501  0.46469628913E+01  0.37214438586E+02  0.39032446390E+02  0.54291002704E+02  0.41800000000E+01 0.  1.
</event>
<event>
11    1  0.6455215E-009  0.2813154E+03  0.7561462E-02  0.1008424E+00
         22   -1    0    0    0    0  0.00000000000E+00  0.00000000000E+00  0.97290525405E+03  0.97290525405E+03  0.00000000000E+00 0.  1.
         22   -1    0    0    0    0 -0.00000000000E+00 -0.00000000000E+00 -0.17871177192E+03  0.17871177192E+03  0.00000000000E+00 0. -1.
        -24    2    1    2    0    0 -0.32894227838E+02  0.19356635106E+03  0.80467643356E+02  0.22637657747E+03  0.78875539386E+02 0.  0.
         25    2    1    2    0    0  0.17411114208E+03  0.11280966587E+03  0.28427188725E+03  0.37349529600E+03  0.12509004653E+03 0.  0.
         24    2    1    2    0    0 -0.14121691424E+03 -0.30637601693E+03  0.42945395152E+03  0.55174515249E+03  0.78635464032E+02 0.  0.
        -11    1    5    5    0    0 -0.11905231697E+02 -0.57258296449E+02  0.12289998948E+03  0.13610530654E+03  0.00000000000E+00 0.  1.
         12    1    5    5    0    0 -0.12931168254E+03 -0.24911772048E+03  0.30655396204E+03  0.41563984595E+03  0.00000000000E+00 0. -1.
         11    1    3    3    0    0 -0.35141741643E+02  0.64995676190E+02 -0.14651564022E+01  0.73902142137E+02  0.00000000000E+00 0. -1.
        -12    1    3    3    0    0  0.22475138058E+01  0.12857067487E+03  0.81932799758E+02  0.15247443534E+03  0.00000000000E+00 0.  1.
          5    1    4    4  501    0 -0.18290915856E+02  0.64935262955E+01  0.41239377795E+02  0.45769882756E+02  0.41800000000E+01 0. -1.
         -5    1    4    4    0  501  0.19240205793E+03  0.10631613958E+03  0.24303250946E+03  0.32772541324E+03  0.41800000000E+01 0. -1.
</event>
<event>
11    1  0.6455215E-009  0.1590866E+03  0.7561462E-02  0.1087940E+00
         22   -1    0    0    0    0  0.00000000000E+00  0.00000000000E+00  0.57573628465E+03  0.57573628465E+03  0.00000000000E+00 0. -1.
         22   -1    0    0    0    0 -0.00000000000E+00 -0.00000000000E+00 -0.37322563373E+03  0.37322563373E+03  0.00000000000E+00 0.  1.
        -24    2    1    2    0    0  0.91069086016E+01  0.20074868139E+02 -0.32096878785E+03  0.33251256118E+03  0.84010144938E+02 0.  0.
         25    2    1    2    0    0 -0.21832676153E+02 -0.11279597253E+03  0.16313678560E+03  0.23550459305E+03  0.12509678399E+03 0.  0.
         24    2    1    2    0    0  0.12725767552E+02  0.92721104394E+02  0.36034265318E+03  0.38094476415E+03  0.80702771147E+02 0.  0.
        -13    1    5    5    0    0 -0.14728790801E+02 -0.87427501011E+01  0.33646731933E+02  0.37755470167E+02  0.00000000000E+00 0.  1.
         14    1    5    5    0    0  0.27454558352E+02  0.10146385449E+03  0.32669592124E+03  0.34318929398E+03  0.00000000000E+00 0. -1.
         11    1    3    3    0    0  0.24419770405E+02 -0.27415742684E+02 -0.14843515384E+03  0.15290828307E+03  0.00000000000E+00 0. -1.
        -12    1    3    3    0    0 -0.15312861804E+02  0.47490610822E+02 -0.17253363401E+03  0.17960427811E+03  0.00000000000E+00 0.  1.
          5    1    4    4  501    0 -0.63781182527E+02 -0.23198340513E+02  0.45865358678E+02  0.82020154680E+02  0.41800000000E+01 0.  1.
         -5    1    4    4    0  501  0.41948506374E+02 -0.89597632019E+02  0.11727142692E+03  0.15348443837E+03  0.41800000000E+01 0.  1.
</event>
<event>
11    1  0.6455215E-009  0.1522072E+03  0.7561462E-02  0.1094645E+00
         22   -1    0    0    0    0  0.00000000000E+00  0.00000000000E+00  0.27922170429E+04  0.27922170429E+04  0.00000000000E+00 0.  1.
         22   -1    0    0    0    0 -0.00000000000E+00 -0.00000000000E+00 -0.29097728547E+04  0.29097728547E+04  0.00000000000E+00 0. -1.
        -24    2    1    2    0    0 -0.55119004986E+02 -0.67822094016E+02 -0.28704196627E+04  0.28728780949E+04  0.80508178762E+02 0.  0.
         25    2    1    2    0    0  0.21326502331E+02  0.15228778221E+02  0.72765886440E+02  0.14707244587E+03  0.12509474297E+03 0.  0.
         24    2    1    2    0    0  0.33792502656E+02  0.52593315795E+02  0.26800979644E+04  0.26820393569E+04  0.80635121564E+02 0.  0.
        -13    1    5    5    0    0  0.43379142265E+02  0.38127913905E+02  0.25641137229E+04  0.25647640577E+04  0.00000000000E+00 0.  1.
         14    1    5    5    0    0 -0.95866396092E+01  0.14465401890E+02  0.11598424149E+03  0.11727529912E+03  0.00000000000E+00 0. -1.
         11    1    3    3    0    0 -0.53959391078E+02 -0.83881355382E+02 -0.21926978274E+04  0.21949650248E+04  0.00000000000E+00 0. -1.
        -12    1    3    3    0    0 -0.11596139080E+01  0.16059261366E+02 -0.67772183528E+03  0.67791307008E+03  0.00000000000E+00 0.  1.
          5    1    4    4  501    0  0.13236751814E+02  0.63681074436E+02  0.72879080967E+02  0.97771793901E+02  0.41800000000E+01 0.  1.
         -5    1    4    4    0  501  0.80897505167E+01 -0.48452296215E+02 -0.11319452709E+00  0.49300651973E+02  0.41800000000E+01 0.  1.
</event>
<event>
11    1  0.6455215E-009  0.1580298E+03  0.7561462E-02  0.1088945E+00
         22   -1    0    0    0    0  0.00000000000E+00  0.00000000000E+00  0.10920455264E+04  0.10920455264E+04  0.00000000000E+00 0.  1.
         22   -1    0    0    0    0 -0.00000000000E+00 -0.00000000000E+00 -0.40214243428E+03  0.40214243428E+03  0.00000000000E+00 0. -1.
        -24    2    1    2    0    0  0.85135345380E+02 -0.45778822300E+02 -0.37098485015E+03  0.39155656350E+03  0.79643303390E+02 0.  0.
         25    2    1    2    0    0 -0.86582416743E+02  0.36875226995E+02  0.30141386319E+03  0.33963790983E+03  0.12508915068E+03 0.  0.
         24    2    1    2    0    0  0.14470713628E+01  0.89035953050E+01  0.75947407909E+03  0.76299348735E+03  0.72641702320E+02 0.  0.
        -11    1    5    5    0    0  0.17549430363E+02 -0.27816855756E+02  0.37144991609E+03  0.37290320478E+03  0.00000000000E+00 0.  1.
         12    1    5    5    0    0 -0.16102359000E+02  0.36720451061E+02  0.38802416300E+03  0.39009028258E+03  0.00000000000E+00 0. -1.
         11    1    3    3    0    0  0.19747671558E+02 -0.36149445262E+02 -0.25290843603E+03  0.25624096070E+03  0.00000000000E+00 0. -1.
        -12    1    3    3    0    0  0.65387673821E+02 -0.96293770386E+01 -0.11807641412E+03  0.13531560280E+03  0.00000000000E+00 0.  1.
          5    1    4    4  501    0 -0.20901677310E+02  0.53766801813E+01  0.24859079704E+03  0.24956090555E+03  0.41800000000E+01 0. -1.
         -5    1    4    4    0  501 -0.65680739433E+02  0.31498546814E+02  0.52823066151E+02  0.90077004288E+02  0.41800000000E+01 0. -1.
</event>
<event>
11    1  0.6455215E-009  0.1992413E+03  0.7561462E-02  0.1055061E+00
         22   -1    0    0    0    0  0.00000000000E+00  0.00000000000E+00  0.49680230047E+03  0.49680230047E+03  0.00000000000E+00 0.  1.
         22   -1    0    0    0    0 -0.00000000000E+00 -0.00000000000E+00 -0.28849475715E+03  0.28849475715E+03  0.00000000000E+00 0.  1.
        -24    2    1    2    0    0  0.10503397023E+03 -0.39269828879E+02 -0.15351361048E+03  0.20637783732E+03  0.80318919133E+02 0.  0.
         25    2    1    2    0    0 -0.16606225792E+03 -0.99774065961E+02  0.70942342232E+02  0.24126940135E+03  0.12508625168E+03 0.  0.
         24    2    1    2    0    0  0.61028287691E+02  0.13904389484E+03  0.29087881156E+03  0.33764981895E+03  0.79619473942E+02 0.  0.
        -13    1    5    5    0    0  0.77289114629E+02  0.94810794084E+02  0.18533779478E+03  0.22206483758E+03  0.00000000000E+00 0.  1.
         14    1    5    5    0    0 -0.16260826939E+02  0.44233100755E+02  0.10554101678E+03  0.11558498137E+03  0.00000000000E+00 0. -1.
         13    1    3    3    0    0  0.46678781512E+02 -0.59946346852E+02 -0.87225795305E+02  0.11567546201E+03  0.00000000000E+00 0. -1.
        -14    1    3    3    0    0  0.58355188722E+02  0.20676517974E+02 -0.66287815173E+02  0.90702375309E+02  0.00000000000E+00 0.  1.
          5    1    4    4  501    0 -0.49652357361E+02  0.27922436225E+02  0.25496374244E+02  0.62550431940E+02  0.41800000000E+01 0.  1.
         -5    1    4    4    0  501 -0.11640990056E+03 -0.12769650219E+03  0.45445967987E+02  0.17871896941E+03  0.41800000000E+01 0.  1.
</event>
<event>
11    1  0.6455215E-009  0.4366559E+03  0.7561462E-02  0.9547394E-01
         22   -1    0    0    0    0  0.00000000000E+00  0.00000000000E+00  0.16178287037E+04  0.16178287037E+04  0.00000000000E+00 0. -1.
         22   -1    0    0    0    0 -0.00000000000E+00 -0.00000000000E+00 -0.61755268737E+03  0.61755268737E+03  0.00000000000E+00 0.  1.
        -24    2    1    2    0    0  0.40023569796E+03  0.84734842185E+02 -0.34061603566E+03  0.53853990918E+03  0.81469887912E+02 0.  0.
         25    2    1    2    0    0 -0.43851258944E+03 -0.86265779543E+02  0.12889795007E+03  0.48166087694E+03  0.12508973987E+03 0.  0.
         24    2    1    2    0    0  0.38276891483E+02  0.15309373579E+01  0.12119941019E+04  0.12151806049E+04  0.79162714401E+02 0.  0.
        -11    1    5    5    0    0 -0.10947235455E+02 -0.28322677709E+02  0.42728511552E+03  0.42836268043E+03  0.00000000000E+00 0.  1.
         12    1    5    5    0    0  0.49224126938E+02  0.29853615067E+02  0.78470898641E+03  0.78681792452E+03  0.00000000000E+00 0. -1.
         11    1    3    3    0    0  0.98411701275E+02  0.10071793597E+02 -0.42094585854E+02  0.10750933974E+03  0.00000000000E+00 0. -1.
        -12    1    3    3    0    0  0.30182399668E+03  0.74663048589E+02 -0.29852144980E+03  0.43103056944E+03  0.00000000000E+00 0.  1.
          5    1    4    4  501    0 -0.20566520836E+03 -0.77786180481E+02  0.10264404136E+02  0.22016289015E+03  0.41800000000E+01 0. -1.
         -5    1    4    4    0  501 -0.23284738108E+03 -0.84795990620E+01  0.11863354594E+03  0.26149798679E+03  0.41800000000E+01 0. -1.
</event>
<event>
11    1  0.6455215E-009  0.1905117E+03  0.7561462E-02  0.1061444E+00
         22   -1    0    0    0    0  0.00000000000E+00  0.00000000000E+00  0.37056839254E+04  0.37056839254E+04  0.00000000000E+00 0.  1.
         22   -1    0    0    0    0 -0.00000000000E+00 -0.00000000000E+00 -0.92646752120E+02  0.92646752120E+02  0.00000000000E+00 0. -1.
         24    2    1    2    0    0 -0.97492682347E+02  0.44429426449E+02 -0.24486099905E+02  0.13579669709E+03  0.79764508438E+02 0.  0.
         25    2    1    2    0    0  0.79522424279E+02 -0.17833615183E+03  0.13672859576E+04  0.13868114530E+04  0.12509003675E+03 0.  0.
        -24    2    1    2    0    0  0.17970258068E+02  0.13390672538E+03  0.22702373156E+04  0.22757225274E+04  0.81741125057E+02 0.  0.
        -11    1    3    3    0    0 -0.38942376521E+02 -0.70347782016E+01  0.21757043641E+02  0.45159337256E+02  0.00000000000E+00 0.  1.
         12    1    3    3    0    0 -0.58550305826E+02  0.51464204651E+02 -0.46243143546E+02  0.90637359834E+02  0.00000000000E+00 0. -1.
         13    1    5    5    0    0 -0.14011064347E+02  0.76133450346E+02  0.73492418037E+03  0.73898996142E+03  0.00000000000E+00 0. -1.
        -14    1    5    5    0    0  0.31981322416E+02  0.57773275035E+02  0.15353131352E+04  0.15367325660E+04  0.00000000000E+00 0.  1.
          5    1    4    4  501    0  0.16227425221E+02 -0.15066108605E+03  0.11130032029E+04  0.11232789922E+04  0.41800000000E+01 0. -1.
         -5    1    4    4    0  501  0.63294999057E+02 -0.27675065778E+02  0.25428275470E+03  0.26353246083E+03  0.41800000000E+01 0. -1.
</event>
<event>
11    1  0.6455215E-009  0.2345926E+03  0.7561462E-02  0.1032443E+00
         22   -1    0    0    0    0  0.00000000000E+00  0.00000000000E+00  0.17158437719E+04  0.17158437719E+04  0.00000000000E+00 0. -1.
         22   -1    0    0    0    0 -0.00000000000E+00 -0.00000000000E+00 -0.13021093078E+04  0.13021093078E+04  0.00000000000E+00 0. -1.
        -24    2    1    2    0    0  0.16991202442E+02 -0.31374433682E+02 -0.87050834512E+03  0.87490258478E+03  0.79979359095E+02 0.  0.
         25    2    1    2    0    0  0.17341661242E+03  0.87750428483E+02 -0.39093296765E+03  0.45414635597E+03  0.12508744254E+03 0.  0.
         24    2    1    2    0    0 -0.19040781486E+03 -0.56375994801E+02  0.16751757769E+04  0.16889041390E+04  0.82157888030E+02 0.  0.
        -11    1    5    5    0    0 -0.36510194536E+02  0.15214526689E+02  0.49605324449E+03  0.49762766954E+03  0.00000000000E+00 0.  1.
         12    1    5    5    0    0 -0.15389762033E+03 -0.71590521490E+02  0.11791225324E+04  0.11912764694E+04  0.00000000000E+00 0. -1.
         11    1    3    3    0    0  0.12050053017E+02 -0.17747836268E+02 -0.84708861520E+03  0.84736020173E+03  0.00000000000E+00 0. -1.
        -12    1    3    3    0    0  0.49411494252E+01 -0.13626597413E+02 -0.23419729924E+02  0.27542383056E+02  0.00000000000E+00 0.  1.
          5    1    4    4  501    0 -0.14789884745E+02 -0.48096090138E+01 -0.91387646382E+01  0.18516545270E+02  0.41800000000E+01 0. -1.
         -5    1    4    4    0  501  0.18820649716E+03  0.92560037497E+02 -0.38179420301E+03  0.43562981070E+03  0.41800000000E+01 0. -1.
</event>
<event>
11    1  0.6455215E-009  0.4046504E+03  0.7561462E-02  0.9636135E-01
         22   -1    0    0    0    0  0.00000000000E+00  0.00000000000E+00  0.12934053385E+04  0.12934053385E+04  0.00000000000E+00 0.  1.
         22   -1    0    0    0    0 -0.00000000000E+00 -0.00000000000E+00 -0.29014474337E+03  0.29014474337E+03  0.00000000000E+00 0. -1.
        -24    2    1    2    0    0 -0.46420769057E+02 -0.22101285583E+02 -0.13178045934E+03  0.16279505037E+03  0.80577815413E+02 0.  0.
         25    2    1    2    0    0  0.41474104213E+03  0.51914090755E+02  0.39065868890E+03  0.58563443794E+03  0.12509308073E+03 0.  0.
         24    2    1    2    0    0 -0.36832027307E+03 -0.29812805173E+02  0.74438236561E+03  0.83512059362E+03  0.82296249886E+02 0.  0.
        -13    1    5    5    0    0 -0.22959525623E+03 -0.27175038643E+02  0.54697249874E+03  0.59382773494E+03  0.00000000000E+00 0.  1.
         14    1    5    5    0    0 -0.13872501684E+03 -0.26377665295E+01  0.19740986687E+03  0.24129285868E+03  0.00000000000E+00 0. -1.
         13    1    3    3    0    0 -0.55835190419E+02  0.20529714711E+01 -0.12354898073E+03  0.13559547862E+03  0.00000000000E+00 0. -1.
        -14    1    3    3    0    0  0.94144213611E+01 -0.24154257054E+02 -0.82314786018E+01  0.27199571749E+02  0.00000000000E+00 0.  1.
          5    1    4    4  501    0  0.11871075649E+03 -0.37618451077E+02  0.14084862740E+03  0.18805105639E+03  0.41800000000E+01 0.  1.
         -5    1    4    4    0  501  0.29603028563E+03  0.89532541832E+02  0.24981006150E+03  0.39758338155E+03  0.41800000000E+01 0.  1.
</event>
<event>
11    1  0.6455215E-009  0.1919879E+03  0.7561462E-02  0.1060339E+00
         22   -1    0    0    0    0  0.00000000000E+00  0.00000000000E+00  0.42085724894E+03  0.42085724894E+03  0.00000000000E+00 0. -1.
         22   -1    0    0    0    0 -0.00000000000E+00 -0.00000000000E+00 -0.39746833677E+03  0.39746833677E+03  0.00000000000E+00 0.  1.
        -24    2    1    2    0    0 -0.14053776761E+03  0.25762234756E+01 -0.22652674225E+03  0.27874245227E+03  0.81397104920E+02 0.  0.
         25    2    1    2    0    0  0.15888968815E+03  0.96114027509E+02 -0.36003367491E+02  0.22675375193E+03  0.12504871955E+03 0.  0.
         24    2    1    2    0    0 -0.18351920537E+02 -0.98690250984E+02  0.28591902191E+03  0.31282938151E+03  0.77691545319E+02 0.  0.
        -13    1    5    5    0    0  0.25052920810E+02 -0.66586232969E+02  0.18804451108E+03  0.20105251406E+03  0.00000000000E+00 0.  1.
         14    1    5    5    0    0 -0.43404841347E+02 -0.32104018016E+02  0.97874510829E+02  0.11177686744E+03  0.00000000000E+00 0. -1.
         13    1    3    3    0    0 -0.72678312356E+02  0.36305412766E+02 -0.81304832450E+02  0.11493779127E+03  0.00000000000E+00 0. -1.
        -14    1    3    3    0    0 -0.67859455257E+02 -0.33729189291E+02 -0.14522190980E+03  0.16380466099E+03  0.00000000000E+00 0.  1.
          5    1    4    4  501    0 -0.17727049978E+02  0.33943691726E+00 -0.16972182273E+02  0.24897608107E+02  0.41800000000E+01 0. -1.
         -5    1    4    4    0  501  0.17661673813E+03  0.95774590591E+02 -0.19031185218E+02  0.20185614383E+03  0.41800000000E+01 0. -1.
</event>
<event>
11    1  0.6455215E-009  0.1437514E+03  0.7561462E-02  0.1103440E+00
         22   -1    0    0    0    0  0.00000000000E+00  0.00000000000E+00  0.24803890864E+03  0.24803890864E+03  0.00000000000E+00 0. -1.
         22   -1    0    0    0    0 -0.00000000000E+00 -0.00000000000E+00 -0.25620675874E+03  0.25620675874E+03  0.00000000000E+00 0.  1.
         24    2    1    2    0    0 -0.17694747739E+02 -0.74888190974E+02 -0.10349879631E+03  0.15816374327E+03  0.91555576578E+02 0.  0.
         25    2    1    2    0    0 -0.14421853560E+02  0.63837865391E+02 -0.71060424086E+02  0.15805524551E+03  0.12509441971E+03 0.  0.
        -24    2    1    2    0    0  0.32116601300E+02  0.11050325583E+02  0.16639137030E+03  0.18802667860E+03  0.80711572787E+02 0.  0.
        -13    1    3    3    0    0 -0.23889316169E+02 -0.48310945385E+02 -0.11617971153E+03  0.12807174646E+03  0.00000000000E+00 0.  1.
         14    1    3    3    0    0  0.61945684300E+01 -0.26577245589E+02  0.12680915217E+02  0.30091996808E+02  0.00000000000E+00 0. -1.
         11    1    5    5    0    0  0.34409020376E+02 -0.27925533219E+02  0.59220437721E+02  0.73965372524E+02  0.00000000000E+00 0. -1.
        -12    1    5    5    0    0 -0.22924190763E+01  0.38975858802E+02  0.10717093258E+03  0.11406130608E+03  0.00000000000E+00 0.  1.
          5    1    4    4  501    0 -0.24356194244E+02  0.61605016425E+02 -0.10397119473E+03  0.12335268129E+03  0.41800000000E+01 0. -1.
         -5    1    4    4    0  501  0.99343406836E+01  0.22328489664E+01  0.32910770644E+02  0.34702564223E+02  0.41800000000E+01 0. -1.
</event>
<event>
11    1  0.6455215E-009  0.1847830E+03  0.7561462E-02  0.1065838E+00
         22   -1    0    0    0    0  0.00000000000E+00  0.00000000000E+00  0.19319717771E+03  0.19319717771E+03  0.00000000000E+00 0.  1.
         22   -1    0    0    0    0 -0.00000000000E+00 -0.00000000000E+00 -0.12107041037E+04  0.12107041037E+04  0.00000000000E+00 0.  1.
        -24    2    1    2    0    0 -0.65005277340E+02 -0.11110231341E+03 -0.91301428157E+03  0.92724161138E+03  0.98043446442E+02 0.  0.
         25    2    1    2    0    0  0.13358083485E+03  0.13536782807E+03 -0.22136014700E+03  0.31750877733E+03  0.12507286152E+03 0.  0.
         24    2    1    2    0    0 -0.68575557514E+02 -0.24265514664E+02  0.11686750262E+03  0.15915089266E+03  0.79872217791E+02 0.  0.
        -13    1    5    5    0    0 -0.79303647331E+02 -0.14486436322E+01  0.10414508694E+03  0.13090976351E+03  0.00000000000E+00 0.  1.
         14    1    5    5    0    0  0.10728089817E+02 -0.22816871031E+02  0.12722415679E+02  0.28241129147E+02  0.00000000000E+00 0. -1.
         13    1    3    3    0    0 -0.26729192786E+02  0.40420927142E+01 -0.36283919338E+03  0.36384484126E+03  0.00000000000E+00 0. -1.
        -14    1    3    3    0    0 -0.38276084554E+02 -0.11514440612E+03 -0.55017508820E+03  0.56339677012E+03  0.00000000000E+00 0.  1.
          5    1    4    4  501    0 -0.99948732868E+01  0.58108348261E+02 -0.30699172943E+02  0.66606225303E+02  0.41800000000E+01 0. -1.
         -5    1    4    4    0  501  0.14357570814E+03  0.77259479812E+02 -0.19066097405E+03  0.25090255203E+03  0.41800000000E+01 0. -1.
</event>
<event>
11    1  0.6455215E-009  0.1369131E+03  0.7561462E-02  0.1111055E+00
         22   -1    0    0    0    0  0.00000000000E+00  0.00000000000E+00  0.32287684714E+03  0.32287684714E+03  0.00000000000E+00 0.  1.
         22   -1    0    0    0    0 -0.00000000000E+00 -0.00000000000E+00 -0.60743883121E+03  0.60743883121E+03  0.00000000000E+00 0. -1.
        -24    2    1    2    0    0 -0.44003840998E+02  0.33779510775E+02 -0.55920223549E+03  0.56753611141E+03  0.79452528024E+02 0.  0.
         25    2    1    2    0    0  0.74125058006E+02 -0.70166735963E+01  0.13828236514E+03  0.20077950603E+03  0.12508652845E+03 0.  0.
         24    2    1    2    0    0 -0.30121217008E+02 -0.26762837179E+02  0.13635788627E+03  0.16200006091E+03  0.77633816210E+02 0.  0.
        -11    1    5    5    0    0 -0.20702201487E+02 -0.19008691578E+02  0.14458096201E+03  0.14728735885E+03  0.00000000000E+00 0.  1.
         12    1    5    5    0    0 -0.94190155203E+01 -0.77541456014E+01 -0.82230757373E+01  0.14712702062E+02  0.00000000000E+00 0. -1.
         11    1    3    3    0    0 -0.15740986566E+02  0.88176589416E+00 -0.44647595641E+03  0.44675422306E+03  0.00000000000E+00 0. -1.
        -12    1    3    3    0    0 -0.28262854432E+02  0.32897744881E+02 -0.11272627908E+03  0.12078188835E+03  0.00000000000E+00 0.  1.
          5    1    4    4  501    0 -0.31110805547E+00  0.50841110891E+02  0.43739126146E+02  0.67197462012E+02  0.41800000000E+01 0.  1.
         -5    1    4    4    0  501  0.74436166061E+02 -0.57857784487E+02  0.94543238996E+02  0.13358204402E+03  0.41800000000E+01 0.  1.
</event>
<event>
11    1  0.6455215E-009  0.1423917E+03  0.7561462E-02  0.1104917E+00
         22   -1    0    0    0    0  0.00000000000E+00  0.00000000000E+00  0.61308787419E+03  0.61308787419E+03  0.00000000000E+00 0.  1.
         22   -1    0    0    0    0 -0.00000000000E+00 -0.00000000000E+00 -0.27036685341E+04  0.27036685341E+04  0.00000000000E+00 0. -1.
        -24    2    1    2    0    0  0.56009319049E+02  0.26771919016E+02 -0.22039456589E+04  0.22062825031E+04  0.80325814858E+02 0.  0.
         25    2    1    2    0    0 -0.47647067021E+02 -0.94075463143E+02 -0.48038399571E+03  0.50748386675E+03  0.12510258158E+03 0.  0.
         24    2    1    2    0    0 -0.83622520279E+01  0.67303544127E+02  0.59374899470E+03  0.60299003847E+03  0.80370538566E+02 0.  0.
        -11    1    5    5    0    0  0.12711330847E+02  0.52138933533E+02  0.54606851626E+03  0.54869925349E+03  0.00000000000E+00 0.  1.
         12    1    5    5    0    0 -0.21073582875E+02  0.15164610594E+02  0.47680478437E+02  0.54290784979E+02  0.00000000000E+00 0. -1.
         11    1    3    3    0    0  0.58652505653E+02  0.53164306613E+01 -0.20478917164E+04  0.20487383588E+04  0.00000000000E+00 0. -1.
        -12    1    3    3    0    0 -0.26431866038E+01  0.21455488355E+02 -0.15605394254E+03  0.15754414429E+03  0.00000000000E+00 0.  1.
          5    1    4    4  501    0 -0.44180833470E+01 -0.81587762038E+02 -0.43783969385E+03  0.44541795237E+03  0.41800000000E+01 0. -1.
         -5    1    4    4    0  501 -0.43228983674E+02 -0.12487701105E+02 -0.42544301857E+02  0.62065914388E+02  0.41800000000E+01 0. -1.
</event>
<event>
11    1  0.6455215E-009  0.1394182E+03  0.7561462E-02  0.1108210E+00
         22   -1    0    0    0    0  0.00000000000E+00  0.00000000000E+00  0.58433585316E+03  0.58433585316E+03  0.00000000000E+00 0. -1.
         22   -1    0    0    0    0 -0.00000000000E+00 -0.00000000000E+00 -0.30389882154E+03  0.30389882154E+03  0.00000000000E+00 0.  1.
        -24    2    1    2    0    0  0.57204257475E+02 -0.11617519836E+02 -0.24010406003E+03  0.25979536883E+03  0.80227053903E+02 0.  0.
         25    2    1    2    0    0 -0.10108821565E+03  0.40161491477E+02  0.92558292001E+02  0.18986002292E+03  0.12509203870E+03 0.  0.
         24    2    1    2    0    0  0.43883958175E+02 -0.28543971641E+02  0.42798279965E+03  0.43857928295E+03  0.80261762596E+02 0.  0.
        -11    1    5    5    0    0  0.11346296496E+02  0.56698134030E+01  0.61214184639E+01  0.14083926732E+02  0.00000000000E+00 0.  1.
         12    1    5    5    0    0  0.32537661679E+02 -0.34213785044E+02  0.42186138118E+03  0.42449535622E+03  0.00000000000E+00 0. -1.
         13    1    3    3    0    0 -0.17378804844E+02  0.61907816218E+01 -0.82369295892E+02  0.84410008534E+02  0.00000000000E+00 0. -1.
        -14    1    3    3    0    0  0.74583062319E+02 -0.17808301458E+02 -0.15773476414E+03  0.17538536029E+03  0.00000000000E+00 0.  1.
          5    1    4    4  501    0 -0.79417057733E+02  0.84331936824E+02  0.71394177519E+02  0.13613796535E+03  0.41800000000E+01 0.  1.
         -5    1    4    4    0  501 -0.21671157917E+02 -0.44170445347E+02  0.21164114482E+02  0.53722057569E+02  0.41800000000E+01 0.  1.
</event>
<event>
11    1  0.6455215E-009  0.1685628E+03  0.7561462E-02  0.1079289E+00
         22   -1    0    0    0    0  0.00000000000E+00  0.00000000000E+00  0.11896160908E+04  0.11896160908E+04  0.00000000000E+00 0.  1.
         22   -1    0    0    0    0 -0.00000000000E+00 -0.00000000000E+00 -0.12142531270E+04  0.12142531270E+04  0.00000000000E+00 0. -1.
        -24    2    1    2    0    0  0.96546221531E+01  0.36664147169E+01 -0.11279850426E+04  0.11308510807E+04  0.79795087822E+02 0.  0.
         25    2    1    2    0    0 -0.68199350046E+02 -0.99792040898E+02  0.13768841532E+02  0.17449327248E+03  0.12509483750E+03 0.  0.
         24    2    1    2    0    0  0.58544727893E+02  0.96125626181E+02  0.10895791649E+04  0.10985248646E+04  0.83105357882E+02 0.  0.
        -13    1    5    5    0    0  0.13870993602E+02  0.93658351217E+02  0.78128947156E+03  0.78700541903E+03  0.00000000000E+00 0.  1.
         14    1    5    5    0    0  0.44673734291E+02  0.24672749642E+01  0.30828969332E+03  0.31151944560E+03  0.00000000000E+00 0. -1.
         11    1    3    3    0    0  0.30462412226E+01  0.26314667683E+02 -0.10188822896E+04  0.10192265996E+04  0.00000000000E+00 0. -1.
        -12    1    3    3    0    0  0.66083809304E+01 -0.22648252966E+02 -0.10910275302E+03  0.11162448108E+03  0.00000000000E+00 0.  1.
          5    1    4    4  501    0 -0.26431151032E+02 -0.94316401119E+02  0.57477189356E+02  0.11364545288E+03  0.41800000000E+01 0. -1.
         -5    1    4    4    0  501 -0.41768199014E+02 -0.54756397793E+01 -0.43708347824E+02  0.60847819594E+02  0.41800000000E+01 0. -1.
</event>
<event>
11    1  0.6455215E-009  0.1645794E+03  0.7561462E-02  0.1082848E+00
         22   -1    0    0    0    0  0.00000000000E+00  0.00000000000E+00  0.27532280330E+03  0.27532280330E+03  0.00000000000E+00 0.  1.
         22   -1    0    0    0    0 -0.00000000000E+00 -0.00000000000E+00 -0.11090031204E+04  0.11090031204E+04  0.00000000000E+00 0.  1.
        -24    2    1    2    0    0 -0.97640921846E+02 -0.32571011396E+02 -0.91873443495E+03  0.92790770527E+03  0.79656306229E+02 0.  0.
         25    2    1    2    0    0  0.15630978088E+03  0.32333386192E+02 -0.11545650874E+03  0.23335869257E+03  0.12509148063E+03 0.  0.
         24    2    1    2    0    0 -0.58668859030E+02  0.23762520479E+00  0.20051062662E+03  0.22305952583E+03  0.78159767072E+02 0.  0.
        -13    1    5    5    0    0 -0.19966570204E+02 -0.36428827995E+02  0.11518978000E+03  0.12245165924E+03  0.00000000000E+00 0.  1.
         14    1    5    5    0    0 -0.38702288826E+02  0.36666453199E+02  0.85320846622E+02  0.10060786659E+03  0.00000000000E+00 0. -1.
         11    1    3    3    0    0 -0.54731150608E+02  0.29707699995E+01 -0.21167806551E+03  0.21865938749E+03  0.00000000000E+00 0. -1.
        -12    1    3    3    0    0 -0.42909771237E+02 -0.35541781396E+02 -0.70705636945E+03  0.70924831778E+03  0.00000000000E+00 0.  1.
          5    1    4    4  501    0  0.11857590526E+02  0.33570246187E+02 -0.75249631292E+02  0.83351924343E+02  0.41800000000E+01 0.  1.
         -5    1    4    4    0  501  0.14445219035E+03 -0.12368599954E+01 -0.40206877451E+02  0.15000676823E+03  0.41800000000E+01 0.  1.
</event>
<event>
11    1  0.6455215E-009  0.1472642E+03  0.7561462E-02  0.1099707E+00
         22   -1    0    0    0    0  0.00000000000E+00  0.00000000000E+00  0.90771337043E+02  0.90771337043E+02  0.00000000000E+00 0.  1.
         22   -1    0    0    0    0 -0.00000000000E+00 -0.00000000000E+00 -0.13885591622E+04  0.13885591622E+04  0.00000000000E+00 0. -1.
        -24    2    1    2    0    0 -0.68967490667E+02 -0.31670285651E+02 -0.11411336142E+04  0.11466293546E+04  0.82543501362E+02 0.  0.
         25    2    1    2    0    0  0.10919183427E+03  0.54330121356E+00 -0.16790548099E+03  0.23613903017E+03  0.12508492785E+03 0.  0.
         24    2    1    2    0    0 -0.40224343600E+02  0.31126984438E+02  0.11251270093E+02  0.96562114412E+02  0.81306604177E+02 0.  0.
        -13    1    5    5    0    0 -0.15190526894E+02  0.34378733611E+02  0.42273947797E+02  0.56566209829E+02  0.00000000000E+00 0.  1.
         14    1    5    5    0    0 -0.25033816705E+02 -0.32517491737E+01 -0.31022677704E+02  0.39995904583E+02  0.00000000000E+00 0. -1.
         11    1    3    3    0    0 -0.53286981463E+02 -0.32111227647E+02 -0.11102353859E+04  0.11119771785E+04  0.00000000000E+00 0. -1.
        -12    1    3    3    0    0 -0.15680509205E+02  0.44094199541E+00 -0.30898228319E+02  0.34652176151E+02  0.00000000000E+00 0.  1.
          5    1    4    4  501    0  0.74011406292E+02  0.42380660381E+02 -0.15916624705E+03  0.18062440377E+03  0.41800000000E+01 0. -1.
         -5    1    4    4    0  501  0.35180427975E+02 -0.41837359167E+02 -0.87392339376E+01  0.55514626401E+02  0.41800000000E+01 0. -1.
</event>
<event>
11    1  0.6455215E-009  0.1504954E+03  0.7561462E-02  0.1096374E+00
         22   -1    0    0    0    0  0.00000000000E+00  0.00000000000E+00  0.14295122736E+04  0.14295122736E+04  0.00000000000E+00 0. -1.
         22   -1    0    0    0    0 -0.00000000000E+00 -0.00000000000E+00 -0.36065680094E+02  0.36065680094E+02  0.00000000000E+00 0.  1.
         24    2    1    2    0    0 -0.78055014633E+02 -0.18098604470E+02  0.11479756951E+03  0.16126654591E+03  0.80051683749E+02 0.  0.
         25    2    1    2    0    0  0.98826466387E+02  0.97043226390E+01  0.57161692496E+03  0.59350999240E+03  0.12508939936E+03 0.  0.
        -24    2    1    2    0    0 -0.20771451755E+02  0.83942818307E+01  0.70703209902E+03  0.71080141538E+03  0.69586966315E+02 0.  0.
        -13    1    3    3    0    0 -0.56707749166E+02 -0.48644062270E+02  0.64734692090E+02  0.98856431099E+02  0.00000000000E+00 0.  1.
         14    1    3    3    0    0 -0.21347265466E+02  0.30545457800E+02  0.50062877419E+02  0.62410114810E+02  0.00000000000E+00 0. -1.
         11    1    5    5    0    0 -0.53992053909E+01  0.38449105515E+02  0.42007136048E+03  0.42186186487E+03  0.00000000000E+00 0. -1.
        -12    1    5    5    0    0 -0.15372246364E+02 -0.30054823684E+02  0.28696073854E+03  0.28893955051E+03  0.00000000000E+00 0.  1.
          5    1    4    4  501    0 -0.29514215153E+02  0.30041851348E+01  0.13881075760E+03  0.14200708733E+03  0.41800000000E+01 0.  1.
         -5    1    4    4    0  501  0.12834068154E+03  0.67001375042E+01  0.43280616736E+03  0.45150290507E+03  0.41800000000E+01 0.  1.
</event>
<event>
11    1  0.6455215E-009  0.1317752E+03  0.7561462E-02  0.1117107E+00
         22   -1    0    0    0    0  0.00000000000E+00  0.00000000000E+00  0.93339827649E+03  0.93339827649E+03  0.00000000000E+00 0. -1.
         22   -1    0    0    0    0 -0.00000000000E+00 -0.00000000000E+00 -0.93021911828E+03  0.93021911828E+03  0.00000000000E+00 0.  1.
         24    2    1    2    0    0  0.21669063810E+02  0.35312390050E+02 -0.91123567490E+03  0.91586602264E+03  0.82119443525E+02 0.  0.
         25    2    1    2    0    0 -0.25856229303E+02 -0.34936035217E+02  0.29579891411E+03  0.32408810038E+03  0.12508808123E+03 0.  0.
        -24    2    1    2    0    0  0.41871654935E+01 -0.37635483282E+00  0.61861591900E+03  0.62366327175E+03  0.79073050333E+02 0.  0.
        -13    1    3    3    0    0 -0.22224273405E+02  0.41804623018E+02 -0.50489904792E+03  0.50711398465E+03  0.00000000000E+00 0.  1.
         14    1    3    3    0    0  0.43893337214E+02 -0.64922329690E+01 -0.40633662697E+03  0.40875203799E+03  0.00000000000E+00 0. -1.
         13    1    5    5    0    0 -0.16532633288E+02 -0.32829997267E+02  0.39973645287E+03  0.40142292963E+03  0.00000000000E+00 0. -1.
        -14    1    5    5    0    0  0.20719798782E+02  0.32453642434E+02  0.21887946614E+03  0.22224034212E+03  0.00000000000E+00 0.  1.
          5    1    4    4  501    0 -0.73926737233E+02 -0.53068667930E+01  0.19196678695E+03  0.20582041931E+03  0.41800000000E+01 0.  1.
         -5    1    4    4    0  501  0.48070507930E+02 -0.29629168424E+02  0.10383212716E+03  0.11826768107E+03  0.41800000000E+01 0.  1.
</event>
<event>
11    1  0.6455215E-009  0.1632160E+03  0.7561462E-02  0.1084091E+00
         22   -1    0    0    0    0  0.00000000000E+00  0.00000000000E+00  0.10730790156E+04  0.10730790156E+04  0.00000000000E+00 0.  1.
         22   -1    0    0    0    0 -0.00000000000E+00 -0.00000000000E+00 -0.17257256222E+03  0.17257256222E+03  0.00000000000E+00 0.  1.
        -24    2    1    2    0    0 -0.35865239826E+02  0.79551725077E+01 -0.75435124299E+02  0.10885368548E+03  0.69347434473E+02 0.  0.
         25    2    1    2    0    0  0.10861544990E+03  0.66007727819E+02  0.28686847168E+02  0.18062509021E+03  0.12509257341E+03 0.  0.
         24    2    1    2    0    0 -0.72750210073E+02 -0.73962900327E+02  0.94725473051E+03  0.95617280213E+03  0.78814969197E+02 0.  0.
        -13    1    5    5    0    0 -0.72110912448E+02 -0.29808614078E+02  0.74933296809E+03  0.75338465224E+03  0.00000000000E+00 0.  1.
         14    1    5    5    0    0 -0.63929762458E+00 -0.44154286248E+02  0.19792176242E+03  0.20278814989E+03  0.00000000000E+00 0. -1.
         11    1    3    3    0    0 -0.99345375302E+01 -0.26965550419E+02 -0.10292837732E+02  0.30525046338E+02  0.00000000000E+00 0. -1.
        -12    1    3    3    0    0 -0.25930702296E+02  0.34920722927E+02 -0.65142286567E+02  0.78328639146E+02  0.00000000000E+00 0.  1.
          5    1    4    4  501    0  0.16889181297E+02 -0.63717785198E+01  0.57329276459E+02  0.60249168838E+02  0.41800000000E+01 0. -1.
         -5    1    4    4    0  501  0.91726268602E+02  0.72379506339E+02 -0.28642429290E+02  0.12037592137E+03  0.41800000000E+01 0. -1.
</event>
<event>
11    1  0.6455215E-009  0.1378937E+03  0.7561462E-02  0.1109933E+00
         22   -1    0    0    0    0  0.00000000000E+00  0.00000000000E+00  0.14803802960E+04  0.14803802960E+04  0.00000000000E+00 0.  1.
         22   -1    0    0    0    0 -0.00000000000E+00 -0.00000000000E+00 -0.10392995427E+04  0.10392995427E+04  0.00000000000E+00 0. -1.
         24    2    1    2    0    0  0.69304963096E+01 -0.25283372668E+02 -0.78346360803E+03  0.78858339706E+03  0.85797833846E+02 0.  0.
         25    2    1    2    0    0 -0.64839357083E+02  0.28071810168E+02 -0.23106887906E+03  0.27208841450E+03  0.12508840746E+03 0.  0.
        -24    2    1    2    0    0  0.57908860774E+02 -0.27884375004E+01  0.14556132404E+04  0.14590080272E+04  0.80828870037E+02 0.  0.
        -11    1    3    3    0    0  0.35354648678E+02  0.15660740541E+02 -0.27975017129E+03  0.28240992956E+03  0.00000000000E+00 0.  1.
         12    1    3    3    0    0 -0.28424152369E+02 -0.40944113209E+02 -0.50371343675E+03  0.50617346750E+03  0.00000000000E+00 0. -1.
         13    1    5    5    0    0 -0.10904458830E+02 -0.24501768983E+02  0.33304331709E+03  0.33412137759E+03  0.00000000000E+00 0. -1.
        -14    1    5    5    0    0  0.68813319604E+02  0.21713331483E+02  0.11225699233E+04  0.11248866496E+04  0.00000000000E+00 0.  1.
          5    1    4    4  501    0 -0.75959166185E+02 -0.29030856812E+02 -0.10247895359E+03  0.13088924289E+03  0.41800000000E+01 0.  1.
         -5    1    4    4    0  501  0.11119809102E+02  0.57102666981E+02 -0.12858992547E+03  0.14119917161E+03  0.41800000000E+01 0.  1.
</event>
<event>
11    1  0.6455215E-009  0.2397401E+03  0.7561462E-02  0.1029511E+00
         22   -1    0    0    0    0  0.00000000000E+00  0.00000000000E+00  0.20721363116E+03  0.20721363116E+03  0.00000000000E+00 0. -1.
         22   -1    0    0    0    0 -0.00000000000E+00 -0.00000000000E+00 -0.17135687556E+04  0.17135687556E+04  0.00000000000E+00 0.  1.
        -24    2    1    2    0    0  0.51473734211E+02 -0.42068795646E+02 -0.13412939701E+04  0.13453517552E+04  0.80513985901E+02 0.  0.
         25    2    1    2    0    0 -0.22903593006E+03 -0.46271383420E+02 -0.23163302445E+03  0.35199323301E+03  0.12508748892E+03 0.  0.
         24    2    1    2    0    0  0.17756219585E+03  0.88340179067E+02  0.66571870174E+02  0.22343739855E+03  0.78486537319E+02 0.  0.
        -13    1    5    5    0    0  0.97495595194E+02  0.57564844039E+01  0.38925798372E+02  0.10513679648E+03  0.00000000000E+00 0.  1.
         14    1    5    5    0    0  0.80066600659E+02  0.82583694663E+02  0.27646071803E+02  0.11830060208E+03  0.00000000000E+00 0. -1.
         11    1    3    3    0    0 -0.88988679734E+01  0.17674937986E+01 -0.20098814695E+02  0.22051671993E+02  0.00000000000E+00 0. -1.
        -12    1    3    3    0    0  0.60372602184E+02 -0.43836289445E+02 -0.13211951554E+04  0.13233000832E+04  0.00000000000E+00 0.  1.
          5    1    4    4  501    0 -0.15122089863E+03  0.30560120956E+02 -0.11838199763E+03  0.19450822846E+03  0.41800000000E+01 0.  1.
         -5    1    4    4    0  501 -0.77815031433E+02 -0.76831504376E+02 -0.11325102682E+03  0.15748500455E+03  0.41800000000E+01 0.  1.
</event>
<event>
11    1  0.6455215E-009  0.1356315E+03  0.7561462E-02  0.1112537E+00
         22   -1    0    0    0    0  0.00000000000E+00  0.00000000000E+00  0.12915170335E+03  0.12915170335E+03  0.00000000000E+00 0. -1.
         22   -1    0    0    0    0 -0.00000000000E+00 -0.00000000000E+00 -0.98390275228E+03  0.98390275228E+03  0.00000000000E+00 0.  1.
         24    2    1    2    0    0  0.27377256347E+02  0.46010440024E+02 -0.88973913433E+03  0.89515458793E+03  0.82459289210E+02 0.  0.
         25    2    1    2    0    0 -0.11106537506E+00 -0.24759470936E+02  0.20304603252E+02  0.12912744488E+03  0.12509426994E+03 0.  0.
        -24    2    1    2    0    0 -0.27266190972E+02 -0.21250969087E+02  0.14683482139E+02  0.88772422819E+02  0.80435623626E+02 0.  0.
        -11    1    3    3    0    0  0.12303548462E+02 -0.93979776114E+01 -0.57573979142E+03  0.57594792014E+03  0.00000000000E+00 0.  1.
         12    1    3    3    0    0  0.15073707885E+02  0.55408417635E+02 -0.31399934291E+03  0.31920666779E+03  0.00000000000E+00 0. -1.
         13    1    5    5    0    0 -0.19439472321E+02  0.17609372470E+02  0.35389279331E+02  0.44049791991E+02  0.00000000000E+00 0. -1.
        -14    1    5    5    0    0 -0.78267186512E+01 -0.38860341557E+02 -0.20705797192E+02  0.44722630828E+02  0.00000000000E+00 0.  1.
          5    1    4    4  501    0 -0.98912332841E+01  0.28557196130E+02  0.56222404280E+02  0.63967031272E+02  0.41800000000E+01 0.  1.
         -5    1    4    4    0  501  0.97801679090E+01 -0.53316667066E+02 -0.35917801028E+02  0.65160413612E+02  0.41800000000E+01 0.  1.
</event>
<event>
11    1  0.6455215E-009  0.2004288E+03  0.7561462E-02  0.1054221E+00
         22   -1    0    0    0    0  0.00000000000E+00  0.00000000000E+00  0.12148581524E+04  0.12148581524E+04  0.00000000000E+00 0. -1.
         22   -1    0    0    0    0 -0.00000000000E+00 -0.00000000000E+00 -0.61390665190E+03  0.61390665190E+03  0.00000000000E+00 0. -1.
        -24    2    1    2    0    0  0.81806635687E+02 -0.12669730101E+03 -0.41667496445E+03  0.44955066913E+03  0.75718203786E+02 0.  0.
         25    2    1    2    0    0 -0.11988095685E+03  0.13705033759E+03 -0.11098029771E+03  0.24722099889E+03  0.12508939589E+03 0.  0.
         24    2    1    2    0    0  0.38074321168E+02 -0.10353036577E+02  0.11286067626E+04  0.11319931362E+04  0.78092231017E+02 0.  0.
        -11    1    5    5    0    0 -0.78448304216E+01  0.93523016743E+01  0.32010473672E+02  0.34258974527E+02  0.00000000000E+00 0.  1.
         12    1    5    5    0    0  0.45919151589E+02 -0.19705338252E+02  0.10965962890E+04  0.10977341617E+04  0.00000000000E+00 0. -1.
         13    1    3    3    0    0  0.90544715571E+02 -0.81410958181E+02 -0.32161090995E+03  0.34388903302E+03  0.00000000000E+00 0. -1.
        -14    1    3    3    0    0 -0.87380798846E+01 -0.45286342832E+02 -0.95064054503E+02  0.10566163611E+03  0.00000000000E+00 0.  1.
          5    1    4    4  501    0 -0.67525229093E+02  0.62089474775E+02  0.13392298922E+02  0.92798628828E+02  0.41800000000E+01 0. -1.
         -5    1    4    4    0  501 -0.52355727761E+02  0.74960862815E+02 -0.12437259663E+03  0.15442237007E+03  0.41800000000E+01 0. -1.
</event>
<event>
11    1  0.6455215E-009  0.1433323E+03  0.7561462E-02  0.1103893E+00
         22   -1    0    0    0    0  0.00000000000E+00  0.00000000000E+00  0.33493981833E+03  0.33493981833E+03  0.00000000000E+00 0. -1.
         22   -1    0    0    0    0 -0.00000000000E+00 -0.00000000000E+00 -0.25934251773E+03  0.25934251773E+03  0.00000000000E+00 0. -1.
         24    2    1    2    0    0  0.64101914746E+01 -0.76148191077E+02 -0.19627558530E+03  0.22521770857E+03  0.79745051947E+02 0.  0.
         25    2    1    2    0    0 -0.30099632963E+02  0.11692990860E+02  0.90247102927E+02  0.15759093778E+03  0.12509056777E+03 0.  0.
        -24    2    1    2    0    0  0.23689441488E+02  0.64455200217E+02  0.18162578297E+03  0.21147368971E+03  0.83770722362E+02 0.  0.
        -11    1    3    3    0    0 -0.23573567196E+01  0.16743340585E+02 -0.25090473211E+02  0.30256047836E+02  0.00000000000E+00 0.  1.
         12    1    3    3    0    0  0.87675481942E+01 -0.92891531663E+02 -0.17118511209E+03  0.19496166073E+03  0.00000000000E+00 0. -1.
         13    1    5    5    0    0  0.37107711509E+01  0.32992604666E+02  0.16883750168E+03  0.17207086842E+03  0.00000000000E+00 0. -1.
        -14    1    5    5    0    0  0.19978670337E+02  0.31462595551E+02  0.12788281298E+02  0.39402821292E+02  0.00000000000E+00 0.  1.
          5    1    4    4  501    0 -0.31099522239E+02  0.52828618489E+02  0.35666029656E+01  0.61548649633E+02  0.41800000000E+01 0. -1.
         -5    1    4    4    0  501  0.99988927634E+00 -0.41135627629E+02  0.86680499961E+02  0.96042288147E+02  0.41800000000E+01 0. -1.
</event>
<event>
11    1  0.6455215E-009  0.1354500E+03  0.7561462E-02  0.1112748E+00
         22   -1    0    0    0    0  0.00000000000E+00  0.00000000000E+00  0.19403957567E+03  0.19403957567E+03  0.00000000000E+00 0. -1.
         22   -1    0    0    0    0 -0.00000000000E+00 -0.00000000000E+00 -0.10742377850E+04  0.10742377850E+04  0.00000000000E+00 0.  1.
         24    2    1    2    0    0 -0.20276019322E+02  0.20142318073E+02 -0.70884613393E+03  0.71382970353E+03  0.79203371873E+02 0.  0.
         25    2    1    2    0    0  0.58314367782E+02  0.15144926121E+02 -0.33648952497E+03  0.36401170124E+03  0.12509749776E+03 0.  0.
        -24    2    1    2    0    0 -0.38038348460E+02 -0.35287244194E+02  0.16513744953E+03  0.19043595595E+03  0.79393768809E+02 0.  0.
        -13    1    3    3    0    0 -0.26272191008E+02 -0.80257962991E+01 -0.61616794724E+03  0.61678000992E+03  0.00000000000E+00 0.  1.
         14    1    3    3    0    0  0.59961716857E+01  0.28168114372E+02 -0.92678186688E+02  0.97049693611E+02  0.00000000000E+00 0. -1.
         13    1    5    5    0    0 -0.35164935562E+02  0.39653033783E+01  0.13840693491E+03  0.14285928725E+03  0.00000000000E+00 0. -1.
        -14    1    5    5    0    0 -0.28734128979E+01 -0.39252547572E+02  0.26730514624E+02  0.47576668701E+02  0.00000000000E+00 0.  1.
          5    1    4    4  501    0  0.48382238285E+02 -0.41000480443E+02 -0.85159606747E+02  0.10626152361E+03  0.41800000000E+01 0.  1.
         -5    1    4    4    0  501  0.99321294973E+01  0.56145406564E+02 -0.25132991823E+03  0.25775017763E+03  0.41800000000E+01 0.  1.
</event>
<event>
11    1  0.6455215E-009  0.2310238E+03  0.7561462E-02  0.1034524E+00
         22   -1    0    0    0    0  0.00000000000E+00  0.00000000000E+00  0.48673820230E+03  0.48673820230E+03  0.00000000000E+00 0. -1.
         22   -1    0    0    0    0 -0.00000000000E+00 -0.00000000000E+00 -0.51776112003E+03  0.51776112003E+03  0.00000000000E+00 0.  1.
        -24    2    1    2    0    0  0.75455879107E+02  0.41828577657E+02 -0.25951861535E+03  0.28552576931E+03  0.82047752101E+02 0.  0.
         25    2    1    2    0    0  0.27061182848E+02  0.13273737927E+03 -0.17888993673E+03  0.25690917565E+03  0.12509674495E+03 0.  0.
         24    2    1    2    0    0 -0.10251706196E+03 -0.17456595693E+03  0.40738563435E+03  0.46206437737E+03  0.80977851623E+02 0.  0.
        -13    1    5    5    0    0  0.12485605169E+02 -0.32170157154E+02  0.53876534289E+02  0.63980389923E+02  0.00000000000E+00 0.  1.
         14    1    5    5    0    0 -0.11500266712E+03 -0.14239579978E+03  0.35350910006E+03  0.39808398745E+03  0.00000000000E+00 0. -1.
         13    1    3    3    0    0  0.55889627049E+01  0.15903032316E+01  0.58103116822E+01  0.82173773389E+01  0.00000000000E+00 0. -1.
        -14    1    3    3    0    0  0.69866916402E+02  0.40238274426E+02 -0.26532892703E+03  0.27730839197E+03  0.00000000000E+00 0.  1.
          5    1    4    4  501    0  0.50896197719E+02  0.28789512766E+02 -0.13638618913E+02  0.60189229215E+02  0.41800000000E+01 0.  1.
         -5    1    4    4    0  501 -0.23835014871E+02  0.10394786651E+03 -0.16525131781E+03  0.19671994643E+03  0.41800000000E+01 0.  1.
</event>
<event>
11    1  0.6455215E-009  0.1301798E+03  0.7561462E-02  0.1119048E+00
         22   -1    0    0    0    0  0.00000000000E+00  0.00000000000E+00  0.91339273894E+03  0.91339273894E+03  0.00000000000E+00 0.  1.
         22   -1    0    0    0    0 -0.00000000000E+00 -0.00000000000E+00 -0.21713875284E+03  0.21713875284E+03  0.00000000000E+00 0.  1.
         24    2    1    2    0    0 -0.31573779562E+02 -0.34663641932E+01 -0.18047464264E+03  0.20021012680E+03  0.80647870411E+02 0.  0.
         25    2    1    2    0    0  0.58996932690E+02 -0.15761516727E+02  0.17786870942E+03  0.22586130219E+03  0.12508791532E+03 0.  0.
        -24    2    1    2    0    0 -0.27423153127E+02  0.19227880920E+02  0.69885991932E+03  0.70446006280E+03  0.82079549856E+02 0.  0.
        -13    1    3    3    0    0 -0.47329773728E+02  0.15754254589E+02 -0.64160469887E+02  0.81270350774E+02  0.00000000000E+00 0.  1.
         14    1    3    3    0    0  0.15755994166E+02 -0.19220618782E+02 -0.11631417275E+03  0.11893977603E+03  0.00000000000E+00 0. -1.
         11    1    5    5    0    0 -0.21163997884E+00 -0.30702077910E+02  0.30002792955E+03  0.30159479586E+03  0.00000000000E+00 0. -1.
        -12    1    5    5    0    0 -0.27211513149E+02  0.49929958830E+02  0.39883198978E+03  0.40286526694E+03  0.00000000000E+00 0.  1.
          5    1    4    4  501    0  0.69226547218E+01  0.49581370090E+02  0.38425571355E+02  0.63247390004E+02  0.41800000000E+01 0.  1.
         -5    1    4    4    0  501  0.52074277968E+02 -0.65342886816E+02  0.13944313806E+03  0.16261391218E+03  0.41800000000E+01 0.  1.
</event>
<event>
11    1  0.6455215E-009  0.1604032E+03  0.7561462E-02  0.1086699E+00
         22   -1    0    0    0    0  0.00000000000E+00  0.00000000000E+00  0.84942853819E+03  0.84942853819E+03  0.00000000000E+00 0. -1.
         22   -1    0    0    0    0 -0.00000000000E+00 -0.00000000000E+00 -0.30519585304E+03  0.30519585304E+03  0.00000000000E+00 0.  1.
         24    2    1    2    0    0 -0.42252943759E+02 -0.39372581713E+02 -0.24884111775E+03  0.26648602944E+03  0.75877470663E+02 0.  0.
         25    2    1    2    0    0  0.23995276791E+02 -0.65262911181E+02  0.82148733844E+02  0.16501748253E+03  0.12508930484E+03 0.  0.
        -24    2    1    2    0    0  0.18257666968E+02  0.10463549289E+03  0.71092506907E+03  0.72312087926E+03  0.78787203340E+02 0.  0.
        -13    1    3    3    0    0 -0.19978976829E+02 -0.30464406104E+02 -0.23690774104E+03  0.23969254749E+03  0.00000000000E+00 0.  1.
         14    1    3    3    0    0 -0.22273966930E+02 -0.89081756092E+01 -0.11933376713E+02  0.26793481955E+02  0.00000000000E+00 0. -1.
         13    1    5    5    0    0 -0.15353723188E+02  0.62455407579E+02  0.54180636570E+03  0.54561025711E+03  0.00000000000E+00 0. -1.
        -14    1    5    5    0    0  0.33611390157E+02  0.42180085315E+02  0.16911870337E+03  0.17751062215E+03  0.00000000000E+00 0.  1.
          5    1    4    4  501    0  0.19918576002E+02  0.64649708779E+01 -0.26910653525E+02  0.34354056406E+02  0.41800000000E+01 0. -1.
         -5    1    4    4    0  501  0.40767007889E+01 -0.71727882059E+02  0.10905938737E+03  0.13066342613E+03  0.41800000000E+01 0. -1.
</event>
<event>
11    1  0.6455215E-009  0.1318769E+03  0.7561462E-02  0.1116984E+00
         22   -1    0    0    0    0  0.00000000000E+00  0.00000000000E+00  0.48705766562E+03  0.48705766562E+03  0.00000000000E+00 0. -1.
         22   -1    0    0    0    0 -0.00000000000E+00 -0.00000000000E+00 -0.35146814227E+04  0.35146814227E+04  0.00000000000E+00 0. -1.
        -24    2    1    2    0    0  0.99021520556E+01  0.27586835673E+02 -0.34741502993E+04  0.34752525076E+04  0.82465770487E+02 0.  0.
         25    2    1    2    0    0 -0.46038766222E+02 -0.53531504859E+01  0.96353005272E+02  0.16456001663E+03  0.12509145947E+03 0.  0.
         24    2    1    2    0    0  0.36136614167E+02 -0.22233685188E+02  0.35017353698E+03  0.36192656407E+03  0.81050232200E+02 0.  0.
        -11    1    5    5    0    0  0.24192108885E+02  0.29633717560E+02  0.14819956696E+03  0.15305726705E+03  0.00000000000E+00 0.  1.
         12    1    5    5    0    0  0.11944505282E+02 -0.51867402748E+02  0.20197397002E+03  0.20886929702E+03  0.00000000000E+00 0. -1.
         11    1    3    3    0    0  0.79247770259E+01  0.92771136680E+01 -0.33176404985E+04  0.33176629341E+04  0.00000000000E+00 0. -1.
        -12    1    3    3    0    0  0.19773750297E+01  0.18309722005E+02 -0.15650980079E+03  0.15758957350E+03  0.00000000000E+00 0.  1.
          5    1    4    4  501    0  0.34207619146E+02 -0.37049055217E+01 -0.52022316549E+01  0.35048867981E+02  0.41800000000E+01 0.  1.
         -5    1    4    4    0  501 -0.80246385369E+02 -0.16482449641E+01  0.10155523693E+03  0.12951114865E+03  0.41800000000E+01 0.  1.
</event>
<event>
11    1  0.6455215E-009  0.1380348E+03  0.7561462E-02  0.1109773E+00
         22   -1    0    0    0    0  0.00000000000E+00  0.00000000000E+00  0.24487283209E+03  0.24487283209E+03  0.00000000000E+00 0.  1.
         22   -1    0    0    0    0 -0.00000000000E+00 -0.00000000000E+00 -0.81452215042E+03  0.81452215042E+03  0.00000000000E+00 0. -1.
        -24    2    1    2    0    0  0.16549210219E+01  0.56511472597E+02 -0.71819821778E+03  0.72485002632E+03  0.80016219207E+02 0.  0.
         25    2    1    2    0    0  0.19584708895E+02 -0.10839273745E+03  0.12146796978E+02  0.16711106996E+03  0.12508404643E+03 0.  0.
         24    2    1    2    0    0 -0.21239629917E+02  0.51881264853E+02  0.13640210247E+03  0.16743388623E+03  0.79282943789E+02 0.  0.
        -11    1    5    5    0    0 -0.86471907564E+01  0.28899025066E+02  0.13792364825E+03  0.14118378201E+03  0.00000000000E+00 0.  1.
         12    1    5    5    0    0 -0.12592439161E+02  0.22982239787E+02 -0.15215457739E+01  0.26250104213E+02  0.00000000000E+00 0. -1.
         13    1    3    3    0    0 -0.21401211831E+02  0.14041712467E+02 -0.52761788572E+03  0.52823840725E+03  0.00000000000E+00 0. -1.
        -14    1    3    3    0    0  0.23056132853E+02  0.42469760130E+02 -0.19058033206E+03  0.19661161908E+03  0.00000000000E+00 0.  1.
          5    1    4    4  501    0  0.39596057396E+02 -0.18840041772E+02 -0.41682602439E+02  0.60644098488E+02  0.41800000000E+01 0.  1.
         -5    1    4    4    0  501 -0.20011348501E+02 -0.89552695677E+02  0.53829399417E+02  0.10646697147E+03  0.41800000000E+01 0.  1.
</event>
<event>
11    1  0.6455215E-009  0.1580552E+03  0.7561462E-02  0.1088921E+00
         22   -1    0    0    0    0  0.00000000000E+00  0.00000000000E+00  0.14722738110E+04  0.14722738110E+04  0.00000000000E+00 0. -1.
         22   -1    0    0    0    0 -0.00000000000E+00 -0.00000000000E+00 -0.98333671586E+03  0.98333671586E+03  0.00000000000E+00 0.  1.
        -24    2    1    2    0    0  0.87201970444E+02  0.41137372217E+02 -0.89539564630E+03  0.90399189725E+03  0.78559021374E+02 0.  0.
         25    2    1    2    0    0 -0.13013100134E+03  0.39390411787E+02  0.24584646756E+02  0.18635603255E+03  0.12505392421E+03 0.  0.
         24    2    1    2    0    0  0.42929030897E+02 -0.80527784003E+02  0.13597480947E+04  0.13652625970E+04  0.81850181734E+02 0.  0.
        -13    1    5    5    0    0 -0.69519363036E+01 -0.30344308824E+02  0.13801641144E+03  0.14148369631E+03  0.00000000000E+00 0.  1.
         14    1    5    5    0    0  0.49880967201E+02 -0.50183475179E+02  0.12217316832E+04  0.12237789007E+04  0.00000000000E+00 0. -1.
         11    1    3    3    0    0 -0.10424865655E+01  0.35921590038E+02 -0.24915668269E+03  0.25173497957E+03  0.00000000000E+00 0. -1.
        -12    1    3    3    0    0  0.88244457009E+02  0.52157821784E+01 -0.64623896361E+03  0.65225691768E+03  0.00000000000E+00 0.  1.
          5    1    4    4  501    0 -0.13002424554E+03  0.53862658080E+02  0.55989671874E+02  0.15152493564E+03  0.41800000000E+01 0. -1.
         -5    1    4    4    0  501 -0.10675580433E+00 -0.14472246294E+02 -0.31405025117E+02  0.34831096914E+02  0.41800000000E+01 0. -1.
</event>
<event>
11    1  0.6455215E-009  0.1311845E+03  0.7561462E-02  0.1117822E+00
         22   -1    0    0    0    0  0.00000000000E+00  0.00000000000E+00  0.30129455870E+03  0.30129455870E+03  0.00000000000E+00 0. -1.
         22   -1    0    0    0    0 -0.00000000000E+00 -0.00000000000E+00 -0.21133068932E+04  0.21133068932E+04  0.00000000000E+00 0. -1.
        -24    2    1    2    0    0 -0.30151191645E+02 -0.39934810487E+02 -0.18145332891E+04  0.18169717778E+04  0.79696304154E+02 0.  0.
         25    2    1    2    0    0  0.24835969949E+02 -0.80447239964E+00 -0.27263454285E+03  0.30098885388E+03  0.12508886292E+03 0.  0.
         24    2    1    2    0    0  0.53152216959E+01  0.40739282886E+02  0.27515549743E+03  0.29664082017E+03  0.10294312832E+03 0.  0.
        -13    1    5    5    0    0 -0.29976638205E+01  0.28793237908E+02  0.93271099642E+01  0.30414330798E+02  0.00000000000E+00 0.  1.
         14    1    5    5    0    0  0.83128855164E+01  0.11946044978E+02  0.26582838747E+03  0.26622648937E+03  0.00000000000E+00 0. -1.
         11    1    3    3    0    0 -0.50020030403E+02 -0.50364509864E+02 -0.14653011502E+04  0.14670194437E+04  0.00000000000E+00 0. -1.
        -12    1    3    3    0    0  0.19868838758E+02  0.10429699377E+02 -0.34923213885E+03  0.34995233416E+03  0.00000000000E+00 0.  1.
          5    1    4    4  501    0  0.62677670419E+02 -0.37950968174E+02 -0.17585699738E+03  0.19055687414E+03  0.41800000000E+01 0. -1.
         -5    1    4    4    0  501 -0.37841700470E+02  0.37146495774E+02 -0.96777545468E+02  0.11043197974E+03  0.41800000000E+01 0. -1.
</event>
<event>
11    1  0.6455215E-009  0.1290251E+03  0.7561462E-02  0.1120473E+00
         22   -1    0    0    0    0  0.00000000000E+00  0.00000000000E+00  0.70185786184E+03  0.70185786184E+03  0.00000000000E+00 0.  1.
         22   -1    0    0    0    0 -0.00000000000E+00 -0.00000000000E+00 -0.16228852816E+03  0.16228852816E+03  0.00000000000E+00 0. -1.
        -24    2    1    2    0    0  0.67783615957E+01 -0.36824654889E+02 -0.55543058089E+02  0.10517085806E+03  0.81079446778E+02 0.  0.
         25    2    1    2    0    0 -0.32408033050E+02  0.86592310770E+01 -0.25498090782E+02  0.13199734244E+03  0.12509149807E+03 0.  0.
         24    2    1    2    0    0  0.25629671454E+02  0.28165423812E+02  0.62061048254E+03  0.62697818950E+03  0.80586027971E+02 0.  0.
        -13    1    5    5    0    0  0.18507008661E+02 -0.14131739010E+02  0.46447257282E+03  0.46505589591E+03  0.00000000000E+00 0.  1.
         14    1    5    5    0    0  0.71226627931E+01  0.42297162823E+02  0.15613790973E+03  0.16192229359E+03  0.00000000000E+00 0. -1.
         11    1    3    3    0    0  0.40302615654E+02 -0.31684892799E+02 -0.17420697259E+02  0.54145304073E+02  0.00000000000E+00 0. -1.
        -12    1    3    3    0    0 -0.33524254058E+02 -0.51397620909E+01 -0.38122360830E+02  0.51025553988E+02  0.00000000000E+00 0.  1.
          5    1    4    4  501    0  0.36308921785E+02  0.22048014172E+02 -0.42070559927E+02  0.59932104441E+02  0.41800000000E+01 0. -1.
         -5    1    4    4    0  501 -0.68716954835E+02 -0.13388783095E+02  0.16572469145E+02  0.72065238001E+02  0.41800000000E+01 0. -1.
</event>
<event>
11    1  0.6455215E-009  0.1478773E+03  0.7561462E-02  0.1099068E+00
         22   -1    0    0    0    0  0.00000000000E+00  0.00000000000E+00  0.76042335550E+02  0.76042335550E+02  0.00000000000E+00 0. -1.
         22   -1    0    0    0    0 -0.00000000000E+00 -0.00000000000E+00 -0.10209857088E+04  0.10209857088E+04  0.00000000000E+00 0. -1.
         24    2    1    2    0    0  0.24294365699E+02  0.96111201119E+01 -0.62313835849E+03  0.62871268272E+03  0.79345029808E+02 0.  0.
         25    2    1    2    0    0 -0.61168557173E+02  0.59566232458E+02 -0.32699649733E+03  0.36037108252E+03  0.12510347484E+03 0.  0.
        -24    2    1    2    0    0  0.36874191474E+02 -0.69177352570E+02  0.51914825651E+01  0.10794427912E+03  0.74025696869E+02 0.  0.
        -11    1    3    3    0    0 -0.22393019886E+02 -0.14401269987E+02 -0.12430968812E+03  0.12712884203E+03  0.00000000000E+00 0.  1.
         12    1    3    3    0    0  0.46687385585E+02  0.24012390099E+02 -0.49882867038E+03  0.50158384069E+03  0.00000000000E+00 0. -1.
         11    1    5    5    0    0  0.61056784799E+01 -0.68062982468E+02  0.23331045663E+02  0.72209324771E+02  0.00000000000E+00 0. -1.
        -12    1    5    5    0    0  0.30768512994E+02 -0.11143701016E+01 -0.18139563098E+02  0.35734954344E+02  0.00000000000E+00 0.  1.
          5    1    4    4  501    0 -0.32310678522E+02  0.12589397636E+02 -0.69864037190E+01  0.35619588941E+02  0.41800000000E+01 0. -1.
         -5    1    4    4    0  501 -0.28857878651E+02  0.46976834822E+02 -0.32001009361E+03  0.32475149358E+03  0.41800000000E+01 0. -1.
</event>
<event>
11    1  0.6455215E-009  0.2336466E+03  0.7561462E-02  0.1032990E+00
         22   -1    0    0    0    0  0.00000000000E+00  0.00000000000E+00  0.10512307235E+03  0.10512307235E+03  0.00000000000E+00 0.  1.
         22   -1    0    0    0    0 -0.00000000000E+00 -0.00000000000E+00 -0.24165833210E+04  0.24165833210E+04  0.00000000000E+00 0. -1.
        -24    2    1    2    0    0 -0.67045240892E+02  0.10869948075E+02 -0.14122863751E+04  0.14163294161E+04  0.82601388242E+02 0.  0.
         25    2    1    2    0    0  0.25359942018E+03 -0.37333231876E+02 -0.84717633949E+03  0.89390094012E+03  0.12507879292E+03 0.  0.
         24    2    1    2    0    0 -0.18655417928E+03  0.26463283801E+02 -0.51997533991E+02  0.21147603712E+03  0.80719288492E+02 0.  0.
        -11    1    5    5    0    0 -0.16002023136E+03  0.41893791230E+02 -0.19148153395E+02  0.16651791485E+03  0.00000000000E+00 0.  1.
         12    1    5    5    0    0 -0.26533947928E+02 -0.15430507429E+02 -0.32849380597E+02  0.44958122266E+02  0.00000000000E+00 0. -1.
         13    1    3    3    0    0 -0.80546710458E+02  0.41597447259E+01 -0.84445102140E+03  0.84829393702E+03  0.00000000000E+00 0. -1.
        -14    1    3    3    0    0  0.13501469566E+02  0.67102033487E+01 -0.56783535374E+03  0.56803547905E+03  0.00000000000E+00 0.  1.
          5    1    4    4  501    0  0.18354740211E+03 -0.47965255504E+02 -0.74957158312E+03  0.77321752772E+03  0.41800000000E+01 0. -1.
         -5    1    4    4    0  501  0.70052018067E+02  0.10632023628E+02 -0.97604756369E+02  0.12068341240E+03  0.41800000000E+01 0. -1.
</event>
<event>
11    1  0.6455215E-009  0.1361122E+03  0.7561462E-02  0.1111979E+00
         22   -1    0    0    0    0  0.00000000000E+00  0.00000000000E+00  0.21621348934E+03  0.21621348934E+03  0.00000000000E+00 0.  1.
         22   -1    0    0    0    0 -0.00000000000E+00 -0.00000000000E+00 -0.22822993052E+04  0.22822993052E+04  0.00000000000E+00 0. -1.
        -24    2    1    2    0    0  0.38899713657E+02 -0.38021124823E+02 -0.20217782488E+04  0.20240900000E+04  0.79964038657E+02 0.  0.
         25    2    1    2    0    0 -0.21887795869E+02  0.38345456415E+02 -0.23319010141E+03  0.26827968818E+03  0.12508764151E+03 0.  0.
         24    2    1    2    0    0 -0.17011917788E+02 -0.32433159175E+00  0.18888253434E+03  0.20614310628E+03  0.80801348694E+02 0.  0.
        -13    1    5    5    0    0  0.54717293889E+01  0.29483761822E+01  0.18241372908E+03  0.18251959156E+03  0.00000000000E+00 0.  1.
         14    1    5    5    0    0 -0.22483647176E+02 -0.32727077740E+01  0.64688052605E+01  0.23623514726E+02  0.00000000000E+00 0. -1.
         13    1    3    3    0    0  0.63877286346E+02 -0.25684225524E+02 -0.14296477673E+04  0.14313045538E+04  0.00000000000E+00 0. -1.
        -14    1    3    3    0    0 -0.24977572690E+02 -0.12336899299E+02 -0.59213048147E+03  0.59278544627E+03  0.00000000000E+00 0.  1.
          5    1    4    4  501    0 -0.10417074627E+02 -0.41103498001E+02 -0.37637767426E+02  0.56851446143E+02  0.41800000000E+01 0. -1.
         -5    1    4    4    0  501 -0.11470721242E+02  0.79448954416E+02 -0.19555233399E+03  0.21142824204E+03  0.41800000000E+01 0. -1.
</event>
<event>
11    1  0.6455215E-009  0.1761740E+03  0.7561462E-02  0.1072780E+00
         22   -1    0    0    0    0  0.00000000000E+00  0.00000000000E+00  0.10598706626E+04  0.10598706626E+04  0.00000000000E+00 0. -1.
         22   -1    0    0    0    0 -0.00000000000E+00 -0.00000000000E+00 -0.57003524394E+02  0.57003524394E+02  0.00000000000E+00 0.  1.
         24    2    1    2    0    0  0.10289034892E+03 -0.50750788519E+02  0.12473485222E+03  0.18851563611E+03  0.82566913854E+02 0.  0.
         25    2    1    2    0    0 -0.12522452509E+03  0.97369459749E+02  0.52039104363E+03  0.55821985171E+03  0.12506226917E+03 0.  0.
        -24    2    1    2    0    0  0.22334176171E+02 -0.46618671230E+02  0.35774124237E+03  0.37013869920E+03  0.79697830704E+02 0.  0.
        -11    1    3    3    0    0 -0.13943893184E+02 -0.11541353924E+02  0.15245701403E+02  0.23665722444E+02  0.00000000000E+00 0.  1.
         12    1    3    3    0    0  0.11683424210E+03 -0.39209434595E+02  0.10948915082E+03  0.16484991366E+03  0.00000000000E+00 0. -1.
         13    1    5    5    0    0 -0.17990443845E+02 -0.25165053189E+02  0.26458239347E+03  0.26638464465E+03  0.00000000000E+00 0. -1.
        -14    1    5    5    0    0  0.40324620016E+02 -0.21453618041E+02  0.93158848902E+02  0.10375405455E+03  0.00000000000E+00 0.  1.
          5    1    4    4  501    0 -0.19589603338E+01  0.65326565850E+02  0.26273197013E+03  0.27077104398E+03  0.41800000000E+01 0.  1.
         -5    1    4    4    0  501 -0.12326556475E+03  0.32042893899E+02  0.25765907350E+03  0.28744880772E+03  0.41800000000E+01 0.  1.
</event>
<event>
11    1  0.6455215E-009  0.2295114E+03  0.7561462E-02  0.1035418E+00
         22   -1    0    0    0    0  0.00000000000E+00  0.00000000000E+00  0.14512992138E+04  0.14512992138E+04  0.00000000000E+00 0.  1.
         22   -1    0    0    0    0 -0.00000000000E+00 -0.00000000000E+00 -0.68958438047E+03  0.68958438047E+03  0.00000000000E+00 0.  1.
        -24    2    1    2    0    0 -0.11043569953E+02 -0.19008768919E+03 -0.63157272501E+03  0.66441909398E+03  0.79456500324E+02 0.  0.
         25    2    1    2    0    0 -0.58592090005E+02  0.29098814315E+03  0.74089103828E+03  0.80788345476E+03  0.12509601677E+03 0.  0.
         24    2    1    2    0    0  0.69635659959E+02 -0.10090045395E+03  0.65239652009E+03  0.66858104556E+03  0.79682923548E+02 0.  0.
        -11    1    5    5    0    0  0.51848940852E+02 -0.11314067164E+03  0.54395259670E+03  0.55800855881E+03  0.00000000000E+00 0.  1.
         12    1    5    5    0    0  0.17786719106E+02  0.12240217683E+02  0.10844392339E+03  0.11057248675E+03  0.00000000000E+00 0. -1.
         11    1    3    3    0    0  0.78134873625E+01  0.48772926167E+01 -0.47266798999E+02  0.48155880800E+02  0.00000000000E+00 0. -1.
        -12    1    3    3    0    0 -0.18857057316E+02 -0.19496498181E+03 -0.58430592601E+03  0.61626321318E+03  0.00000000000E+00 0.  1.
          5    1    4    4  501    0 -0.72877783168E+02  0.18546925741E+03  0.35049714422E+03  0.40320681694E+03  0.41800000000E+01 0. -1.
         -5    1    4    4    0  501  0.14285693162E+02  0.10551888574E+03  0.39039389406E+03  0.40467663782E+03  0.41800000000E+01 0. -1.
</event>
<event>
11    1  0.6455215E-009  0.2053407E+03  0.7561462E-02  0.1050810E+00
         22   -1    0    0    0    0  0.00000000000E+00  0.00000000000E+00  0.10408960986E+04  0.10408960986E+04  0.00000000000E+00 0. -1.
         22   -1    0    0    0    0 -0.00000000000E+00 -0.00000000000E+00 -0.43454662359E+03  0.43454662359E+03  0.00000000000E+00 0.  1.
        -24    2    1    2    0    0 -0.15079860526E+03 -0.58163567475E+02 -0.36468270122E+03  0.40688666935E+03  0.80250041701E+02 0.  0.
         25    2    1    2    0    0  0.14445962095E+03  0.12136595650E+03  0.23848885416E+03  0.32881717380E+03  0.12508206405E+03 0.  0.
         24    2    1    2    0    0  0.63389843110E+01 -0.63202389023E+02  0.73254332209E+03  0.73973887905E+03  0.80988676607E+02 0.  0.
        -11    1    5    5    0    0  0.36289887317E+02 -0.15349265624E+02  0.44262572937E+03  0.44437607066E+03  0.00000000000E+00 0.  1.
         12    1    5    5    0    0 -0.29950903006E+02 -0.47853123400E+02  0.28991759271E+03  0.29536280838E+03  0.00000000000E+00 0. -1.
         13    1    3    3    0    0 -0.38674065790E+02 -0.42313247842E+02 -0.65783006929E+02  0.87255362633E+02  0.00000000000E+00 0. -1.
        -14    1    3    3    0    0 -0.11212453947E+03 -0.15850319633E+02 -0.29889969429E+03  0.31963130672E+03  0.00000000000E+00 0.  1.
          5    1    4    4  501    0  0.10576556308E+03  0.79454976788E+02  0.67609713195E+02  0.14862029938E+03  0.41800000000E+01 0. -1.
         -5    1    4    4    0  501  0.38694057873E+02  0.41910979710E+02  0.17087914096E+03  0.18019687442E+03  0.41800000000E+01 0. -1.
</event>
<event>
11    1  0.6455215E-009  0.2942635E+03  0.7561462E-02  0.1002649E+00
         22   -1    0    0    0    0  0.00000000000E+00  0.00000000000E+00  0.11220683279E+04  0.11220683279E+04  0.00000000000E+00 0.  1.
         22   -1    0    0    0    0 -0.00000000000E+00 -0.00000000000E+00 -0.18775427018E+03  0.18775427018E+03  0.00000000000E+00 0.  1.
        -24    2    1    2    0    0  0.88613934365E+02  0.23946631312E+03  0.20013718808E+02  0.26851798804E+03  0.80652442482E+02 0.  0.
         25    2    1    2    0    0 -0.20381195578E+03 -0.25414027320E+03  0.55928503591E+03  0.65922083023E+03  0.12508301180E+03 0.  0.
         24    2    1    2    0    0  0.11519802141E+03  0.14673960081E+02  0.35501530304E+03  0.38208377983E+03  0.80412935384E+02 0.  0.
        -13    1    5    5    0    0  0.77551115015E+02  0.43465645170E+02  0.17989019900E+03  0.20065871884E+03  0.00000000000E+00 0.  1.
         14    1    5    5    0    0  0.37646906399E+02 -0.28791685089E+02  0.17512510404E+03  0.18142506099E+03  0.00000000000E+00 0. -1.
         13    1    3    3    0    0  0.19422864333E+01  0.11779772557E+03  0.17558809297E+02  0.11911502176E+03  0.00000000000E+00 0. -1.
        -14    1    3    3    0    0  0.86671647932E+02  0.12166858755E+03  0.24549095116E+01  0.14940296628E+03  0.00000000000E+00 0.  1.
          5    1    4    4  501    0  0.47259076102E+01 -0.49767220309E+02  0.42997014579E+02  0.66070614366E+02  0.41800000000E+01 0. -1.
         -5    1    4    4    0  501 -0.20853786339E+03 -0.20437305289E+03  0.51628802133E+03  0.59315021586E+03  0.41800000000E+01 0. -1.
</event>
<event>
11    1  0.6455215E-009  0.1339084E+03  0.7561462E-02  0.1114558E+00
         22   -1    0    0    0    0  0.00000000000E+00  0.00000000000E+00  0.72013573008E+03  0.72013573008E+03  0.00000000000E+00 0.  1.
         22   -1    0    0    0    0 -0.00000000000E+00 -0.00000000000E+00 -0.11409694131E+03  0.11409694131E+03  0.00000000000E+00 0.  1.
         24    2    1    2    0    0  0.56787632023E+02  0.18682694608E+02 -0.40265072700E+02  0.10847342346E+03  0.81063735966E+02 0.  0.
         25    2    1    2    0    0 -0.76917504012E+01 -0.58935638142E+01  0.73944686970E+02  0.14563493590E+03  0.12509124952E+03 0.  0.
        -24    2    1    2    0    0 -0.49095881621E+02 -0.12789130794E+02  0.57235917450E+03  0.58012431203E+03  0.79845008076E+02 0.  0.
        -11    1    3    3    0    0  0.14149224776E+02 -0.70101724960E+01 -0.54464063893E+02  0.56706942572E+02  0.00000000000E+00 0.  1.
         12    1    3    3    0    0  0.42638407246E+02  0.25692867104E+02  0.14198991192E+02  0.51766480887E+02  0.00000000000E+00 0. -1.
         13    1    5    5    0    0 -0.56265363907E+02  0.11925907462E+02  0.24102896693E+03  0.24779624965E+03  0.00000000000E+00 0. -1.
        -14    1    5    5    0    0  0.71694822859E+01 -0.24715038256E+02  0.33133020757E+03  0.33232806237E+03  0.00000000000E+00 0.  1.
          5    1    4    4  501    0  0.16751963275E+02  0.29856263387E+02 -0.21569088437E+02  0.40678283063E+02  0.41800000000E+01 0. -1.
         -5    1    4    4    0  501 -0.24443713676E+02 -0.35749827201E+02  0.95513775406E+02  0.10495665284E+03  0.41800000000E+01 0. -1.
</event>
<event>
11    1  0.6455215E-009  0.1659513E+03  0.7561462E-02  0.1081610E+00
         22   -1    0    0    0    0  0.00000000000E+00  0.00000000000E+00  0.21070543328E+03  0.21070543328E+03  0.00000000000E+00 0.  1.
         22   -1    0    0    0    0 -0.00000000000E+00 -0.00000000000E+00 -0.35896386208E+04  0.35896386208E+04  0.00000000000E+00 0. -1.
        -24    2    1    2    0    0 -0.26751782275E+02 -0.10550715300E+03 -0.34686112217E+04  0.34712576021E+04  0.80734847687E+02 0.  0.
         25    2    1    2    0    0  0.72815711037E+02  0.10657649229E+03 -0.23034295345E+02  0.18121489437E+03  0.12509029817E+03 0.  0.
         24    2    1    2    0    0 -0.46063928762E+02 -0.10693392888E+01  0.11271232952E+03  0.14787155762E+03  0.83898148405E+02 0.  0.
        -11    1    5    5    0    0 -0.37964297080E+02  0.76340639200E+01  0.44735694120E+01  0.38981785593E+02  0.00000000000E+00 0.  1.
         12    1    5    5    0    0 -0.80996316818E+01 -0.87034032088E+01  0.10823876011E+03  0.10888977202E+03  0.00000000000E+00 0. -1.
         11    1    3    3    0    0 -0.52839815546E+02 -0.44222741466E+02 -0.17847009290E+04  0.17860305437E+04  0.00000000000E+00 0. -1.
        -12    1    3    3    0    0  0.26088033271E+02 -0.61284411538E+02 -0.16839102927E+04  0.16852270585E+04  0.00000000000E+00 0.  1.
          5    1    4    4  501    0  0.40391587635E+02 -0.17160858199E+02  0.16797747084E+02  0.47176393598E+02  0.41800000000E+01 0.  1.
         -5    1    4    4    0  501  0.32424123402E+02  0.12373735049E+03 -0.39832042430E+02  0.13403850077E+03  0.41800000000E+01 0.  1.
</event>
<event>
11    1  0.6455215E-009  0.1392498E+03  0.7561462E-02  0.1108399E+00
         22   -1    0    0    0    0  0.00000000000E+00  0.00000000000E+00  0.14571328450E+04  0.14571328450E+04  0.00000000000E+00 0.  1.
         22   -1    0    0    0    0 -0.00000000000E+00 -0.00000000000E+00 -0.24816459679E+03  0.24816459679E+03  0.00000000000E+00 0. -1.
         24    2    1    2    0    0 -0.46437087366E+02 -0.35656239127E+02 -0.18395621437E+03  0.20900891831E+03  0.80106608068E+02 0.  0.
         25    2    1    2    0    0  0.41607499265E+02  0.87055654892E+02  0.74912242673E+02  0.17484002436E+03  0.12508924403E+03 0.  0.
        -24    2    1    2    0    0  0.48295881011E+01 -0.51399415766E+02  0.13180122199E+04  0.13214484991E+04  0.80029364083E+02 0.  0.
        -11    1    3    3    0    0 -0.11601856270E+02 -0.14428865024E+02  0.20077582040E+01  0.18623273283E+02  0.00000000000E+00 0.  1.
         12    1    3    3    0    0 -0.34835231097E+02 -0.21227374103E+02 -0.18596397258E+03  0.19038564503E+03  0.00000000000E+00 0. -1.
         11    1    5    5    0    0  0.24804216688E+02 -0.44874081588E+02  0.41005566634E+03  0.41324881350E+03  0.00000000000E+00 0. -1.
        -12    1    5    5    0    0 -0.19974628586E+02 -0.65253341774E+01  0.90795655353E+03  0.90819968558E+03  0.00000000000E+00 0.  1.
          5    1    4    4  501    0  0.63863176307E+02 -0.39212593601E+01  0.33577243557E+02  0.72379453216E+02  0.41800000000E+01 0. -1.
         -5    1    4    4    0  501 -0.22255677041E+02  0.90976914253E+02  0.41334999116E+02  0.10246057115E+03  0.41800000000E+01 0. -1.
</event>
<event>
11    1  0.6455215E-009  0.1365663E+03  0.7561462E-02  0.1111454E+00
         22   -1    0    0    0    0  0.00000000000E+00  0.00000000000E+00  0.55855994214E+03  0.55855994214E+03  0.00000000000E+00 0.  1.
         22   -1    0    0    0    0 -0.00000000000E+00 -0.00000000000E+00 -0.79369463104E+03  0.79369463104E+03  0.00000000000E+00 0.  1.
        -24    2    1    2    0    0 -0.52343601787E+02  0.42877601645E+01 -0.68736977439E+03  0.69407706653E+03  0.80669263026E+02 0.  0.
         25    2    1    2    0    0  0.97745455701E+02 -0.17019627722E+02 -0.33755832024E+02  0.16318845718E+03  0.12508866665E+03 0.  0.
         24    2    1    2    0    0 -0.45401853914E+02  0.12731867557E+02  0.48599091752E+03  0.49498904946E+03  0.81262281469E+02 0.  0.
        -13    1    5    5    0    0  0.30416269277E+01  0.38607427884E+02  0.22084307667E+03  0.22421295568E+03  0.00000000000E+00 0.  1.
         14    1    5    5    0    0 -0.48443480842E+02 -0.25875560327E+02  0.26514784085E+03  0.27077609378E+03  0.00000000000E+00 0. -1.
         11    1    3    3    0    0 -0.20064909878E+02 -0.24582186097E+02 -0.95677142564E+02  0.10080178615E+03  0.00000000000E+00 0. -1.
        -12    1    3    3    0    0 -0.32278691908E+02  0.28869946262E+02 -0.59169263183E+03  0.59327528038E+03  0.00000000000E+00 0.  1.
          5    1    4    4  501    0  0.10113051110E+03  0.32557032823E+02 -0.38536293951E+02  0.11309225885E+03  0.41800000000E+01 0. -1.
         -5    1    4    4    0  501 -0.33850553973E+01 -0.49576660545E+02  0.47804619262E+01  0.50096198329E+02  0.41800000000E+01 0. -1.
</event>
<event>
11    1  0.6455215E-009  0.1269042E+03  0.7561462E-02  0.1123132E+00
         22   -1    0    0    0    0  0.00000000000E+00  0.00000000000E+00  0.19579150252E+04  0.19579150252E+04  0.00000000000E+00 0.  1.
         22   -1    0    0    0    0 -0.00000000000E+00 -0.00000000000E+00 -0.43314139155E+03  0.43314139155E+03  0.00000000000E+00 0.  1.
        -24    2    1    2    0    0  0.35328118336E+02  0.79845728174E+00 -0.37620754375E+03  0.38460947062E+03  0.71719003344E+02 0.  0.
         25    2    1    2    0    0 -0.28882456296E+02 -0.21370489117E+02  0.29953477640E+02  0.13354825149E+03  0.12508809122E+03 0.  0.
         24    2    1    2    0    0 -0.64456620397E+01  0.20572031836E+02  0.18710276998E+04  0.18728986947E+04  0.80870959407E+02 0.  0.
        -11    1    5    5    0    0 -0.14406712044E+01 -0.15562425630E+02  0.15001180751E+04  0.15001994880E+04  0.00000000000E+00 0.  1.
         12    1    5    5    0    0 -0.50049908353E+01  0.36134457466E+02  0.37090962466E+03  0.37269920662E+03  0.00000000000E+00 0. -1.
         11    1    3    3    0    0  0.33409259236E+02 -0.18443250502E+01 -0.62569040825E+02  0.70953964001E+02  0.00000000000E+00 0. -1.
        -12    1    3    3    0    0  0.19188590992E+01  0.26427823319E+01 -0.31363850292E+03  0.31365550662E+03  0.00000000000E+00 0.  1.
          5    1    4    4  501    0  0.41201229580E+02 -0.13239883663E+02  0.43591235077E+02  0.61567069232E+02  0.41800000000E+01 0. -1.
         -5    1    4    4    0  501 -0.70083685876E+02 -0.81306054548E+01 -0.13637757437E+02  0.71981182256E+02  0.41800000000E+01 0. -1.
</event>
<event>
11    1  0.6455215E-009  0.1319823E+03  0.7561462E-02  0.1116857E+00
         22   -1    0    0    0    0  0.00000000000E+00  0.00000000000E+00  0.39719700475E+02  0.39719700475E+02  0.00000000000E+00 0. -1.
         22   -1    0    0    0    0 -0.00000000000E+00 -0.00000000000E+00 -0.11588253433E+04  0.11588253433E+04  0.00000000000E+00 0. -1.
        -24    2    1    2    0    0 -0.15978395839E+02 -0.26404444022E+01 -0.69996730178E+03  0.70472451206E+03  0.80125733999E+02 0.  0.
         25    2    1    2    0    0  0.54180822469E+02  0.11738734118E+02 -0.36465437609E+03  0.38947991788E+03  0.12509369701E+03 0.  0.
         24    2    1    2    0    0 -0.38202426630E+02 -0.90982897156E+01 -0.54483964966E+02  0.10434061385E+03  0.79851468261E+02 0.  0.
        -13    1    5    5    0    0 -0.64295827496E+01  0.14640691383E+02 -0.61951634585E+02  0.63981985013E+02  0.00000000000E+00 0.  1.
         14    1    5    5    0    0 -0.31772843881E+02 -0.23738981099E+02  0.74676696188E+01  0.40358628835E+02  0.00000000000E+00 0. -1.
         11    1    3    3    0    0  0.32190712847E+02 -0.39222204468E+01 -0.34077220278E+03  0.34231172927E+03  0.00000000000E+00 0. -1.
        -12    1    3    3    0    0 -0.48169108686E+02  0.12817760446E+01 -0.35919509900E+03  0.36241278279E+03  0.00000000000E+00 0.  1.
          5    1    4    4  501    0  0.80703520799E+01  0.35356816190E+02 -0.31658715234E+03  0.31868500508E+03  0.41800000000E+01 0.  1.
         -5    1    4    4    0  501  0.46110470389E+02 -0.23618082073E+02 -0.48067223746E+02  0.70794912804E+02  0.41800000000E+01 0.  1.
</event>
<event>
11    1  0.6455215E-009  0.1673115E+03  0.7561462E-02  0.1080395E+00
         22   -1    0    0    0    0  0.00000000000E+00  0.00000000000E+00  0.32647332807E+03  0.32647332807E+03  0.00000000000E+00 0.  1.
         22   -1    0    0    0    0 -0.00000000000E+00 -0.00000000000E+00 -0.54252491246E+03  0.54252491246E+03  0.00000000000E+00 0. -1.
         24    2    1    2    0    0 -0.61242948863E+02  0.86827070702E+02 -0.38976759979E+03  0.41202858020E+03  0.80988456335E+02 0.  0.
         25    2    1    2    0    0  0.34601757903E+02 -0.14919831180E+03 -0.55097410752E+02  0.20528785196E+03  0.12509979856E+03 0.  0.
        -24    2    1    2    0    0  0.26641190960E+02  0.62371241096E+02  0.22881342616E+03  0.25168180837E+03  0.79926365502E+02 0.  0.
        -11    1    3    3    0    0 -0.77637518907E+02  0.47838602134E+02 -0.27397836231E+03  0.28875640116E+03  0.00000000000E+00 0.  1.
         12    1    3    3    0    0  0.16394570043E+02  0.38988468568E+02 -0.11578923748E+03  0.12327217904E+03  0.00000000000E+00 0. -1.
         11    1    5    5    0    0  0.18985336018E+02  0.49240187421E+02  0.51566824499E+02  0.73784662565E+02  0.00000000000E+00 0. -1.
        -12    1    5    5    0    0  0.76558549419E+01  0.13131053675E+02  0.17724660166E+03  0.17789714581E+03  0.00000000000E+00 0.  1.
          5    1    4    4  501    0 -0.40544165447E+02 -0.29351877775E+02 -0.37493305002E+02  0.62678404580E+02  0.41800000000E+01 0.  1.
         -5    1    4    4    0  501  0.75145923350E+02 -0.11984643402E+03 -0.17604105751E+02  0.14260944739E+03  0.41800000000E+01 0.  1.
</event>
<event>
11    1  0.6455215E-009  0.1524775E+03  0.7561462E-02  0.1094374E+00
         22   -1    0    0    0    0  0.00000000000E+00  0.00000000000E+00  0.34460842071E+03  0.34460842071E+03  0.00000000000E+00 0.  1.
         22   -1    0    0    0    0 -0.00000000000E+00 -0.00000000000E+00 -0.63596668003E+03  0.63596668003E+03  0.00000000000E+00 0.  1.
         24    2    1    2    0    0 -0.28220518673E+02 -0.84693045629E+02 -0.51470227253E+03  0.52876068852E+03  0.81854301800E+02 0.  0.
         25    2    1    2    0    0 -0.62457839922E+02  0.74295922265E+02 -0.37556838409E+02  0.16271951845E+03  0.12508501006E+03 0.  0.
        -24    2    1    2    0    0  0.90678358594E+02  0.10397123364E+02  0.26090085162E+03  0.28909489377E+03  0.84710910373E+02 0.  0.
        -13    1    3    3    0    0 -0.30425442374E+02 -0.56964480106E+02 -0.47981531011E+03  0.48414191241E+03  0.00000000000E+00 0.  1.
         14    1    3    3    0    0  0.22049237019E+01 -0.27728565523E+02 -0.34886962425E+02  0.44618776112E+02  0.00000000000E+00 0. -1.
         13    1    5    5    0    0 -0.38135151193E+01 -0.94339048446E+01  0.10654471899E+03  0.10702952211E+03  0.00000000000E+00 0. -1.
        -14    1    5    5    0    0  0.94491873713E+02  0.19831028209E+02  0.15435613263E+03  0.18206537166E+03  0.00000000000E+00 0.  1.
          5    1    4    4  501    0 -0.36273218346E+02  0.18184075016E+02 -0.78432987209E+02  0.88405954753E+02  0.41800000000E+01 0.  1.
         -5    1    4    4    0  501 -0.26184621575E+02  0.56111847249E+02  0.40876148800E+02  0.74313563697E+02  0.41800000000E+01 0.  1.
</event>
<event>
11    1  0.6455215E-009  0.6890102E+03  0.7561462E-02  0.9048658E-01
         22   -1    0    0    0    0  0.00000000000E+00  0.00000000000E+00  0.65322487017E+03  0.65322487017E+03  0.00000000000E+00 0. -1.
         22   -1    0    0    0    0 -0.00000000000E+00 -0.00000000000E+00 -0.16886227816E+04  0.16886227816E+04  0.00000000000E+00 0. -1.
         24    2    1    2    0    0  0.52269689946E+03 -0.42137228545E+03 -0.12682039890E+04  0.14372683762E+04  0.81439400766E+02 0.  0.
         25    2    1    2    0    0 -0.53418127495E+03  0.46319290745E+03  0.75687769889E+02  0.72199295534E+03  0.12509150665E+03 0.  0.
        -24    2    1    2    0    0  0.11484375494E+02 -0.41820622000E+02  0.15711830761E+03  0.18258632026E+03  0.82284545663E+02 0.  0.
        -11    1    3    3    0    0  0.17350831592E+03 -0.13212764454E+03 -0.33491164286E+03  0.39966067941E+03  0.00000000000E+00 0.  1.
         12    1    3    3    0    0  0.34918858353E+03 -0.28924464091E+03 -0.93329234611E+03  0.10376076968E+04  0.00000000000E+00 0. -1.
         13    1    5    5    0    0 -0.19351916298E+02 -0.48936440589E+02  0.13225802225E+03  0.14234274247E+03  0.00000000000E+00 0. -1.
        -14    1    5    5    0    0  0.30836291792E+02  0.71158185893E+01  0.24860285352E+02  0.40243577792E+02  0.00000000000E+00 0.  1.
          5    1    4    4  501    0 -0.48859835827E+03  0.46165342157E+03  0.70427279172E+02  0.67589178972E+03  0.41800000000E+01 0. -1.
         -5    1    4    4    0  501 -0.45582916677E+02  0.15394858785E+01  0.52604907165E+01  0.46101165626E+02  0.41800000000E+01 0. -1.
</event>
<event>
11    1  0.6455215E-009  0.1889130E+03  0.7561462E-02  0.1062653E+00
         22   -1    0    0    0    0  0.00000000000E+00  0.00000000000E+00  0.18056080717E+04  0.18056080717E+04  0.00000000000E+00 0.  1.
         22   -1    0    0    0    0 -0.00000000000E+00 -0.00000000000E+00 -0.66150738226E+02  0.66150738226E+02  0.00000000000E+00 0.  1.
        -24    2    1    2    0    0 -0.19677455866E+03  0.81117508144E+01  0.21770078106E+03  0.30101637472E+03  0.66567261748E+02 0.  0.
         25    2    1    2    0    0  0.45404356569E+02 -0.88946028149E+02  0.36511239678E+03  0.39865886011E+03  0.12509545532E+03 0.  0.
         24    2    1    2    0    0  0.15137020210E+03  0.80834277335E+02  0.11566441556E+04  0.11720835751E+04  0.80666509613E+02 0.  0.
        -13    1    5    5    0    0  0.13744989731E+03  0.35551552445E+02  0.89346681436E+03  0.90467637059E+03  0.00000000000E+00 0.  1.
         14    1    5    5    0    0  0.13920304787E+02  0.45282724889E+02  0.26317734129E+03  0.26740720451E+03  0.00000000000E+00 0. -1.
         11    1    3    3    0    0 -0.14325081342E+02  0.17380332666E+02  0.10713193210E+02  0.24941059075E+02  0.00000000000E+00 0. -1.
        -12    1    3    3    0    0 -0.18244947732E+03 -0.92685818511E+01  0.20698758785E+03  0.27607531564E+03  0.00000000000E+00 0.  1.
          5    1    4    4  501    0 -0.30025421540E+01  0.12049595857E+02  0.19192017997E+03  0.19236693037E+03  0.41800000000E+01 0.  1.
         -5    1    4    4    0  501  0.48406898723E+02 -0.10099562401E+03  0.17319221681E+03  0.20629192974E+03  0.41800000000E+01 0.  1.
</event>
<event>
11    1  0.6455215E-009  0.1611688E+03  0.7561462E-02  0.1085983E+00
         22   -1    0    0    0    0  0.00000000000E+00  0.00000000000E+00  0.83352193960E+03  0.83352193960E+03  0.00000000000E+00 0. -1.
         22   -1    0    0    0    0 -0.00000000000E+00 -0.00000000000E+00 -0.54397584404E+03  0.54397584404E+03  0.00000000000E+00 0. -1.
        -24    2    1    2    0    0 -0.42115873598E+02 -0.17730420311E+02 -0.33506325858E+03  0.34588209633E+03  0.72656195194E+02 0.  0.
         25    2    1    2    0    0  0.34022959972E+02 -0.84108970570E+02 -0.16817702219E+03  0.22839160962E+03  0.12508931136E+03 0.  0.
         24    2    1    2    0    0  0.80929136255E+01  0.10183939088E+03  0.79278637633E+03  0.80322407768E+03  0.78879171429E+02 0.  0.
        -13    1    5    5    0    0 -0.28684228493E+02  0.35539282399E+02  0.44110244260E+03  0.44346047222E+03  0.00000000000E+00 0.  1.
         14    1    5    5    0    0  0.36777142119E+02  0.66300108481E+02  0.35168393373E+03  0.35976360546E+03  0.00000000000E+00 0. -1.
         13    1    3    3    0    0  0.10119904126E+02 -0.10323273828E+02 -0.20523536372E+03  0.20574386251E+03  0.00000000000E+00 0. -1.
        -14    1    3    3    0    0 -0.52235777724E+02 -0.74071464828E+01 -0.12982789486E+03  0.14013823382E+03  0.00000000000E+00 0.  1.
          5    1    4    4  501    0 -0.16261738666E+02  0.28951936939E+01 -0.11180130466E+03  0.11309213242E+03  0.41800000000E+01 0. -1.
         -5    1    4    4    0  501  0.50284698639E+02 -0.87004164264E+02 -0.56375717536E+02  0.11529947721E+03  0.41800000000E+01 0. -1.
</event>
<event>
11    1  0.6455215E-009  0.2028476E+03  0.7561462E-02  0.1052528E+00
         22   -1    0    0    0    0  0.00000000000E+00  0.00000000000E+00  0.23660333721E+04  0.23660333721E+04  0.00000000000E+00 0.  1.
         22   -1    0    0    0    0 -0.00000000000E+00 -0.00000000000E+00 -0.52756341784E+03  0.52756341784E+03  0.00000000000E+00 0.  1.
         24    2    1    2    0    0  0.48807791154E+02  0.68187415848E+02 -0.44555227936E+03  0.46010404373E+03  0.78403910996E+02 0.  0.
         25    2    1    2    0    0 -0.19766106687E+03 -0.13621989106E+02  0.12205900272E+03  0.26420032091E+03  0.12509178023E+03 0.  0.
        -24    2    1    2    0    0  0.14885327572E+03 -0.54565426743E+02  0.21619632309E+04  0.21692924253E+04  0.81301483369E+02 0.  0.
        -13    1    3    3    0    0  0.44127374391E+02  0.52621813628E+02 -0.43573841172E+03  0.44111704103E+03  0.00000000000E+00 0.  1.
         14    1    3    3    0    0  0.46804167624E+01  0.15565602220E+02 -0.98138676406E+01  0.18987002702E+02  0.00000000000E+00 0. -1.
         13    1    5    5    0    0  0.53515693872E+02 -0.67118610364E+01  0.34402648252E+03  0.34822865942E+03  0.00000000000E+00 0. -1.
        -14    1    5    5    0    0  0.95337581846E+02 -0.47853565706E+02  0.18179367484E+04  0.18210637659E+04  0.00000000000E+00 0.  1.
          5    1    4    4  501    0 -0.12777900400E+03  0.28187645940E+01  0.64378203834E+01  0.12804037343E+03  0.41800000000E+01 0.  1.
         -5    1    4    4    0  501 -0.69882062875E+02 -0.16440753700E+02  0.11562118233E+03  0.13615994748E+03  0.41800000000E+01 0.  1.
</event>
<event>
11    1  0.6455215E-009  0.1756694E+03  0.7561462E-02  0.1073201E+00
         22   -1    0    0    0    0  0.00000000000E+00  0.00000000000E+00  0.15206144364E+03  0.15206144364E+03  0.00000000000E+00 0. -1.
         22   -1    0    0    0    0 -0.00000000000E+00 -0.00000000000E+00 -0.99713606719E+03  0.99713606719E+03  0.00000000000E+00 0. -1.
         24    2    1    2    0    0  0.17518446266E+02 -0.63956175956E+02 -0.39279167740E+03  0.40665795719E+03  0.81780828491E+02 0.  0.
         25    2    1    2    0    0 -0.53976969226E+02  0.17688553746E+03 -0.53280440721E+03  0.57769238930E+03  0.12508378688E+03 0.  0.
        -24    2    1    2    0    0  0.36458522961E+02 -0.11292936150E+03  0.80521461049E+02  0.16484716435E+03  0.81293402671E+02 0.  0.
        -11    1    3    3    0    0 -0.27814797534E+02 -0.15045143400E+02 -0.66697833174E+02  0.73814769876E+02  0.00000000000E+00 0.  1.
         12    1    3    3    0    0  0.45333243800E+02 -0.48911032556E+02 -0.32609384422E+03  0.33284318731E+03  0.00000000000E+00 0. -1.
         13    1    5    5    0    0  0.10211199631E+02 -0.10915245574E+03  0.83988819797E+02  0.13810376187E+03  0.00000000000E+00 0. -1.
        -14    1    5    5    0    0  0.26247323330E+02 -0.37769057565E+01 -0.34673587477E+01  0.26743402471E+02  0.00000000000E+00 0.  1.
          5    1    4    4  501    0 -0.10987620749E+02  0.17882051834E+03 -0.40837139743E+03  0.44596207936E+03  0.41800000000E+01 0.  1.
         -5    1    4    4    0  501 -0.42989348477E+02 -0.19349808787E+01 -0.12443300978E+03  0.13173030993E+03  0.41800000000E+01 0.  1.
</event>
<event>
11    1  0.6455215E-009  0.1472447E+03  0.7561462E-02  0.1099728E+00
         22   -1    0    0    0    0  0.00000000000E+00  0.00000000000E+00  0.12969469023E+04  0.12969469023E+04  0.00000000000E+00 0.  1.
         22   -1    0    0    0    0 -0.00000000000E+00 -0.00000000000E+00 -0.94669273139E+03  0.94669273139E+03  0.00000000000E+00 0.  1.
         24    2    1    2    0    0  0.62092467897E+02  0.46473942690E+02 -0.92492591378E+03  0.93194186301E+03  0.83740003184E+02 0.  0.
         25    2    1    2    0    0 -0.41175958836E+02 -0.99138763777E+02  0.42416175468E+03  0.45506532363E+03  0.12508917048E+03 0.  0.
        -24    2    1    2    0    0 -0.20916509061E+02  0.52664821088E+02  0.85101833001E+03  0.85663244703E+03  0.79849029857E+02 0.  0.
        -11    1    3    3    0    0  0.66373195809E+02  0.58559760541E+02 -0.89524446653E+03  0.89960952726E+03  0.00000000000E+00 0.  1.
         12    1    3    3    0    0 -0.42807279117E+01 -0.12085817851E+02 -0.29681447249E+02  0.32332335755E+02  0.00000000000E+00 0. -1.
         13    1    5    5    0    0 -0.22921112755E+02 -0.16596260040E+02  0.21632921063E+03  0.21817227282E+03  0.00000000000E+00 0. -1.
        -14    1    5    5    0    0  0.20046036937E+01  0.69261081128E+02  0.63468911938E+03  0.63846017421E+03  0.00000000000E+00 0.  1.
          5    1    4    4  501    0  0.19769486468E+02  0.13753235176E+02  0.21894704272E+02  0.32815157293E+02  0.41800000000E+01 0. -1.
         -5    1    4    4    0  501 -0.60945445304E+02 -0.11289199895E+03  0.40226705041E+03  0.42225016634E+03  0.41800000000E+01 0. -1.
</event>
<event>
11    1  0.6455215E-009  0.1314871E+03  0.7561462E-02  0.1117455E+00
         22   -1    0    0    0    0  0.00000000000E+00  0.00000000000E+00  0.40631976869E+03  0.40631976869E+03  0.00000000000E+00 0. -1.
         22   -1    0    0    0    0 -0.00000000000E+00 -0.00000000000E+00 -0.90137329985E+03  0.90137329985E+03  0.00000000000E+00 0.  1.
        -24    2    1    2    0    0  0.57458508224E+01 -0.23451272450E+02 -0.48206620906E+03  0.48944434544E+03  0.81147768800E+02 0.  0.
         25    2    1    2    0    0  0.15485129727E+02  0.57703121555E+02 -0.39872555289E+03  0.42213662117E+03  0.12509125039E+03 0.  0.
         24    2    1    2    0    0 -0.21230980550E+02 -0.34251849105E+02  0.38573823079E+03  0.39611210193E+03  0.80541113091E+02 0.  0.
        -13    1    5    5    0    0 -0.16326013523E+02 -0.38849892833E+02  0.81059088795E+02  0.91358791405E+02  0.00000000000E+00 0.  1.
         14    1    5    5    0    0 -0.49049670270E+01  0.45980437272E+01  0.30467914199E+03  0.30475331052E+03  0.00000000000E+00 0. -1.
         13    1    3    3    0    0 -0.31007693232E+02  0.87352082641E+01 -0.26484251194E+03  0.26679455961E+03  0.00000000000E+00 0. -1.
        -14    1    3    3    0    0  0.36753544054E+02 -0.32186480714E+02 -0.21722369712E+03  0.22264978583E+03  0.00000000000E+00 0.  1.
          5    1    4    4  501    0  0.56630601352E+02  0.17482858360E+01 -0.96290393116E+02  0.11180068747E+03  0.41800000000E+01 0. -1.
         -5    1    4    4    0  501 -0.41145471625E+02  0.55954835719E+02 -0.30243515978E+03  0.31033593370E+03  0.41800000000E+01 0. -1.
</event>
<event>
11    1  0.6455215E-009  0.1374737E+03  0.7561462E-02  0.1110413E+00
         22   -1    0    0    0    0  0.00000000000E+00  0.00000000000E+00  0.32658965497E+03  0.32658965497E+03  0.00000000000E+00 0. -1.
         22   -1    0    0    0    0 -0.00000000000E+00 -0.00000000000E+00 -0.12298736495E+04  0.12298736495E+04  0.00000000000E+00 0. -1.
         24    2    1    2    0    0  0.50005683017E+02  0.32041544901E+02 -0.10913294540E+04  0.10957645134E+04  0.78566294949E+02 0.  0.
         25    2    1    2    0    0  0.37246461066E+01 -0.43069428972E+02 -0.95522618838E+02  0.16322005568E+03  0.12508943667E+03 0.  0.
        -24    2    1    2    0    0 -0.53730329124E+02  0.11027884071E+02  0.28356807837E+03  0.29747873533E+03  0.71233281615E+02 0.  0.
        -11    1    3    3    0    0  0.45367291943E+02  0.53940009054E+02 -0.63771725076E+03  0.64160034887E+03  0.00000000000E+00 0.  1.
         12    1    3    3    0    0  0.46383910741E+01 -0.21898464153E+02 -0.45361220328E+03  0.45416416456E+03  0.00000000000E+00 0. -1.
         13    1    5    5    0    0 -0.28611544913E+02  0.26799006195E+02  0.24839633684E+03  0.25147076847E+03  0.00000000000E+00 0. -1.
        -14    1    5    5    0    0 -0.25118784211E+02 -0.15771122123E+02  0.35171741529E+02  0.46007966869E+02  0.00000000000E+00 0.  1.
          5    1    4    4  501    0 -0.48956119554E+02 -0.40475461958E+02 -0.12659284071E+02  0.64905273559E+02  0.41800000000E+01 0. -1.
         -5    1    4    4    0  501  0.52680765661E+02 -0.25939670140E+01 -0.82863334767E+02  0.98314782125E+02  0.41800000000E+01 0. -1.
</event>
<event>
11    1  0.6455215E-009  0.1639759E+03  0.7561462E-02  0.1083396E+00
         22   -1    0    0    0    0  0.00000000000E+00  0.00000000000E+00  0.20259550181E+04  0.20259550181E+04  0.00000000000E+00 0. -1.
         22   -1    0    0    0    0 -0.00000000000E+00 -0.00000000000E+00 -0.11240302165E+03  0.11240302165E+03  0.00000000000E+00 0.  1.
         24    2    1    2    0    0  0.99008541273E+02  0.37151334569E+02 -0.56360342075E+02  0.14457329667E+03  0.80882860022E+02 0.  0.
         25    2    1    2    0    0 -0.85227960960E+02 -0.86123515775E+02  0.76002116978E+03  0.77971886880E+03  0.12509304753E+03 0.  0.
        -24    2    1    2    0    0 -0.13780580312E+02  0.48972181206E+02  0.12098911687E+04  0.12140658743E+04  0.86782071744E+02 0.  0.
        -11    1    3    3    0    0  0.88579395178E+02  0.37420082778E+02 -0.95701492557E+01  0.96634153392E+02  0.00000000000E+00 0.  1.
         12    1    3    3    0    0  0.10429146095E+02 -0.26874820889E+00 -0.46790192820E+02  0.47939143275E+02  0.00000000000E+00 0. -1.
         13    1    5    5    0    0  0.13857051193E+01  0.49138086634E+02  0.11749124695E+04  0.11759403823E+04  0.00000000000E+00 0. -1.
        -14    1    5    5    0    0 -0.15166285432E+02 -0.16590542812E+00  0.34978699242E+02  0.38125491984E+02  0.00000000000E+00 0.  1.
          5    1    4    4  501    0 -0.91159252000E+02 -0.33147861412E+02  0.65199020885E+03  0.65917941016E+03  0.41800000000E+01 0.  1.
         -5    1    4    4    0  501  0.59312910397E+01 -0.52975654363E+02  0.10803096093E+03  0.12053945864E+03  0.41800000000E+01 0.  1.
</event>
<event>
11    1  0.6455215E-009  0.1408868E+03  0.7561462E-02  0.1106572E+00
         22   -1    0    0    0    0  0.00000000000E+00  0.00000000000E+00  0.32023067096E+03  0.32023067096E+03  0.00000000000E+00 0. -1.
         22   -1    0    0    0    0 -0.00000000000E+00 -0.00000000000E+00 -0.12070334502E+04  0.12070334502E+04  0.00000000000E+00 0. -1.
        -24    2    1    2    0    0 -0.52710696964E+02 -0.41314416832E+02 -0.11401169255E+04  0.11450888068E+04  0.82924501804E+02 0.  0.
         25    2    1    2    0    0  0.65055495430E+01 -0.81863896756E+01  0.21459359692E+02  0.12735207003E+03  0.12509478995E+03 0.  0.
         24    2    1    2    0    0  0.46205147421E+02  0.49500806508E+02  0.23185478652E+03  0.25482324439E+03  0.81197280456E+02 0.  0.
        -11    1    5    5    0    0 -0.20593724945E+02  0.14135779671E+02  0.28610922864E+02  0.37980345986E+02  0.00000000000E+00 0.  1.
         12    1    5    5    0    0  0.66798872366E+02  0.35365026837E+02  0.20324386366E+03  0.21684289840E+03  0.00000000000E+00 0. -1.
         11    1    3    3    0    0 -0.67911875879E+02 -0.74490174032E+01 -0.65484224617E+03  0.65839644449E+03  0.00000000000E+00 0. -1.
        -12    1    3    3    0    0  0.15201178916E+02 -0.33865399429E+02 -0.48527467932E+03  0.48669236229E+03  0.00000000000E+00 0.  1.
          5    1    4    4  501    0 -0.22097685305E+02  0.44555202177E+02 -0.20565621410E+02  0.53980467957E+02  0.41800000000E+01 0. -1.
         -5    1    4    4    0  501  0.28603234848E+02 -0.52741591853E+02  0.42024981101E+02  0.73371602078E+02  0.41800000000E+01 0. -1.
</event>
<event>
11    1  0.6455215E-009  0.1442418E+03  0.7561462E-02  0.1102912E+00
         22   -1    0    0    0    0  0.00000000000E+00  0.00000000000E+00  0.32035635380E+03  0.32035635380E+03  0.00000000000E+00 0. -1.
         22   -1    0    0    0    0 -0.00000000000E+00 -0.00000000000E+00 -0.27300196063E+03  0.27300196063E+03  0.00000000000E+00 0. -1.
         24    2    1    2    0    0 -0.58943701216E+02 -0.36896867019E+02 -0.76898514025E+02  0.13516562879E+03  0.86721548860E+02 0.  0.
         25    2    1    2    0    0  0.72587685980E+02  0.21869805428E+02 -0.12678298886E+03  0.19356896603E+03  0.12509099808E+03 0.  0.
        -24    2    1    2    0    0 -0.13643984764E+02  0.15027061591E+02  0.25103589605E+03  0.26462371962E+03  0.81207887415E+02 0.  0.
        -13    1    3    3    0    0  0.10299778068E+01  0.23963995820E+02 -0.27411764893E+02  0.36424425932E+02  0.00000000000E+00 0.  1.
         14    1    3    3    0    0 -0.59973679023E+02 -0.60860862839E+02 -0.49486749133E+02  0.98741202853E+02  0.00000000000E+00 0. -1.
         13    1    5    5    0    0 -0.22683841850E+00  0.36907735876E+02  0.22520424212E+03  0.22820863939E+03  0.00000000000E+00 0. -1.
        -14    1    5    5    0    0 -0.13417146345E+02 -0.21880674285E+02  0.25831653927E+02  0.36415080225E+02  0.00000000000E+00 0.  1.
          5    1    4    4  501    0  0.77037814334E+02  0.51080127393E+02 -0.13402383908E+03  0.16286149359E+03  0.41800000000E+01 0.  1.
         -5    1    4    4    0  501 -0.44501283541E+01 -0.29210321965E+02  0.72408502218E+01  0.30707472439E+02  0.41800000000E+01 0.  1.
</event>
<event>
11    1  0.6455215E-009  0.2722919E+03  0.7561462E-02  0.1012651E+00
         22   -1    0    0    0    0  0.00000000000E+00  0.00000000000E+00  0.49677894920E+03  0.49677894920E+03  0.00000000000E+00 0.  1.
         22   -1    0    0    0    0 -0.00000000000E+00 -0.00000000000E+00 -0.50346596997E+03  0.50346596997E+03  0.00000000000E+00 0.  1.
        -24    2    1    2    0    0  0.12486466923E+03 -0.20956622635E+03 -0.36807528980E+03  0.44869581022E+03  0.79619861195E+02 0.  0.
         25    2    1    2    0    0 -0.16414185377E+03  0.16996297626E+03  0.12458413045E+03  0.29495517228E+03  0.12508951450E+03 0.  0.
         24    2    1    2    0    0  0.39277184542E+02  0.39603250093E+02  0.23680413858E+03  0.25659393668E+03  0.81566743513E+02 0.  0.
        -13    1    5    5    0    0  0.22005563610E+02  0.55581136584E+02  0.21920918913E+03  0.22721394361E+03  0.00000000000E+00 0.  1.
         14    1    5    5    0    0  0.17271620932E+02 -0.15977886491E+02  0.17594949455E+02  0.29379993067E+02  0.00000000000E+00 0. -1.
         11    1    3    3    0    0  0.57270548261E+01 -0.73854088264E+01  0.28488547353E+01  0.97703323289E+01  0.00000000000E+00 0. -1.
        -12    1    3    3    0    0  0.11913761440E+03 -0.20218081752E+03 -0.37092414453E+03  0.43892547789E+03  0.00000000000E+00 0.  1.
          5    1    4    4  501    0 -0.97276152869E+02  0.15631841147E+03  0.13141673641E+03  0.22624306993E+03  0.41800000000E+01 0.  1.
         -5    1    4    4    0  501 -0.66865700902E+02  0.13644564784E+02 -0.68326059618E+01  0.68712102351E+02  0.41800000000E+01 0.  1.
</event>
<event>
11    1  0.6455215E-009  0.1917511E+03  0.7561462E-02  0.1060515E+00
         22   -1    0    0    0    0  0.00000000000E+00  0.00000000000E+00  0.23468799925E+04  0.23468799925E+04  0.00000000000E+00 0.  1.
         22   -1    0    0    0    0 -0.00000000000E+00 -0.00000000000E+00 -0.82390966604E+03  0.82390966604E+03  0.00000000000E+00 0. -1.
        -24    2    1    2    0    0 -0.30639268882E+02 -0.46790680645E+02 -0.77450774728E+03  0.78023772641E+03  0.76029773872E+02 0.  0.
         25    2    1    2    0    0  0.60631654886E+02 -0.98240385843E+02  0.12404491877E+03  0.21060660494E+03  0.12506250112E+03 0.  0.
         24    2    1    2    0    0 -0.29992386004E+02  0.14503106649E+03  0.21734331550E+04  0.21799453272E+04  0.80102415146E+02 0.  0.
        -11    1    5    5    0    0 -0.44689984286E+02  0.14687270348E+03  0.19953208028E+04  0.20012181020E+04  0.00000000000E+00 0.  1.
         12    1    5    5    0    0  0.14697598282E+02 -0.18416369973E+01  0.17811235221E+03  0.17872722521E+03  0.00000000000E+00 0. -1.
         11    1    3    3    0    0 -0.51309114894E+02 -0.17841816293E+02 -0.57707992505E+03  0.57963108576E+03  0.00000000000E+00 0. -1.
        -12    1    3    3    0    0  0.20669846012E+02 -0.28948864352E+02 -0.19742782223E+03  0.20060664065E+03  0.00000000000E+00 0.  1.
          5    1    4    4  501    0  0.14341869514E+02 -0.91908918430E+02  0.13349027662E+03  0.16275768756E+03  0.41800000000E+01 0.  1.
         -5    1    4    4    0  501  0.46289785373E+02 -0.63314674125E+01 -0.94453578492E+01  0.47848917379E+02  0.41800000000E+01 0.  1.
</event>
<event>
11    1  0.6455215E-009  0.1586947E+03  0.7561462E-02  0.1088311E+00
         22   -1    0    0    0    0  0.00000000000E+00  0.00000000000E+00  0.57784176645E+03  0.57784176645E+03  0.00000000000E+00 0. -1.
         22   -1    0    0    0    0 -0.00000000000E+00 -0.00000000000E+00 -0.15205004510E+03  0.15205004510E+03  0.00000000000E+00 0.  1.
        -24    2    1    2    0    0 -0.13393774254E+01 -0.29045577708E+02 -0.94260076421E+02  0.12864773597E+03  0.82582313156E+02 0.  0.
         25    2    1    2    0    0  0.29179294608E+01 -0.77074479438E+02  0.15909281132E+03  0.21657842219E+03  0.12508677248E+03 0.  0.
         24    2    1    2    0    0 -0.15785520354E+01  0.10612005715E+03  0.36095898645E+03  0.38466565340E+03  0.80076942070E+02 0.  0.
        -13    1    5    5    0    0  0.38017928837E+02  0.37896449493E+02  0.13190188004E+03  0.14240649478E+03  0.00000000000E+00 0.  1.
         14    1    5    5    0    0 -0.39596480872E+02  0.68223607653E+02  0.22905710641E+03  0.24225915862E+03  0.00000000000E+00 0. -1.
         11    1    3    3    0    0 -0.73166590958E+01 -0.11618700255E+02  0.13540601554E+02  0.19284075979E+02  0.00000000000E+00 0. -1.
        -12    1    3    3    0    0  0.59772816703E+01 -0.17426877453E+02 -0.10780067798E+03  0.10936365999E+03  0.00000000000E+00 0.  1.
          5    1    4    4  501    0  0.39721049123E+02  0.10240481724E+02  0.14606851482E+02  0.43743133399E+02  0.41800000000E+01 0.  1.
         -5    1    4    4    0  501 -0.36803119662E+02 -0.87314961162E+02  0.14448595984E+03  0.17283528879E+03  0.41800000000E+01 0.  1.
</event>
<event>
11    1  0.6455215E-009  0.1401227E+03  0.7561462E-02  0.1107421E+00
         22   -1    0    0    0    0  0.00000000000E+00  0.00000000000E+00  0.10777838791E+03  0.10777838791E+03  0.00000000000E+00 0.  1.
         22   -1    0    0    0    0 -0.00000000000E+00 -0.00000000000E+00 -0.11317583323E+04  0.11317583323E+04  0.00000000000E+00 0. -1.
        -24    2    1    2    0    0  0.79033090184E+01 -0.39886479555E+01 -0.89590191062E+03  0.89888975329E+03  0.72692389592E+02 0.  0.
         25    2    1    2    0    0  0.25784606045E+02 -0.50692439858E+02 -0.17788201645E+03  0.22476888291E+03  0.12507785408E+03 0.  0.
         24    2    1    2    0    0 -0.33687915063E+02  0.54681087814E+02  0.49803982643E+02  0.11587808406E+03  0.82597800766E+02 0.  0.
        -13    1    5    5    0    0 -0.30142797468E+02  0.38018657571E+02  0.72661290902E+02  0.87370874771E+02  0.00000000000E+00 0.  1.
         14    1    5    5    0    0 -0.35451175954E+01  0.16662430243E+02 -0.22857308259E+02  0.28507209285E+02  0.00000000000E+00 0. -1.
         11    1    3    3    0    0  0.15991668064E+02 -0.28338281101E+02 -0.75299816321E+03  0.75370088591E+03  0.00000000000E+00 0. -1.
        -12    1    3    3    0    0 -0.80883590454E+01  0.24349633145E+02 -0.14290374742E+03  0.14518886738E+03  0.00000000000E+00 0.  1.
          5    1    4    4  501    0  0.65340387124E+02 -0.37104740351E+02 -0.50497863869E+02  0.90629104605E+02  0.41800000000E+01 0.  1.
         -5    1    4    4    0  501 -0.39555781080E+02 -0.13587699507E+02 -0.12738415258E+03  0.13413977831E+03  0.41800000000E+01 0.  1.
</event>
<event>
11    1  0.6455215E-009  0.1316746E+03  0.7561462E-02  0.1117228E+00
         22   -1    0    0    0    0  0.00000000000E+00  0.00000000000E+00  0.28998748488E+04  0.28998748488E+04  0.00000000000E+00 0.  1.
         22   -1    0    0    0    0 -0.00000000000E+00 -0.00000000000E+00 -0.20205011294E+04  0.20205011294E+04  0.00000000000E+00 0.  1.
         24    2    1    2    0    0 -0.40237488599E+02  0.87023282874E+01 -0.20106436603E+04  0.20127238841E+04  0.81698951100E+02 0.  0.
         25    2    1    2    0    0  0.11319702373E+02 -0.20896367929E+02  0.49216099675E+03  0.50836505920E+03  0.12509113813E+03 0.  0.
        -24    2    1    2    0    0  0.28917786225E+02  0.12194039641E+02  0.23978563830E+04  0.23992870350E+04  0.76668832367E+02 0.  0.
        -13    1    3    3    0    0 -0.39903893234E+02  0.10583567881E+02 -0.20103699485E+04  0.20107937891E+04  0.00000000000E+00 0.  1.
         14    1    3    3    0    0 -0.33359536476E+00 -0.18812395932E+01 -0.27371184661E+00  0.19300949328E+01  0.00000000000E+00 0. -1.
         11    1    5    5    0    0  0.18359925914E+02  0.40296150908E+01  0.12626750511E+03  0.12765895004E+03  0.00000000000E+00 0. -1.
        -12    1    5    5    0    0  0.10557860311E+02  0.81644245506E+01  0.22715888778E+04  0.22716280849E+04  0.00000000000E+00 0.  1.
          5    1    4    4  501    0  0.64423644510E+02 -0.18419663122E+02  0.18946640769E+03  0.20100915900E+03  0.41800000000E+01 0. -1.
         -5    1    4    4    0  501 -0.53103942137E+02 -0.24767048071E+01  0.30269458907E+03  0.30735590020E+03  0.41800000000E+01 0. -1.
</event>
<event>
11    1  0.6455215E-009  0.1286539E+03  0.7561462E-02  0.1120934E+00
         22   -1    0    0    0    0  0.00000000000E+00  0.00000000000E+00  0.48603634805E+03  0.48603634805E+03  0.00000000000E+00 0.  1.
         22   -1    0    0    0    0 -0.00000000000E+00 -0.00000000000E+00 -0.82421660181E+03  0.82421660181E+03  0.00000000000E+00 0.  1.
         24    2    1    2    0    0 -0.27355143305E+02  0.10590643028E+02 -0.73978267318E+03  0.74482304232E+03  0.81378714956E+02 0.  0.
         25    2    1    2    0    0  0.47023594594E+02 -0.86698831815E+01 -0.20125285087E+02  0.13542052600E+03  0.12508919393E+03 0.  0.
        -24    2    1    2    0    0 -0.19668451288E+02 -0.19207598461E+01  0.42172770451E+03  0.43000938154E+03  0.81628880724E+02 0.  0.
        -13    1    3    3    0    0 -0.26129658713E+02  0.18075791638E+02 -0.73535377309E+03  0.73603985280E+03  0.00000000000E+00 0.  1.
         14    1    3    3    0    0 -0.12254845920E+01 -0.74851486107E+01 -0.44289000931E+01  0.87831895256E+01  0.00000000000E+00 0. -1.
         13    1    5    5    0    0  0.35262522755E+01 -0.28998994007E+02  0.62203221587E+02  0.68721298622E+02  0.00000000000E+00 0. -1.
        -14    1    5    5    0    0 -0.23194703564E+02  0.27078234161E+02  0.35952448292E+03  0.36128808292E+03  0.00000000000E+00 0.  1.
          5    1    4    4  501    0  0.71563337822E+02 -0.43067011880E+02 -0.34683177102E+02  0.90534380245E+02  0.41800000000E+01 0. -1.
         -5    1    4    4    0  501 -0.24539743229E+02  0.34397128699E+02  0.14557892014E+02  0.44886145750E+02  0.41800000000E+01 0. -1.
</event>
<event>
11    1  0.6455215E-009  0.1558057E+03  0.7561462E-02  0.1091090E+00
         22   -1    0    0    0    0  0.00000000000E+00  0.00000000000E+00  0.12650948156E+04  0.12650948156E+04  0.00000000000E+00 0.  1.
         22   -1    0    0    0    0 -0.00000000000E+00 -0.00000000000E+00 -0.32348506031E+02  0.32348506031E+02  0.00000000000E+00 0. -1.
         24    2    1    2    0    0  0.77382288184E+02 -0.27364718998E+02  0.36231136573E+03  0.38010174026E+03  0.80442282684E+02 0.  0.
         25    2    1    2    0    0 -0.59632982814E+02  0.10411954451E+03  0.44564788010E+03  0.47818167891E+03  0.12513477859E+03 0.  0.
        -24    2    1    2    0    0 -0.17749305369E+02 -0.76754825508E+02  0.42478706376E+03  0.43915990249E+03  0.78810083966E+02 0.  0.
        -11    1    3    3    0    0  0.24353797428E+02 -0.28798390692E+02  0.27760663140E+03  0.28015691416E+03  0.00000000000E+00 0.  1.
         12    1    3    3    0    0  0.53028490756E+02  0.14336716934E+01  0.84704734329E+02  0.99944826099E+02  0.00000000000E+00 0. -1.
         13    1    5    5    0    0 -0.91338081751E+01 -0.20778845074E+02  0.19467549304E+02  0.29902714431E+02  0.00000000000E+00 0. -1.
        -14    1    5    5    0    0 -0.86154971942E+01 -0.55975980434E+02  0.40531951446E+03  0.40925718806E+03  0.00000000000E+00 0.  1.
          5    1    4    4  501    0  0.31651089696E+02  0.62633060423E+02  0.14333384663E+03  0.15964571941E+03  0.41800000000E+01 0. -1.
         -5    1    4    4    0  501 -0.91284072510E+02  0.41486484084E+02  0.30231403348E+03  0.31853595950E+03  0.41800000000E+01 0. -1.
</event>
<event>
11    1  0.6455215E-009  0.1577572E+03  0.7561462E-02  0.1089206E+00
         22   -1    0    0    0    0  0.00000000000E+00  0.00000000000E+00  0.48653688413E+03  0.48653688413E+03  0.00000000000E+00 0.  1.
         22   -1    0    0    0    0 -0.00000000000E+00 -0.00000000000E+00 -0.34592621370E+03  0.34592621370E+03  0.00000000000E+00 0. -1.
        -24    2    1    2    0    0 -0.80055970970E+02 -0.33520616806E+02 -0.26319919038E+03  0.28736240419E+03  0.75965434805E+02 0.  0.
         25    2    1    2    0    0  0.11104226868E+03  0.11311694809E+03  0.11465634665E+03  0.23220845991E+03  0.12509541017E+03 0.  0.
         24    2    1    2    0    0 -0.30986297715E+02 -0.79596331281E+02  0.28915351416E+03  0.31289223373E+03  0.83642504620E+02 0.  0.
        -11    1    5    5    0    0 -0.93732960560E+01 -0.61815920382E+02  0.27404689929E+03  0.28108854424E+03  0.00000000000E+00 0.  1.
         12    1    5    5    0    0 -0.21613001659E+02 -0.17780410899E+02  0.15106614867E+02  0.31803689490E+02  0.00000000000E+00 0. -1.
         11    1    3    3    0    0 -0.62685752276E+02  0.13312726422E+02 -0.16893624311E+03  0.18068255716E+03  0.00000000000E+00 0. -1.
        -12    1    3    3    0    0 -0.17370218694E+02 -0.46833343228E+02 -0.94262947267E+02  0.10667984703E+03  0.00000000000E+00 0.  1.
          5    1    4    4  501    0  0.27697690310E+02  0.11499059981E+03  0.70894677703E+02  0.13796205210E+03  0.41800000000E+01 0.  1.
         -5    1    4    4    0  501  0.83344578375E+02 -0.18736517254E+01  0.43761668947E+02  0.94246407806E+02  0.41800000000E+01 0.  1.
</event>
<event>
11    1  0.6455215E-009  0.1528716E+03  0.7561462E-02  0.1093980E+00
         22   -1    0    0    0    0  0.00000000000E+00  0.00000000000E+00  0.14908836430E+04  0.14908836430E+04  0.00000000000E+00 0.  1.
         22   -1    0    0    0    0 -0.00000000000E+00 -0.00000000000E+00 -0.67152822452E+02  0.67152822452E+02  0.00000000000E+00 0.  1.
         24    2    1    2    0    0  0.14937357251E+01 -0.71555232569E+02  0.21430461026E+02  0.10805252071E+03  0.78062154833E+02 0.  0.
         25    2    1    2    0    0  0.65304059459E+02  0.44291783608E+01  0.22156066097E+03  0.26271889873E+03  0.12509138841E+03 0.  0.
        -24    2    1    2    0    0 -0.66797795184E+02  0.67126054208E+02  0.11807396986E+04  0.11872650460E+04  0.80524537671E+02 0.  0.
        -13    1    3    3    0    0 -0.67912843999E+01 -0.24978410479E+02 -0.29022796742E+02  0.38889140702E+02  0.00000000000E+00 0.  1.
         14    1    3    3    0    0  0.82850201250E+01 -0.46576822090E+02  0.50453257768E+02  0.69163380006E+02  0.00000000000E+00 0. -1.
         13    1    5    5    0    0  0.93841803375E+01 -0.11223584812E+02  0.17293809747E+03  0.17355580443E+03  0.00000000000E+00 0. -1.
        -14    1    5    5    0    0 -0.76181975522E+02  0.78349639021E+02  0.10078016011E+04  0.10137092416E+04  0.00000000000E+00 0.  1.
          5    1    4    4  501    0  0.22930892879E+02  0.53857156630E+02  0.16913238465E+03  0.17902417464E+03  0.41800000000E+01 0. -1.
         -5    1    4    4    0  501  0.42373166580E+02 -0.49427978269E+02  0.52428276326E+02  0.83694724089E+02  0.41800000000E+01 0. -1.
</event>
<event>
11    1  0.6455215E-009  0.1585997E+03  0.7561462E-02  0.1088402E+00
         22   -1    0    0    0    0  0.00000000000E+00  0.00000000000E+00  0.21358731721E+03  0.21358731721E+03  0.00000000000E+00 0. -1.
         22   -1    0    0    0    0 -0.00000000000E+00 -0.00000000000E+00 -0.66297736910E+03  0.66297736910E+03  0.00000000000E+00 0. -1.
         24    2    1    2    0    0 -0.18629565971E+02 -0.92119471978E+01 -0.33168610579E+03  0.34204438268E+03  0.80912089653E+02 0.  0.
         25    2    1    2    0    0 -0.60231880704E+02 -0.50394512555E+02 -0.28655705877E+03  0.32238212411E+03  0.12509116541E+03 0.  0.
        -24    2    1    2    0    0  0.78861446675E+02  0.59606459753E+02  0.16885311267E+03  0.21213817952E+03  0.81970578467E+02 0.  0.
        -13    1    3    3    0    0  0.13019829350E+02  0.52696812588E+01 -0.73624148207E+01  0.15858456699E+02  0.00000000000E+00 0.  1.
         14    1    3    3    0    0 -0.31649395321E+02 -0.14481628457E+02 -0.32432369097E+03  0.32618592598E+03  0.00000000000E+00 0. -1.
         11    1    5    5    0    0  0.23317831550E+02  0.23528397310E+02  0.13251445770E+03  0.13659205046E+03  0.00000000000E+00 0. -1.
        -12    1    5    5    0    0  0.55543615126E+02  0.36078062443E+02  0.36338654967E+02  0.75546129058E+02  0.00000000000E+00 0.  1.
          5    1    4    4  501    0  0.25496910469E+02  0.70129631444E+01 -0.12557010132E+02  0.29570678027E+02  0.41800000000E+01 0. -1.
         -5    1    4    4    0  501 -0.85728791173E+02 -0.57407475699E+02 -0.27400004864E+03  0.29281144608E+03  0.41800000000E+01 0. -1.
</event>
<event>
11    1  0.6455215E-009  0.2554518E+03  0.7561462E-02  0.1021034E+00
         22   -1    0    0    0    0  0.00000000000E+00  0.00000000000E+00  0.85332171207E+02  0.85332171207E+02  0.00000000000E+00 0. -1.
         22   -1    0    0    0    0 -0.00000000000E+00 -0.00000000000E+00 -0.26321738895E+04  0.26321738895E+04  0.00000000000E+00 0. -1.
        -24    2    1    2    0    0 -0.46638054363E+02  0.55282184778E+01 -0.16224404691E+04  0.16250833641E+04  0.79857344057E+02 0.  0.
         25    2    1    2    0    0 -0.18031888934E+03 -0.56164565227E+02 -0.76828112370E+03  0.80098211554E+03  0.12508838532E+03 0.  0.
         24    2    1    2    0    0  0.22695694370E+03  0.50636346749E+02 -0.15612012555E+03  0.29144058106E+03  0.80564413861E+02 0.  0.
        -11    1    5    5    0    0  0.83095063213E+01  0.33393299329E+01  0.95331942089E+01  0.13079786372E+02  0.00000000000E+00 0.  1.
         12    1    5    5    0    0  0.21864743738E+03  0.47297016816E+02 -0.16565331976E+03  0.27836079469E+03  0.00000000000E+00 0. -1.
         11    1    3    3    0    0 -0.87751418180E+01  0.39490780029E+02 -0.58523097697E+03  0.58662749785E+03  0.00000000000E+00 0. -1.
        -12    1    3    3    0    0 -0.37862912545E+02 -0.33962561551E+02 -0.10372094921E+04  0.10384558663E+04  0.00000000000E+00 0.  1.
          5    1    4    4  501    0 -0.40419274854E+02  0.37458896944E+02 -0.24986879049E+03  0.25590774041E+03  0.41800000000E+01 0.  1.
         -5    1    4    4    0  501 -0.13989961448E+03 -0.93623462171E+02 -0.51841233321E+03  0.54507437513E+03  0.41800000000E+01 0.  1.
</event>
<event>
11    1  0.6455215E-009  0.1880196E+03  0.7561462E-02  0.1063334E+00
         22   -1    0    0    0    0  0.00000000000E+00  0.00000000000E+00  0.12442591078E+03  0.12442591078E+03  0.00000000000E+00 0.  1.
         22   -1    0    0    0    0 -0.00000000000E+00 -0.00000000000E+00 -0.19025409120E+04  0.19025409120E+04  0.00000000000E+00 0. -1.
        -24    2    1    2    0    0 -0.10810845676E+03 -0.83772306614E+02 -0.16179099223E+04  0.16258135431E+04  0.83258168754E+02 0.  0.
         25    2    1    2    0    0  0.13050878599E+03  0.14707036510E+03 -0.17452071103E+03  0.29114807676E+03  0.12508992171E+03 0.  0.
         24    2    1    2    0    0 -0.22400329230E+02 -0.63298058488E+02  0.14315632107E+02  0.11000520286E+03  0.85952244741E+02 0.  0.
        -11    1    5    5    0    0 -0.41364476758E+02 -0.66152652522E+02  0.31610438186E+02  0.84180836154E+02  0.00000000000E+00 0.  1.
         12    1    5    5    0    0  0.18964147528E+02  0.28545940345E+01 -0.17294806079E+02  0.25824366708E+02  0.00000000000E+00 0. -1.
         11    1    3    3    0    0 -0.10109613400E+03 -0.72450204481E+02 -0.15903334188E+04  0.15951895948E+04  0.00000000000E+00 0. -1.
        -12    1    3    3    0    0 -0.70123227588E+01 -0.11322102133E+02 -0.27576503500E+02  0.30623948348E+02  0.00000000000E+00 0.  1.
          5    1    4    4  501    0 -0.37100366022E+01  0.62848184747E+01 -0.69592879161E+02  0.70099247819E+02  0.41800000000E+01 0.  1.
         -5    1    4    4    0  501  0.13421882259E+03  0.14078554663E+03 -0.10492783187E+03  0.22104882894E+03  0.41800000000E+01 0.  1.
</event>
<event>
11    1  0.6455215E-009  0.2720468E+03  0.7561462E-02  0.1012769E+00
         22   -1    0    0    0    0  0.00000000000E+00  0.00000000000E+00  0.75319635250E+03  0.75319635250E+03  0.00000000000E+00 0. -1.
         22   -1    0    0    0    0 -0.00000000000E+00 -0.00000000000E+00 -0.76889357853E+03  0.76889357853E+03  0.00000000000E+00 0. -1.
         24    2    1    2    0    0  0.18852503226E+02  0.87817798831E+02 -0.49220437674E+03  0.50671097592E+03  0.80146627945E+02 0.  0.
         25    2    1    2    0    0 -0.25611617727E+03 -0.11518618688E+03 -0.14843876213E+03  0.34138727414E+03  0.12509137035E+03 0.  0.
        -24    2    1    2    0    0  0.23726367405E+03  0.27368388047E+02  0.62494591284E+03  0.67399168096E+03  0.81635239574E+02 0.  0.
        -11    1    3    3    0    0  0.18668933685E+02 -0.43102632005E+00 -0.24777425506E+02  0.31026370773E+02  0.00000000000E+00 0.  1.
         12    1    3    3    0    0  0.18356954068E+00  0.88248825151E+02 -0.46742695123E+03  0.47568460515E+03  0.00000000000E+00 0. -1.
         11    1    5    5    0    0  0.15969765051E+03  0.15595721062E+02  0.51137132021E+03  0.53595446936E+03  0.00000000000E+00 0. -1.
        -12    1    5    5    0    0  0.77566023532E+02  0.11772666984E+02  0.11357459263E+03  0.13803721160E+03  0.00000000000E+00 0.  1.
          5    1    4    4  501    0 -0.17658688914E+03 -0.10179961797E+03 -0.42628308026E+02  0.20828042798E+03  0.41800000000E+01 0.  1.
         -5    1    4    4    0  501 -0.79529288134E+02 -0.13386568913E+02 -0.10581045410E+03  0.13310684617E+03  0.41800000000E+01 0.  1.
</event>
<event>
11    1  0.6455215E-009  0.1393597E+03  0.7561462E-02  0.1108276E+00
         22   -1    0    0    0    0  0.00000000000E+00  0.00000000000E+00  0.20960491568E+03  0.20960491568E+03  0.00000000000E+00 0.  1.
         22   -1    0    0    0    0 -0.00000000000E+00 -0.00000000000E+00 -0.14790504208E+04  0.14790504208E+04  0.00000000000E+00 0. -1.
        -24    2    1    2    0    0 -0.14433159290E+02  0.38111709733E+02 -0.84823239283E+03  0.85304980958E+03  0.80839141937E+02 0.  0.
         25    2    1    2    0    0 -0.43514698189E+02 -0.58256015920E+02 -0.60708239061E+03  0.62409598849E+03  0.12513785003E+03 0.  0.
         24    2    1    2    0    0  0.57947857480E+02  0.20144306187E+02  0.18586927837E+03  0.21150953838E+03  0.80157026676E+02 0.  0.
        -11    1    5    5    0    0  0.37530789789E+02  0.36578979305E+02  0.17577768900E+03  0.18342403839E+03  0.00000000000E+00 0.  1.
         12    1    5    5    0    0  0.20417067690E+02 -0.16434673118E+02  0.10091589367E+02  0.28085499987E+02  0.00000000000E+00 0. -1.
         11    1    3    3    0    0  0.27845367205E+02  0.37405949711E+02 -0.36403678071E+03  0.36701137211E+03  0.00000000000E+00 0. -1.
        -12    1    3    3    0    0 -0.42278526495E+02  0.70576002141E+00 -0.48419561212E+03  0.48603843747E+03  0.00000000000E+00 0.  1.
          5    1    4    4  501    0 -0.16053565454E+02 -0.88119593801E+02 -0.26874511666E+03  0.28330935372E+03  0.41800000000E+01 0.  1.
         -5    1    4    4    0  501 -0.27461132735E+02  0.29863577881E+02 -0.33833727395E+03  0.34078663478E+03  0.41800000000E+01 0.  1.
</event>
<event>
11    1  0.6455215E-009  0.1386205E+03  0.7561462E-02  0.1109109E+00
         22   -1    0    0    0    0  0.00000000000E+00  0.00000000000E+00  0.30919206801E+04  0.30919206801E+04  0.00000000000E+00 0.  1.
         22   -1    0    0    0    0 -0.00000000000E+00 -0.00000000000E+00 -0.85200018395E+02  0.85200018395E+02  0.00000000000E+00 0. -1.
         24    2    1    2    0    0  0.49674582153E+02  0.30907596818E+02 -0.34273519730E+02  0.10477520775E+03  0.79876945056E+02 0.  0.
         25    2    1    2    0    0 -0.61873885544E+02 -0.36158916419E+02  0.33031136769E+03  0.36040314025E+03  0.12509587894E+03 0.  0.
        -24    2    1    2    0    0  0.12199303392E+02  0.52513196007E+01  0.27106828137E+04  0.27119423505E+04  0.81569579539E+02 0.  0.
        -13    1    3    3    0    0  0.53669352324E+02 -0.36768136391E+01  0.28636129933E+01  0.53871315343E+02  0.00000000000E+00 0.  1.
         14    1    3    3    0    0 -0.39947701714E+01  0.34584410458E+02 -0.37137132723E+02  0.50903892408E+02  0.00000000000E+00 0. -1.
         11    1    5    5    0    0 -0.30877717432E+02  0.15646261308E+02  0.80425954658E+03  0.80500413489E+03  0.00000000000E+00 0. -1.
        -12    1    5    5    0    0  0.43077020824E+02 -0.10394941707E+02  0.19064232672E+04  0.19069382156E+04  0.00000000000E+00 0.  1.
          5    1    4    4  501    0  0.35781628776E+02  0.11433723735E+01  0.12324681560E+03  0.12840904257E+03  0.41800000000E+01 0. -1.
         -5    1    4    4    0  501 -0.97655514320E+02 -0.37302288792E+02  0.20706455208E+03  0.23199409767E+03  0.41800000000E+01 0. -1.
</event>
<event>
11    1  0.6455215E-009  0.3242761E+03  0.7561462E-02  0.9904101E-01
         22   -1    0    0    0    0  0.00000000000E+00  0.00000000000E+00  0.24281866872E+03  0.24281866872E+03  0.00000000000E+00 0.  1.
         22   -1    0    0    0    0 -0.00000000000E+00 -0.00000000000E+00 -0.12436556275E+04  0.12436556275E+04  0.00000000000E+00 0. -1.
        -24    2    1    2    0    0 -0.86414808419E+02 -0.14528941994E+03 -0.62838195309E+03  0.65577198841E+03  0.81218761066E+02 0.  0.
         25    2    1    2    0    0  0.15021716666E+03 -0.23186747032E+03 -0.19175844536E+02  0.30387923889E+03  0.12508860007E+03 0.  0.
         24    2    1    2    0    0 -0.63802358239E+02  0.37715689026E+03 -0.35327916116E+03  0.52682306892E+03  0.80114414706E+02 0.  0.
        -13    1    5    5    0    0 -0.13521870548E+02  0.24403836609E+03 -0.25906177334E+03  0.35616087308E+03  0.00000000000E+00 0.  1.
         14    1    5    5    0    0 -0.50280487691E+02  0.13311852417E+03 -0.94217387823E+02  0.17066219584E+03  0.00000000000E+00 0. -1.
         11    1    3    3    0    0 -0.41249354739E+02 -0.78542239655E+02 -0.46738365654E+03  0.47572878311E+03  0.00000000000E+00 0. -1.
        -12    1    3    3    0    0 -0.45165453681E+02 -0.66747180289E+02 -0.16099829655E+03  0.18004320530E+03  0.00000000000E+00 0.  1.
          5    1    4    4  501    0  0.41503570108E+01 -0.11112284576E+03 -0.25703579029E+02  0.11420883805E+03  0.41800000000E+01 0.  1.
         -5    1    4    4    0  501  0.14606680965E+03 -0.12074462456E+03  0.65277344934E+01  0.18967040085E+03  0.41800000000E+01 0.  1.
</event>
<event>
11    1  0.6455215E-009  0.1628234E+03  0.7561462E-02  0.1084451E+00
         22   -1    0    0    0    0  0.00000000000E+00  0.00000000000E+00  0.10761719819E+04  0.10761719819E+04  0.00000000000E+00 0. -1.
         22   -1    0    0    0    0 -0.00000000000E+00 -0.00000000000E+00 -0.23261054638E+03  0.23261054638E+03  0.00000000000E+00 0.  1.
        -24    2    1    2    0    0 -0.10952914579E+02 -0.10401449828E+03 -0.18335299394E+03  0.22596573645E+03  0.80642491739E+02 0.  0.
         25    2    1    2    0    0  0.40153532003E+02  0.95707395270E+02  0.23297648671E+03  0.28407793542E+03  0.12510003355E+03 0.  0.
         24    2    1    2    0    0 -0.29200617424E+02  0.83071030140E+01  0.79393794272E+03  0.79873885637E+03  0.82003778942E+02 0.  0.
        -13    1    5    5    0    0 -0.22620059515E+02  0.32079109415E+02  0.17665632103E+03  0.18096461564E+03  0.00000000000E+00 0.  1.
         14    1    5    5    0    0 -0.65805579091E+01 -0.23772006401E+02  0.61728162169E+03  0.61777424073E+03  0.00000000000E+00 0. -1.
         11    1    3    3    0    0  0.73470827453E+01  0.11090485463E+02 -0.83598161639E+01  0.15711938740E+02  0.00000000000E+00 0. -1.
        -12    1    3    3    0    0 -0.18299997324E+02 -0.11510498375E+03 -0.17499317777E+03  0.21025379771E+03  0.00000000000E+00 0.  1.
          5    1    4    4  501    0 -0.69662467898E+01  0.52390369866E+02  0.12512745258E+02  0.54473118535E+02  0.41800000000E+01 0. -1.
         -5    1    4    4    0  501  0.47119778793E+02  0.43317025404E+02  0.22046374145E+03  0.22960481689E+03  0.41800000000E+01 0. -1.
</event>
<event>
11    1  0.6455215E-009  0.1381981E+03  0.7561462E-02  0.1109587E+00
         22   -1    0    0    0    0  0.00000000000E+00  0.00000000000E+00  0.44180996715E+03  0.44180996715E+03  0.00000000000E+00 0. -1.
         22   -1    0    0    0    0 -0.00000000000E+00 -0.00000000000E+00 -0.12350141200E+04  0.12350141200E+04  0.00000000000E+00 0. -1.
        -24    2    1    2    0    0  0.37915808712E+01  0.45130556870E+02 -0.10972259755E+04  0.11011192348E+04  0.80669601477E+02 0.  0.
         25    2    1    2    0    0 -0.12908423230E+02 -0.10106534362E+03 -0.79211946482E+02  0.17971490690E+03  0.12506831823E+03 0.  0.
         24    2    1    2    0    0  0.91168423591E+01  0.55934786753E+02  0.38323376908E+03  0.39598994553E+03  0.82024984046E+02 0.  0.
        -13    1    5    5    0    0 -0.38321080162E+01 -0.78911695040E+01  0.16974138585E+01  0.89351453147E+01  0.00000000000E+00 0.  1.
         14    1    5    5    0    0  0.12948950375E+02  0.63825956257E+02  0.38153635523E+03  0.38705480021E+03  0.00000000000E+00 0. -1.
         13    1    3    3    0    0  0.10663271763E+02 -0.66611806497E+01 -0.73865771841E+03  0.73876471332E+03  0.00000000000E+00 0. -1.
        -14    1    3    3    0    0 -0.68716908917E+01  0.51791737519E+02 -0.35856825708E+03  0.36235452143E+03  0.00000000000E+00 0.  1.
          5    1    4    4  501    0 -0.49985215603E+02 -0.10918528442E+01 -0.65077576902E+01  0.50591869225E+02  0.41800000000E+01 0. -1.
         -5    1    4    4    0  501  0.37076792373E+02 -0.99973490779E+02 -0.72704188792E+02  0.12912303768E+03  0.41800000000E+01 0. -1.
</event>
<event>
11    1  0.6455215E-009  0.2107546E+03  0.7561462E-02  0.1047169E+00
         22   -1    0    0    0    0  0.00000000000E+00  0.00000000000E+00  0.24574030892E+03  0.24574030892E+03  0.00000000000E+00 0. -1.
         22   -1    0    0    0    0 -0.00000000000E+00 -0.00000000000E+00 -0.82420748763E+03  0.82420748763E+03  0.00000000000E+00 0. -1.
        -24    2    1    2    0    0 -0.50518962274E+02  0.12478444310E+02 -0.53436316436E+03  0.54337984970E+03  0.83724503666E+02 0.  0.
         25    2    1    2    0    0 -0.64616579720E+01 -0.17290690350E+03 -0.19149649540E+03  0.28680259283E+03  0.12508504788E+03 0.  0.
         24    2    1    2    0    0  0.56980620246E+02  0.16042845919E+03  0.14739248104E+03  0.23976535402E+03  0.82333467774E+02 0.  0.
        -11    1    5    5    0    0  0.13137966377E+01 -0.45932857981E+01 -0.60121877812E+01  0.76792407141E+01  0.00000000000E+00 0.  1.
         12    1    5    5    0    0  0.55666823608E+02  0.16502174499E+03  0.15340466883E+03  0.23208611330E+03  0.00000000000E+00 0. -1.
         13    1    3    3    0    0 -0.49250848122E+01  0.29036615565E+02 -0.38948293922E+03  0.39059485589E+03  0.00000000000E+00 0. -1.
        -14    1    3    3    0    0 -0.45593877462E+02 -0.16558171255E+02 -0.14488022515E+03  0.15278499382E+03  0.00000000000E+00 0.  1.
          5    1    4    4  501    0  0.42764349073E+01 -0.57871064877E+02  0.54461182328E+01  0.58433557562E+02  0.41800000000E+01 0.  1.
         -5    1    4    4    0  501 -0.10738092879E+02 -0.11503583862E+03 -0.19694261363E+03  0.22836903527E+03  0.41800000000E+01 0.  1.
</event>
<event>
11    1  0.6455215E-009  0.1575029E+03  0.7561462E-02  0.1089450E+00
         22   -1    0    0    0    0  0.00000000000E+00  0.00000000000E+00  0.99028402843E+02  0.99028402843E+02  0.00000000000E+00 0. -1.
         22   -1    0    0    0    0 -0.00000000000E+00 -0.00000000000E+00 -0.96869190571E+03  0.96869190571E+03  0.00000000000E+00 0. -1.
        -24    2    1    2    0    0 -0.34015938779E+01 -0.91910707093E+02 -0.54134362603E+03  0.55483720593E+03  0.79575465562E+02 0.  0.
         25    2    1    2    0    0 -0.30159207240E+02  0.10466232353E+03 -0.38475574003E+03  0.41898389381E+03  0.12508694589E+03 0.  0.
         24    2    1    2    0    0  0.33560801118E+02 -0.12751616440E+02  0.56435863198E+02  0.93899208817E+02  0.65902379835E+02 0.  0.
        -11    1    5    5    0    0 -0.52638315613E+01 -0.14010929646E+02 -0.92443000574E+01  0.17591792285E+02  0.00000000000E+00 0.  1.
         12    1    5    5    0    0  0.38824632679E+02  0.12593132057E+01  0.65680163256E+02  0.76307416531E+02  0.00000000000E+00 0. -1.
         11    1    3    3    0    0 -0.21276489855E+02 -0.22354519614E+02 -0.33371961795E+03  0.33514354682E+03  0.00000000000E+00 0. -1.
        -12    1    3    3    0    0  0.17874895977E+02 -0.69556187479E+02 -0.20762400808E+03  0.21969365911E+03  0.00000000000E+00 0.  1.
          5    1    4    4  501    0  0.24578323357E+02  0.75685788459E+02 -0.10169548406E+03  0.12919704498E+03  0.41800000000E+01 0. -1.
         -5    1    4    4    0  501 -0.54737530596E+02  0.28976535074E+02 -0.28306025598E+03  0.28978684883E+03  0.41800000000E+01 0. -1.
</event>
<event>
11    1  0.6455215E-009  0.1587902E+03  0.7561462E-02  0.1088221E+00
         22   -1    0    0    0    0  0.00000000000E+00  0.00000000000E+00  0.23815576568E+03  0.23815576568E+03  0.00000000000E+00 0.  1.
         22   -1    0    0    0    0 -0.00000000000E+00 -0.00000000000E+00 -0.65024052394E+03  0.65024052394E+03  0.00000000000E+00 0. -1.
         24    2    1    2    0    0 -0.16902015774E+02  0.11396167727E+02 -0.53339074249E+03  0.53916560699E+03  0.76015240685E+02 0.  0.
         25    2    1    2    0    0  0.92749410084E+02  0.47949531210E+02 -0.13348986583E+02  0.16348386128E+03  0.12508863595E+03 0.  0.
        -24    2    1    2    0    0 -0.75847394310E+02 -0.59345698937E+02  0.13465497082E+03  0.18574682134E+03  0.84232898958E+02 0.  0.
        -11    1    3    3    0    0  0.17433711963E+02 -0.41364895975E+01 -0.34700162370E+02  0.39053119305E+02  0.00000000000E+00 0.  1.
         12    1    3    3    0    0 -0.34335727737E+02  0.15532657324E+02 -0.49869058012E+03  0.50011248769E+03  0.00000000000E+00 0. -1.
         11    1    5    5    0    0 -0.19537846726E+02  0.21069019913E+02  0.21153298413E+02  0.35680430050E+02  0.00000000000E+00 0. -1.
        -12    1    5    5    0    0 -0.56309547584E+02 -0.80414718850E+02  0.11350167240E+03  0.15006639129E+03  0.00000000000E+00 0.  1.
          5    1    4    4  501    0  0.71261184286E+02 -0.71747284983E+01 -0.55512618362E+02  0.90712492592E+02  0.41800000000E+01 0. -1.
         -5    1    4    4    0  501  0.21488225799E+02  0.55124259708E+02  0.42163631779E+02  0.72771368691E+02  0.41800000000E+01 0. -1.
</event>
<event>
11    1  0.6455215E-009  0.1367708E+03  0.7561462E-02  0.1111219E+00
         22   -1    0    0    0    0  0.00000000000E+00  0.00000000000E+00  0.12807873525E+04  0.12807873525E+04  0.00000000000E+00 0. -1.
         22   -1    0    0    0    0 -0.00000000000E+00 -0.00000000000E+00 -0.65938194047E+03  0.65938194047E+03  0.00000000000E+00 0. -1.
        -24    2    1    2    0    0 -0.26849963190E+02  0.30771759129E+02 -0.58128160054E+03  0.58825395885E+03  0.80539426955E+02 0.  0.
         25    2    1    2    0    0  0.60850496384E+02  0.13130974157E+02 -0.54109514032E+01  0.13981962645E+03  0.12508015091E+03 0.  0.
         24    2    1    2    0    0 -0.34000533194E+02 -0.43902733285E+02  0.12080979640E+04  0.12120957077E+04  0.81190071781E+02 0.  0.
        -11    1    5    5    0    0 -0.20499538323E+02 -0.51703683607E+02  0.40011154770E+03  0.40395885010E+03  0.00000000000E+00 0.  1.
         12    1    5    5    0    0 -0.13500994871E+02  0.78009503216E+01  0.80798641628E+03  0.80813685758E+03  0.00000000000E+00 0. -1.
         11    1    3    3    0    0 -0.17279272800E+02  0.55371253071E+02 -0.48369489076E+03  0.48716044204E+03  0.00000000000E+00 0. -1.
        -12    1    3    3    0    0 -0.95706903896E+01 -0.24599493942E+02 -0.97586709771E+02  0.10109351681E+03  0.00000000000E+00 0.  1.
          5    1    4    4  501    0  0.92432106810E+02 -0.12385811163E+02  0.14388928480E+02  0.94454308267E+02  0.41800000000E+01 0.  1.
         -5    1    4    4    0  501 -0.31581610426E+02  0.25516785319E+02 -0.19799879883E+02  0.45365318180E+02  0.41800000000E+01 0.  1.
</event>
<event>
11    1  0.6455215E-009  0.1344136E+03  0.7561462E-02  0.1113962E+00
         22   -1    0    0    0    0  0.00000000000E+00  0.00000000000E+00  0.11662972000E+03  0.11662972000E+03  0.00000000000E+00 0.  1.
         22   -1    0    0    0    0 -0.00000000000E+00 -0.00000000000E+00 -0.69575869399E+03  0.69575869399E+03  0.00000000000E+00 0. -1.
        -24    2    1    2    0    0  0.51020535417E+02  0.17654478653E+02 -0.52453510651E+03  0.53341537716E+03  0.80499136505E+02 0.  0.
         25    2    1    2    0    0 -0.16037650051E+02 -0.11205089556E+02 -0.11457274767E+03  0.17075322004E+03  0.12508791866E+03 0.  0.
         24    2    1    2    0    0 -0.34982885366E+02 -0.64493890969E+01  0.59978880192E+02  0.10821981678E+03  0.82756666114E+02 0.  0.
        -11    1    5    5    0    0 -0.58483948738E+02  0.12078974110E+02  0.34858006415E+02  0.69147338971E+02  0.00000000000E+00 0.  1.
         12    1    5    5    0    0  0.23501063372E+02 -0.18528363207E+02  0.25120873777E+02  0.39072477808E+02  0.00000000000E+00 0. -1.
         13    1    3    3    0    0  0.72403611967E+02  0.16873800847E+02 -0.36893693414E+03  0.37635285246E+03  0.00000000000E+00 0. -1.
        -14    1    3    3    0    0 -0.21383076550E+02  0.78067780592E+00 -0.15559817237E+03  0.15706252471E+03  0.00000000000E+00 0.  1.
          5    1    4    4  501    0 -0.31883869137E+02 -0.54145704342E+02 -0.20797320064E+02  0.66319976867E+02  0.41800000000E+01 0.  1.
         -5    1    4    4    0  501  0.15846219086E+02  0.42940614786E+02 -0.93775427606E+02  0.10443324318E+03  0.41800000000E+01 0.  1.
</event>
<event>
11    1  0.6455215E-009  0.1402837E+03  0.7561462E-02  0.1107242E+00
         22   -1    0    0    0    0  0.00000000000E+00  0.00000000000E+00  0.21963478578E+03  0.21963478578E+03  0.00000000000E+00 0. -1.
         22   -1    0    0    0    0 -0.00000000000E+00 -0.00000000000E+00 -0.19990725855E+04  0.19990725855E+04  0.00000000000E+00 0. -1.
        -24    2    1    2    0    0  0.11473936970E+02  0.51125948852E+01 -0.18425469178E+04  0.18442837025E+04  0.79028104479E+02 0.  0.
         25    2    1    2    0    0 -0.72923316223E+02  0.65424613139E+01 -0.10421394528E+03  0.17851880850E+03  0.12509118573E+03 0.  0.
         24    2    1    2    0    0  0.61449379253E+02 -0.11655056199E+02  0.16732306336E+03  0.19590486025E+03  0.80435316815E+02 0.  0.
        -11    1    5    5    0    0  0.51868363958E+02 -0.14491923340E+02  0.37328396150E+02  0.65526728752E+02  0.00000000000E+00 0.  1.
         12    1    5    5    0    0  0.95810152941E+01  0.28368671407E+01  0.12999466721E+03  0.13037813150E+03  0.00000000000E+00 0. -1.
         11    1    3    3    0    0  0.15994596909E+01  0.53386039051E+01 -0.18151866606E+04  0.18151952158E+04  0.00000000000E+00 0. -1.
        -12    1    3    3    0    0  0.98744772793E+01 -0.22600901993E+00 -0.27360257222E+02  0.29088486672E+02  0.00000000000E+00 0.  1.
          5    1    4    4  501    0 -0.10622880547E+03 -0.11189977025E+02 -0.79512869175E+02  0.13322741258E+03  0.41800000000E+01 0.  1.
         -5    1    4    4    0  501  0.33305489248E+02  0.17732438339E+02 -0.24701076107E+02  0.45291395920E+02  0.41800000000E+01 0.  1.
</event>
<event>
11    1  0.6455215E-009  0.1515087E+03  0.7561462E-02  0.1095347E+00
         22   -1    0    0    0    0  0.00000000000E+00  0.00000000000E+00  0.34512238854E+03  0.34512238854E+03  0.00000000000E+00 0. -1.
         22   -1    0    0    0    0 -0.00000000000E+00 -0.00000000000E+00 -0.29156482471E+03  0.29156482471E+03  0.00000000000E+00 0.  1.
         24    2    1    2    0    0 -0.43412805937E+01 -0.51502174099E+01 -0.20309786640E+03  0.21876022873E+03  0.81005696603E+02 0.  0.
         25    2    1    2    0    0  0.58800552832E+02 -0.61000700066E+02  0.18196230375E+02  0.15217368587E+03  0.12508851846E+03 0.  0.
        -24    2    1    2    0    0 -0.54459272239E+02  0.66150917476E+02  0.23845919985E+03  0.26575329865E+03  0.80126584449E+02 0.  0.
        -13    1    3    3    0    0  0.78404106598E+01 -0.99127458869E+01 -0.20513412506E+03  0.20552309805E+03  0.00000000000E+00 0.  1.
         14    1    3    3    0    0 -0.12181691253E+02  0.47625284770E+01  0.20362586576E+01  0.13237130679E+02  0.00000000000E+00 0. -1.
         13    1    5    5    0    0 -0.28451802325E+02  0.55628776835E+02  0.22700959252E+03  0.23545152572E+03  0.00000000000E+00 0. -1.
        -14    1    5    5    0    0 -0.26007469913E+02  0.10522140641E+02  0.11449607334E+02  0.30301772936E+02  0.00000000000E+00 0.  1.
          5    1    4    4  501    0 -0.22838822536E+02 -0.30998446806E+02 -0.33240553896E+02  0.51038439852E+02  0.41800000000E+01 0.  1.
         -5    1    4    4    0  501  0.81639375368E+02 -0.30002253260E+02  0.51436784271E+02  0.10113524602E+03  0.41800000000E+01 0.  1.
</event>
<event>
11    1  0.6455215E-009  0.1719374E+03  0.7561462E-02  0.1076358E+00
         22   -1    0    0    0    0  0.00000000000E+00  0.00000000000E+00  0.33306552939E+03  0.33306552939E+03  0.00000000000E+00 0. -1.
         22   -1    0    0    0    0 -0.00000000000E+00 -0.00000000000E+00 -0.39306364850E+03  0.39306364850E+03  0.00000000000E+00 0.  1.
        -24    2    1    2    0    0  0.36819077407E+02 -0.85210037357E+01 -0.30965953592E+03  0.32274041903E+03  0.82729063375E+02 0.  0.
         25    2    1    2    0    0 -0.71475612836E+02  0.11115394061E+03  0.15013126603E+03  0.23590436111E+03  0.12509000282E+03 0.  0.
         24    2    1    2    0    0  0.34656535429E+02 -0.10263293687E+03  0.99530150772E+02  0.16748439775E+03  0.80063583467E+02 0.  0.
        -11    1    5    5    0    0 -0.15869279208E+01  0.12998157428E+02  0.59727166337E+01  0.14392490428E+02  0.00000000000E+00 0.  1.
         12    1    5    5    0    0  0.36243463350E+02 -0.11563109430E+03  0.93557434138E+02  0.15309190732E+03  0.00000000000E+00 0. -1.
         13    1    3    3    0    0  0.10514057310E+02 -0.69370339159E+01 -0.65410192848E+00  0.12613313998E+02  0.00000000000E+00 0. -1.
        -14    1    3    3    0    0  0.26305020097E+02 -0.15839698198E+01 -0.30900543399E+03  0.31012710503E+03  0.00000000000E+00 0.  1.
          5    1    4    4  501    0  0.59214591589E+01  0.93009138291E+02  0.43761224818E+02  0.10304504200E+03  0.41800000000E+01 0.  1.
         -5    1    4    4    0  501 -0.77397071995E+02  0.18144802316E+02  0.10637004122E+03  0.13285931910E+03  0.41800000000E+01 0.  1.
</event>
<event>
11    1  0.6455215E-009  0.2562910E+03  0.7561462E-02  0.1020600E+00
         22   -1    0    0    0    0  0.00000000000E+00  0.00000000000E+00  0.11848937456E+04  0.11848937456E+04  0.00000000000E+00 0. -1.
         22   -1    0    0    0    0 -0.00000000000E+00 -0.00000000000E+00 -0.39405512434E+03  0.39405512434E+03  0.00000000000E+00 0.  1.
         24    2    1    2    0    0 -0.39788911736E+01  0.63700235799E+02 -0.32364271406E+03  0.33917113392E+03  0.78860003224E+02 0.  0.
         25    2    1    2    0    0 -0.18788817639E+03 -0.16256499326E+03  0.38537966552E+03  0.47528197255E+03  0.12508446336E+03 0.  0.
        -24    2    1    2    0    0  0.19186706757E+03  0.98864757457E+02  0.72910166977E+03  0.76449576344E+03  0.79229511978E+02 0.  0.
        -13    1    3    3    0    0 -0.34939763718E+02  0.60079025855E+02 -0.24191565793E+03  0.25170113625E+03  0.00000000000E+00 0.  1.
         14    1    3    3    0    0  0.30960872545E+02  0.36212099440E+01 -0.81727056124E+02  0.87469997673E+02  0.00000000000E+00 0. -1.
         11    1    5    5    0    0  0.16268218465E+03  0.11238343334E+03  0.62251372204E+03  0.65316067198E+03  0.00000000000E+00 0. -1.
        -12    1    5    5    0    0  0.29184882916E+02 -0.13518675887E+02  0.10658794773E+03  0.11133509146E+03  0.00000000000E+00 0.  1.
          5    1    4    4  501    0 -0.18803979881E+03 -0.15957803345E+03  0.29404195719E+03  0.38379976509E+03  0.41800000000E+01 0. -1.
         -5    1    4    4    0  501  0.15162241436E+00 -0.29869598010E+01  0.91337708330E+02  0.91482207457E+02  0.41800000000E+01 0. -1.
</event>
<event>
11    1  0.6455215E-009  0.2208996E+03  0.7561462E-02  0.1040655E+00
         22   -1    0    0    0    0  0.00000000000E+00  0.00000000000E+00  0.22712914992E+03  0.22712914992E+03  0.00000000000E+00 0.  1.
         22   -1    0    0    0    0 -0.00000000000E+00 -0.00000000000E+00 -0.70448092545E+03  0.70448092545E+03  0.00000000000E+00 0. -1.
         24    2    1    2    0    0  0.15351215687E+03 -0.29099673069E+02 -0.42624356544E+03  0.46079188967E+03  0.78948180631E+02 0.  0.
         25    2    1    2    0    0 -0.10019042003E+03  0.20169761151E+03 -0.82225504105E+02  0.27042213707E+03  0.12508817663E+03 0.  0.
        -24    2    1    2    0    0 -0.53321736835E+02 -0.17259793844E+03  0.31117294017E+02  0.20039604864E+03  0.80975516980E+02 0.  0.
        -13    1    3    3    0    0  0.39465549844E+02 -0.13014569733E+02 -0.39765527828E+02  0.57517004905E+02  0.00000000000E+00 0.  1.
         14    1    3    3    0    0  0.11404660702E+03 -0.16085103337E+02 -0.38647803762E+03  0.40327488476E+03  0.00000000000E+00 0. -1.
         11    1    5    5    0    0 -0.57506867706E+02 -0.94996176586E+02  0.47822771970E+02  0.12090628982E+03  0.00000000000E+00 0. -1.
        -12    1    5    5    0    0  0.41851308710E+01 -0.77601761859E+02 -0.16705477953E+02  0.79489758822E+02  0.00000000000E+00 0.  1.
          5    1    4    4  501    0  0.16260058850E+02  0.55041472471E+01  0.14229032650E+02  0.22685301869E+02  0.41800000000E+01 0. -1.
         -5    1    4    4    0  501 -0.11645047888E+03  0.19619346427E+03 -0.96454536755E+02  0.24773683520E+03  0.41800000000E+01 0. -1.
</event>
<event>
11    1  0.6455215E-009  0.1856536E+03  0.7561462E-02  0.1065159E+00
         22   -1    0    0    0    0  0.00000000000E+00  0.00000000000E+00  0.45273907141E+03  0.45273907141E+03  0.00000000000E+00 0.  1.
         22   -1    0    0    0    0 -0.00000000000E+00 -0.00000000000E+00 -0.61962866183E+03  0.61962866183E+03  0.00000000000E+00 0.  1.
         24    2    1    2    0    0 -0.74723384028E+01 -0.15702540902E+02 -0.49965601943E+03  0.50634200142E+03  0.80147857236E+02 0.  0.
         25    2    1    2    0    0 -0.15889150857E+01  0.15029762636E+03 -0.26285460956E+01  0.19556643441E+03  0.12508964735E+03 0.  0.
        -24    2    1    2    0    0  0.90612534885E+01 -0.13459508546E+03  0.33539497510E+03  0.37045929741E+03  0.80946639046E+02 0.  0.
        -13    1    3    3    0    0 -0.34977316788E+02 -0.24772073155E+02 -0.40736099497E+03  0.40960962943E+03  0.00000000000E+00 0.  1.
         14    1    3    3    0    0  0.27504978385E+02  0.90695322534E+01 -0.92295024455E+02  0.96732371988E+02  0.00000000000E+00 0. -1.
         11    1    5    5    0    0 -0.24373021376E+02 -0.69133177481E+01  0.54516720094E+02  0.60115812421E+02  0.00000000000E+00 0. -1.
        -12    1    5    5    0    0  0.33434274864E+02 -0.12768176771E+03  0.28087825501E+03  0.31034348499E+03  0.00000000000E+00 0.  1.
          5    1    4    4  501    0 -0.24501038245E+02  0.87940122259E+02  0.55733442223E+02  0.10703950187E+03  0.41800000000E+01 0.  1.
         -5    1    4    4    0  501  0.22912123159E+02  0.62357504101E+02 -0.58361988318E+02  0.88526932545E+02  0.41800000000E+01 0.  1.
</event>
<event>
11    1  0.6455215E-009  0.1339822E+03  0.7561462E-02  0.1114471E+00
         22   -1    0    0    0    0  0.00000000000E+00  0.00000000000E+00  0.12402352311E+04  0.12402352311E+04  0.00000000000E+00 0.  1.
         22   -1    0    0    0    0 -0.00000000000E+00 -0.00000000000E+00 -0.11103299528E+04  0.11103299528E+04  0.00000000000E+00 0. -1.
        -24    2    1    2    0    0 -0.36264876450E+02 -0.28554827003E+02 -0.10780645089E+04  0.10820023163E+04  0.79846150218E+02 0.  0.
         25    2    1    2    0    0  0.21470565984E+02  0.72987182135E+02  0.16178228779E+03  0.21819378949E+03  0.12508759800E+03 0.  0.
         24    2    1    2    0    0  0.14794310465E+02 -0.44432355132E+02  0.10461874995E+04  0.10503690781E+04  0.81079036896E+02 0.  0.
        -13    1    5    5    0    0 -0.63853524967E+01 -0.64244991024E+02  0.74015366890E+03  0.74296409414E+03  0.00000000000E+00 0.  1.
         14    1    5    5    0    0  0.21179662962E+02  0.19812635892E+02  0.30603383064E+03  0.30740498395E+03  0.00000000000E+00 0. -1.
         13    1    3    3    0    0 -0.19309270603E+02 -0.56120100278E+02 -0.75051707814E+03  0.75286001233E+03  0.00000000000E+00 0. -1.
        -14    1    3    3    0    0 -0.16955605846E+02  0.27565273275E+02 -0.32754743078E+03  0.32914230398E+03  0.00000000000E+00 0.  1.
          5    1    4    4  501    0  0.45276745556E+02  0.31124227391E+02  0.16065433123E+03  0.16984106618E+03  0.41800000000E+01 0.  1.
         -5    1    4    4    0  501 -0.23806179572E+02  0.41862954744E+02  0.11279565571E+01  0.48352723312E+02  0.41800000000E+01 0.  1.
</event>
<event>
11    1  0.6455215E-009  0.1552085E+03  0.7561462E-02  0.1091672E+00
         22   -1    0    0    0    0  0.00000000000E+00  0.00000000000E+00  0.71461410943E+03  0.71461410943E+03  0.00000000000E+00 0. -1.
         22   -1    0    0    0    0 -0.00000000000E+00 -0.00000000000E+00 -0.35050585061E+03  0.35050585061E+03  0.00000000000E+00 0.  1.
        -24    2    1    2    0    0 -0.22959956345E+01 -0.13579378156E+02 -0.26977705483E+03  0.28161355976E+03  0.79604438446E+02 0.  0.
         25    2    1    2    0    0  0.39164005641E+02  0.96569087786E+02  0.27514852847E+02  0.16511739947E+03  0.12508908996E+03 0.  0.
         24    2    1    2    0    0 -0.36868010006E+02 -0.82989709630E+02  0.60637046081E+03  0.61838900082E+03  0.80456687276E+02 0.  0.
        -11    1    5    5    0    0 -0.58588602442E+01  0.15707337694E+02  0.11768624785E+03  0.11887430182E+03  0.00000000000E+00 0.  1.
         12    1    5    5    0    0 -0.31009149762E+02 -0.98697047324E+02  0.48868421296E+03  0.49951469900E+03  0.00000000000E+00 0. -1.
         11    1    3    3    0    0  0.27614955997E+01  0.13082852572E+02 -0.33186661173E+01  0.13776807836E+02  0.00000000000E+00 0. -1.
        -12    1    3    3    0    0 -0.50574912342E+01 -0.26662230728E+02 -0.26645838872E+03  0.26783675193E+03  0.00000000000E+00 0.  1.
          5    1    4    4  501    0  0.24512813874E+02  0.42082865168E+02 -0.49492111382E+02  0.69561390683E+02  0.41800000000E+01 0.  1.
         -5    1    4    4    0  501  0.14651191767E+02  0.54486222618E+02  0.77006964229E+02  0.95556008787E+02  0.41800000000E+01 0.  1.
</event>
<event>
11    1  0.6455215E-009  0.1301539E+03  0.7561462E-02  0.1119080E+00
         22   -1    0    0    0    0  0.00000000000E+00  0.00000000000E+00  0.29521515585E+03  0.29521515585E+03  0.00000000000E+00 0.  1.
         22   -1    0    0    0    0 -0.00000000000E+00 -0.00000000000E+00 -0.14786810702E+04  0.14786810702E+04  0.00000000000E+00 0. -1.
         24    2    1    2    0    0  0.35085348078E+02 -0.65062529332E+01 -0.13560712766E+04  0.13589145717E+04  0.80288185560E+02 0.  0.
         25    2    1    2    0    0 -0.42274070658E+02  0.13182039111E+02 -0.76424215605E+02  0.15312413993E+03  0.12508188635E+03 0.  0.
        -24    2    1    2    0    0  0.71887225801E+01 -0.66757861775E+01  0.24902957790E+03  0.26185751447E+03  0.80357845682E+02 0.  0.
        -13    1    3    3    0    0 -0.14806579214E+02 -0.28419785556E+02 -0.39385492497E+03  0.39515645119E+03  0.00000000000E+00 0.  1.
         14    1    3    3    0    0  0.49891927293E+02  0.21913532623E+02 -0.96221635168E+03  0.96375812046E+03  0.00000000000E+00 0. -1.
         13    1    5    5    0    0  0.28294252902E+02  0.22118374797E+02  0.63752231005E+02  0.73171949605E+02  0.00000000000E+00 0. -1.
        -14    1    5    5    0    0 -0.21105530322E+02 -0.28794160974E+02  0.18527734689E+03  0.18868556486E+03  0.00000000000E+00 0.  1.
          5    1    4    4  501    0 -0.53266622683E+02  0.28957418580E+02  0.12503328996E+02  0.62045715556E+02  0.41800000000E+01 0. -1.
         -5    1    4    4    0  501  0.10992552025E+02 -0.15775379469E+02 -0.88927544602E+02  0.91078424373E+02  0.41800000000E+01 0. -1.
</event>
<event>
11    1  0.6455215E-009  0.1329945E+03  0.7561462E-02  0.1115644E+00
         22   -1    0    0    0    0  0.00000000000E+00  0.00000000000E+00  0.99203656975E+03  0.99203656975E+03  0.00000000000E+00 0. -1.
         22   -1    0    0    0    0 -0.00000000000E+00 -0.00000000000E+00 -0.46358168653E+02  0.46358168653E+02  0.00000000000E+00 0.  1.
        -24    2    1    2    0    0  0.67805554406E+01 -0.52125421981E+02  0.77509527747E+02  0.12197804815E+03  0.78152938459E+02 0.  0.
         25    2    1    2    0    0 -0.14227862969E+02  0.28890813237E+02  0.17076848630E+03  0.21411798112E+03  0.12509005856E+03 0.  0.
         24    2    1    2    0    0  0.74473075282E+01  0.23234608743E+02  0.69740038705E+03  0.70229870914E+03  0.79125644175E+02 0.  0.
        -11    1    5    5    0    0 -0.14985754410E+02 -0.13420957942E+02  0.56778542167E+02  0.60237013521E+02  0.00000000000E+00 0.  1.
         12    1    5    5    0    0  0.22433061938E+02  0.36655566685E+02  0.64062184488E+03  0.64206169562E+03  0.00000000000E+00 0. -1.
         13    1    3    3    0    0  0.11663365321E+02 -0.10434693002E+02  0.78446087458E+02  0.79991909255E+02  0.00000000000E+00 0. -1.
        -14    1    3    3    0    0 -0.48828098807E+01 -0.41690728978E+02 -0.93655971180E+00  0.41986138893E+02  0.00000000000E+00 0.  1.
          5    1    4    4  501    0 -0.53781693519E+02  0.37290546830E+02  0.15869608029E+03  0.17171189167E+03  0.41800000000E+01 0. -1.
         -5    1    4    4    0  501  0.39553830550E+02 -0.83997335926E+01  0.12072406013E+02  0.42406089451E+02  0.41800000000E+01 0. -1.
</event>
<event>
11    1  0.6455215E-009  0.1990557E+03  0.7561462E-02  0.1055193E+00
         22   -1    0    0    0    0  0.00000000000E+00  0.00000000000E+00  0.24496939309E+04  0.24496939309E+04  0.00000000000E+00 0.  1.
         22   -1    0    0    0    0 -0.00000000000E+00 -0.00000000000E+00 -0.93721541063E+03  0.93721541063E+03  0.00000000000E+00 0. -1.
        -24    2    1    2    0    0 -0.51875762969E+02  0.11805260404E+03 -0.89974244519E+03  0.91274341178E+03  0.83285989059E+02 0.  0.
         25    2    1    2    0    0 -0.25296706961E+02  0.34473095732E+02  0.13412139637E+03  0.18832058138E+03  0.12509106560E+03 0.  0.
         24    2    1    2    0    0  0.77172469930E+02 -0.15252569977E+03  0.22780995691E+04  0.22858453484E+04  0.78304730139E+02 0.  0.
        -11    1    5    5    0    0  0.10696660570E+02 -0.81584477643E+02  0.71364022339E+03  0.71836816047E+03  0.00000000000E+00 0.  1.
         12    1    5    5    0    0  0.66475809360E+02 -0.70941222131E+02  0.15644593457E+04  0.15674771879E+04  0.00000000000E+00 0. -1.
         13    1    3    3    0    0 -0.69324854804E+02  0.87423226518E+02 -0.54826691299E+03  0.55950457005E+03  0.00000000000E+00 0. -1.
        -14    1    3    3    0    0  0.17449091835E+02  0.30629377524E+02 -0.35147553220E+03  0.35323884174E+03  0.00000000000E+00 0.  1.
          5    1    4    4  501    0 -0.21265757103E+02 -0.27751630249E+02  0.11889197949E+03  0.12399661525E+03  0.41800000000E+01 0. -1.
         -5    1    4    4    0  501 -0.40309498574E+01  0.62224725981E+02  0.15229416885E+02  0.64323966131E+02  0.41800000000E+01 0. -1.
</event>
<event>
11    1  0.6455215E-009  0.1354481E+03  0.7561462E-02  0.1112751E+00
         22   -1    0    0    0    0  0.00000000000E+00  0.00000000000E+00  0.26949550606E+04  0.26949550606E+04  0.00000000000E+00 0. -1.
         22   -1    0    0    0    0 -0.00000000000E+00 -0.00000000000E+00 -0.57540801020E+03  0.57540801020E+03  0.00000000000E+00 0.  1.
         24    2    1    2    0    0 -0.14717706518E+02 -0.48550205361E+02 -0.47285909187E+03  0.48318427495E+03  0.85425929737E+02 0.  0.
         25    2    1    2    0    0  0.24813016559E+01  0.65906537876E+02 -0.44996021745E+02  0.14840116029E+03  0.12509370012E+03 0.  0.
        -24    2    1    2    0    0  0.12236404862E+02 -0.17356332515E+02  0.26374021640E+04  0.26387776356E+04  0.82500080447E+02 0.  0.
        -13    1    3    3    0    0 -0.19754991319E+02 -0.38525592537E+02 -0.46947332559E+03  0.47146546470E+03  0.00000000000E+00 0.  1.
         14    1    3    3    0    0  0.50372848016E+01 -0.10024612824E+02 -0.33857662776E+01  0.11718810252E+02  0.00000000000E+00 0. -1.
         11    1    5    5    0    0 -0.87607075790E+01 -0.54611899390E+01  0.24229395369E+04  0.24229615297E+04  0.00000000000E+00 0. -1.
        -12    1    5    5    0    0  0.20997112441E+02 -0.11895142576E+02  0.21446262710E+03  0.21581610591E+03  0.00000000000E+00 0.  1.
          5    1    4    4  501    0  0.63246265688E+02  0.40785785105E+02 -0.27492929157E+02  0.80230318108E+02  0.41800000000E+01 0.  1.
         -5    1    4    4    0  501 -0.60764964032E+02  0.25120752771E+02 -0.17503092588E+02  0.68170842182E+02  0.41800000000E+01 0.  1.
</event>
<event>
11    1  0.6455215E-009  0.1299789E+03  0.7561462E-02  0.1119295E+00
         22   -1    0    0    0    0  0.00000000000E+00  0.00000000000E+00  0.80356885648E+03  0.80356885648E+03  0.00000000000E+00 0. -1.
         22   -1    0    0    0    0 -0.00000000000E+00 -0.00000000000E+00 -0.57056493998E+03  0.57056493998E+03  0.00000000000E+00 0. -1.
        -24    2    1    2    0    0 -0.11362517284E+02  0.34358636709E+02 -0.45828481991E+03  0.46736617690E+03  0.84240990224E+02 0.  0.
         25    2    1    2    0    0  0.30478560374E+02 -0.18136584605E+02 -0.65386579972E+02  0.14553659997E+03  0.12509044227E+03 0.  0.
         24    2    1    2    0    0 -0.19116043089E+02 -0.16222052104E+02  0.75667531638E+03  0.76123101960E+03  0.79287784103E+02 0.  0.
        -11    1    5    5    0    0  0.26432542076E+02 -0.15377696030E+02  0.46651483173E+03  0.46751603292E+03  0.00000000000E+00 0.  1.
         12    1    5    5    0    0 -0.45548585165E+02 -0.84435607442E+00  0.29016048465E+03  0.29371498668E+03  0.00000000000E+00 0. -1.
         11    1    3    3    0    0 -0.85815694244E+01  0.57825000897E+02 -0.40335414593E+03  0.40756832691E+03  0.00000000000E+00 0. -1.
        -12    1    3    3    0    0 -0.27809478600E+01 -0.23466364188E+02 -0.54930673973E+02  0.59797849981E+02  0.00000000000E+00 0.  1.
          5    1    4    4  501    0 -0.46990562232E+02  0.84457817695E+01 -0.21582920775E+02  0.52561764028E+02  0.41800000000E+01 0. -1.
         -5    1    4    4    0  501  0.77469122606E+02 -0.26582366375E+02 -0.43803659197E+02  0.92974835942E+02  0.41800000000E+01 0. -1.
</event>
<event>
11    1  0.6455215E-009  0.1375744E+03  0.7561462E-02  0.1110298E+00
         22   -1    0    0    0    0  0.00000000000E+00  0.00000000000E+00  0.26465688513E+04  0.26465688513E+04  0.00000000000E+00 0.  1.
         22   -1    0    0    0    0 -0.00000000000E+00 -0.00000000000E+00 -0.23868747827E+03  0.23868747827E+03  0.00000000000E+00 0. -1.
         24    2    1    2    0    0 -0.10988865195E+02 -0.55201689170E+02 -0.20398982949E+03  0.22443770469E+03  0.74782692549E+02 0.  0.
         25    2    1    2    0    0  0.51798868203E+02  0.72893838234E+02  0.22683559662E+03  0.27403450635E+03  0.12507553068E+03 0.  0.
        -24    2    1    2    0    0 -0.40810003008E+02 -0.17692149063E+02  0.23850356059E+04  0.23867841186E+04  0.79781693327E+02 0.  0.
        -13    1    3    3    0    0  0.45682086040E+00  0.15889025938E+02 -0.13717495719E+02  0.20996178685E+02  0.00000000000E+00 0.  1.
         14    1    3    3    0    0 -0.11445686055E+02 -0.71090715109E+02 -0.19027233377E+03  0.20344152600E+03  0.00000000000E+00 0. -1.
         13    1    5    5    0    0  0.16432596752E+02  0.16763811461E+02  0.47398597154E+03  0.47456691501E+03  0.00000000000E+00 0. -1.
        -14    1    5    5    0    0 -0.57242599761E+02 -0.34455960525E+02  0.19110496344E+04  0.19122172036E+04  0.00000000000E+00 0.  1.
          5    1    4    4  501    0  0.82542064712E+02  0.45441896566E+02  0.87440427623E+02  0.12861360423E+03  0.41800000000E+01 0. -1.
         -5    1    4    4    0  501 -0.30743196509E+02  0.27451941667E+02  0.13939516899E+03  0.14542090212E+03  0.41800000000E+01 0. -1.
</event>
<event>
11    1  0.6455215E-009  0.1308805E+03  0.7561462E-02  0.1118192E+00
         22   -1    0    0    0    0  0.00000000000E+00  0.00000000000E+00  0.48089251791E+03  0.48089251791E+03  0.00000000000E+00 0.  1.
         22   -1    0    0    0    0 -0.00000000000E+00 -0.00000000000E+00 -0.40483017904E+03  0.40483017904E+03  0.00000000000E+00 0. -1.
         24    2    1    2    0    0 -0.33699741745E+02 -0.22926746069E+02 -0.33035420594E+03  0.34307159094E+03  0.83083733961E+02 0.  0.
         25    2    1    2    0    0  0.93804795541E+01  0.15299946360E+02 -0.24713499294E+01  0.12639645171E+03  0.12509146126E+03 0.  0.
        -24    2    1    2    0    0  0.24319262191E+02  0.76267997085E+01  0.40888789475E+03  0.41625465430E+03  0.73681966348E+02 0.  0.
        -11    1    3    3    0    0  0.16439408211E+02  0.18801444651E+02 -0.60650816127E+02  0.65591691244E+02  0.00000000000E+00 0.  1.
         12    1    3    3    0    0 -0.50139149956E+02 -0.41728190720E+02 -0.26970338981E+03  0.27747989970E+03  0.00000000000E+00 0. -1.
         11    1    5    5    0    0 -0.18426800388E+02  0.23661531252E+02  0.11521659568E+03  0.11905578085E+03  0.00000000000E+00 0. -1.
        -12    1    5    5    0    0  0.42746062580E+02 -0.16034731543E+02  0.29367129906E+03  0.29719887344E+03  0.00000000000E+00 0.  1.
          5    1    4    4  501    0  0.92223430102E+01  0.61487643172E+02  0.30612105761E+02  0.69428778562E+02  0.41800000000E+01 0.  1.
         -5    1    4    4    0  501  0.15813654385E+00 -0.46187696812E+02 -0.33083455690E+02  0.56967673152E+02  0.41800000000E+01 0.  1.
</event>
<event>
11    1  0.6455215E-009  0.1530634E+03  0.7561462E-02  0.1093789E+00
         22   -1    0    0    0    0  0.00000000000E+00  0.00000000000E+00  0.16488692998E+04  0.16488692998E+04  0.00000000000E+00 0.  1.
         22   -1    0    0    0    0 -0.00000000000E+00 -0.00000000000E+00 -0.25227957487E+03  0.25227957487E+03  0.00000000000E+00 0.  1.
         24    2    1    2    0    0 -0.12444959375E+01  0.13660573783E+02 -0.20273012182E+03  0.21859815060E+03  0.80607004097E+02 0.  0.
         25    2    1    2    0    0 -0.78325293194E+02  0.25361713115E+02  0.10389346009E+03  0.18226203563E+03  0.12509008968E+03 0.  0.
        -24    2    1    2    0    0  0.79569789132E+02 -0.39022286899E+02  0.14954263866E+04  0.15002886884E+04  0.81926677845E+02 0.  0.
        -13    1    3    3    0    0 -0.17221364013E+02 -0.11852104064E+02 -0.17913417363E+03  0.18034993737E+03  0.00000000000E+00 0.  1.
         14    1    3    3    0    0  0.15976868075E+02  0.25512677847E+02 -0.23595948189E+02  0.38248213231E+02  0.00000000000E+00 0. -1.
         11    1    5    5    0    0  0.81852699261E+02 -0.57339346480E+02  0.11355576379E+04  0.11399468470E+04  0.00000000000E+00 0. -1.
        -12    1    5    5    0    0 -0.22829101294E+01  0.18317059582E+02  0.35986874870E+03  0.36034184137E+03  0.00000000000E+00 0.  1.
          5    1    4    4  501    0  0.23576525873E+02  0.74968564442E+01  0.68319294159E+02  0.72780861380E+02  0.41800000000E+01 0.  1.
         -5    1    4    4    0  501 -0.10190181907E+03  0.17864856671E+02  0.35574165928E+02  0.10948117425E+03  0.41800000000E+01 0.  1.
</event>
<event>
11    1  0.6790620E-009  0.1935328E+03  0.7561462E-02  0.1059194E+00
         22   -1    0    0    0    0  0.00000000000E+00  0.00000000000E+00  0.84868108358E+03  0.84868108358E+03  0.00000000000E+00 0.  1.
         22   -1    0    0    0    0 -0.00000000000E+00 -0.00000000000E+00 -0.10401403247E+04  0.10401403247E+04  0.00000000000E+00 0. -1.
        -24    2    1    2    0    0  0.45726508995E+01  0.21629810677E+02 -0.78375992506E+03  0.78845006798E+03  0.82976693886E+02 0.  0.
         25    2    1    2    0    0  0.12956737089E+03 -0.82985746812E+02 -0.20507421919E+03  0.28526513339E+03  0.12508566336E+03 0.  0.
         24    2    1    2    0    0 -0.13414002179E+03  0.61355936134E+02  0.79737490317E+03  0.81510620687E+03  0.82663752135E+02 0.  0.
        -13    1    5    5    0    0 -0.12036393432E+03  0.22997841069E+02  0.67747717430E+03  0.68847055063E+03  0.00000000000E+00 0.  1.
         14    1    5    5    0    0 -0.13776087467E+02  0.38358095065E+02  0.11989772887E+03  0.12663565624E+03  0.00000000000E+00 0. -1.
         13    1    3    3    0    0 -0.10437321143E+02  0.28125709244E+02 -0.75312812746E+03  0.75372539401E+03  0.00000000000E+00 0. -1.
        -14    1    3    3    0    0  0.15009972042E+02 -0.64958985663E+01 -0.30631797595E+02  0.34724673977E+02  0.00000000000E+00 0.  1.
          5    1    4    4  501    0  0.12766371478E+03 -0.24561459505E+02 -0.96767151631E+02  0.16211922588E+03  0.41800000000E+01 0. -1.
         -5    1    4    4    0  501  0.19036561138E+01 -0.58424287306E+02 -0.10830706756E+03  0.12314590751E+03  0.41800000000E+01 0. -1.
</event>
<event>
11    1  0.6455215E-009  0.1886989E+03  0.7561462E-02  0.1062816E+00
         22   -1    0    0    0    0  0.00000000000E+00  0.00000000000E+00  0.39408890822E+03  0.39408890822E+03  0.00000000000E+00 0.  1.
         22   -1    0    0    0    0 -0.00000000000E+00 -0.00000000000E+00 -0.13053303057E+04  0.13053303057E+04  0.00000000000E+00 0. -1.
        -24    2    1    2    0    0 -0.12686142982E+03  0.70732509326E+02 -0.12278591311E+04  0.12389431082E+04  0.79025752283E+02 0.  0.
         25    2    1    2    0    0  0.60067219460E+02 -0.52618849032E+02  0.25737353775E+02  0.15062043090E+03  0.12508912302E+03 0.  0.
         24    2    1    2    0    0  0.66794210357E+02 -0.18113660293E+02  0.29088037983E+03  0.30985567473E+03  0.81299277775E+02 0.  0.
        -11    1    5    5    0    0  0.59000993873E+02  0.51170029583E+01  0.27343973470E+03  0.27977953733E+03  0.00000000000E+00 0.  1.
         12    1    5    5    0    0  0.77932164840E+01 -0.23230663252E+02  0.17440645131E+02  0.30076137399E+02  0.00000000000E+00 0. -1.
         11    1    3    3    0    0 -0.43795505949E+02  0.51460282562E+02 -0.78817887515E+03  0.79107025368E+03  0.00000000000E+00 0. -1.
        -12    1    3    3    0    0 -0.83065923869E+02  0.19272226764E+02 -0.43968025590E+03  0.44787285457E+03  0.00000000000E+00 0.  1.
          5    1    4    4  501    0  0.69061456660E+02  0.43653084851E+01  0.52428525951E+02  0.86918142223E+02  0.41800000000E+01 0. -1.
         -5    1    4    4    0  501 -0.89942371998E+01 -0.56984157518E+02 -0.26691172176E+02  0.63702288679E+02  0.41800000000E+01 0. -1.
</event>
<event>
11    1  0.6455215E-009  0.1655065E+03  0.7561462E-02  0.1082010E+00
         22   -1    0    0    0    0  0.00000000000E+00  0.00000000000E+00  0.17187739818E+04  0.17187739818E+04  0.00000000000E+00 0.  1.
         22   -1    0    0    0    0 -0.00000000000E+00 -0.00000000000E+00 -0.40109848974E+03  0.40109848974E+03  0.00000000000E+00 0.  1.
        -24    2    1    2    0    0  0.23791162296E+02 -0.30809287147E+02 -0.37664421685E+03  0.38952178591E+03  0.91384484630E+02 0.  0.
         25    2    1    2    0    0 -0.12371152222E+03  0.51605706954E+02  0.57553427214E+03  0.60403234882E+03  0.12509072826E+03 0.  0.
         24    2    1    2    0    0  0.99920359927E+02 -0.20796419807E+02  0.11187854368E+04  0.11263183368E+04  0.80595117005E+02 0.  0.
        -11    1    5    5    0    0  0.40900703597E+02 -0.36331698035E+01  0.83236053238E+03  0.83337273974E+03  0.00000000000E+00 0.  1.
         12    1    5    5    0    0  0.59019656330E+02 -0.17163250003E+02  0.28642490441E+03  0.29294559709E+03  0.00000000000E+00 0. -1.
         11    1    3    3    0    0  0.53291176738E+01 -0.60424906531E+02 -0.18397047903E+03  0.19371294737E+03  0.00000000000E+00 0. -1.
        -12    1    3    3    0    0  0.18462044622E+02  0.29615619384E+02 -0.19267373782E+03  0.19580883854E+03  0.00000000000E+00 0.  1.
          5    1    4    4  501    0 -0.36036652731E+02 -0.38859118426E+02  0.11742481438E+03  0.12889814141E+03  0.41800000000E+01 0.  1.
         -5    1    4    4    0  501 -0.87674869491E+02  0.90464825380E+02  0.45810945776E+03  0.47513420742E+03  0.41800000000E+01 0.  1.
</event>
<event>
11    1  0.6455215E-009  0.1372976E+03  0.7561462E-02  0.1110614E+00
         22   -1    0    0    0    0  0.00000000000E+00  0.00000000000E+00  0.34679532860E+03  0.34679532860E+03  0.00000000000E+00 0.  1.
         22   -1    0    0    0    0 -0.00000000000E+00 -0.00000000000E+00 -0.12586991002E+04  0.12586991002E+04  0.00000000000E+00 0. -1.
         24    2    1    2    0    0  0.41508684224E+02 -0.33295289617E+02 -0.12113834755E+04  0.12152754109E+04  0.81319447049E+02 0.  0.
         25    2    1    2    0    0 -0.32854409685E+01  0.70727616474E+02  0.19849623020E+03  0.24507751862E+03  0.12509615052E+03 0.  0.
        -24    2    1    2    0    0 -0.38223243256E+02 -0.37432326857E+02  0.10098347369E+03  0.14514149928E+03  0.89477357104E+02 0.  0.
        -13    1    3    3    0    0  0.14486456688E+02  0.26588957818E+02 -0.29886737932E+03  0.30039730446E+03  0.00000000000E+00 0.  1.
         14    1    3    3    0    0  0.27022227536E+02 -0.59884247435E+02 -0.91251609618E+03  0.91487810645E+03  0.00000000000E+00 0. -1.
         13    1    5    5    0    0 -0.38272745056E+02 -0.53058740325E+02  0.29140030415E+02  0.71618254039E+02  0.00000000000E+00 0. -1.
        -14    1    5    5    0    0  0.49501800471E-01  0.15626413468E+02  0.71843443276E+02  0.73523245236E+02  0.00000000000E+00 0.  1.
          5    1    4    4  501    0 -0.44979314112E+01  0.83482513686E+02  0.53255403989E+02  0.99212760935E+02  0.41800000000E+01 0.  1.
         -5    1    4    4    0  501  0.12124904427E+01 -0.12754897212E+02  0.14524082621E+03  0.14586475768E+03  0.41800000000E+01 0.  1.
</event>
<event>
11    1  0.6455215E-009  0.1415802E+03  0.7561462E-02  0.1105807E+00
         22   -1    0    0    0    0  0.00000000000E+00  0.00000000000E+00  0.51774998873E+03  0.51774998873E+03  0.00000000000E+00 0.  1.
         22   -1    0    0    0    0 -0.00000000000E+00 -0.00000000000E+00 -0.39110319060E+03  0.39110319060E+03  0.00000000000E+00 0. -1.
         24    2    1    2    0    0 -0.35282984026E+02 -0.10152533568E+02 -0.35343856431E+03  0.36209163882E+03  0.69595784783E+02 0.  0.
         25    2    1    2    0    0 -0.17933297552E+02  0.59265893151E+02  0.21310460927E+03  0.25474312774E+03  0.12508572016E+03 0.  0.
        -24    2    1    2    0    0  0.53216281578E+02 -0.49113359583E+02  0.26698075317E+03  0.29201841277E+03  0.93551783087E+02 0.  0.
        -11    1    3    3    0    0 -0.24536204456E+02  0.14253801472E+02 -0.50058151201E+02  0.57541417146E+02  0.00000000000E+00 0.  1.
         12    1    3    3    0    0 -0.10746779570E+02 -0.24406335040E+02 -0.30338041311E+03  0.30455022167E+03  0.00000000000E+00 0. -1.
         11    1    5    5    0    0  0.32503804267E+02 -0.76046308809E+02  0.20970377963E+03  0.22542230051E+03  0.00000000000E+00 0. -1.
        -12    1    5    5    0    0  0.20712477311E+02  0.26932949226E+02  0.57276973534E+02  0.66596112256E+02  0.00000000000E+00 0.  1.
          5    1    4    4  501    0 -0.42002223214E+02  0.11944784328E+02  0.10296376080E+02  0.45059431731E+02  0.41800000000E+01 0.  1.
         -5    1    4    4    0  501  0.24068925662E+02  0.47321108823E+02  0.20280823319E+03  0.20968369601E+03  0.41800000000E+01 0.  1.
</event>
<event>
11    1  0.6455215E-009  0.1477178E+03  0.7561462E-02  0.1099234E+00
         22   -1    0    0    0    0  0.00000000000E+00  0.00000000000E+00  0.17953562764E+04  0.17953562764E+04  0.00000000000E+00 0.  1.
         22   -1    0    0    0    0 -0.00000000000E+00 -0.00000000000E+00 -0.17005956548E+03  0.17005956548E+03  0.00000000000E+00 0.  1.
         24    2    1    2    0    0 -0.21920494072E+02  0.34990566739E+02 -0.14106975211E+03  0.16723810732E+03  0.79768801905E+02 0.  0.
         25    2    1    2    0    0  0.38553023630E+02  0.46078829834E+02  0.34013228322E+03  0.36735409153E+03  0.12509781887E+03 0.  0.
        -24    2    1    2    0    0 -0.16632529558E+02 -0.81069396573E+02  0.14262341798E+04  0.14308236431E+04  0.79142110797E+02 0.  0.
        -13    1    3    3    0    0 -0.15859474277E+02  0.57494221406E+02 -0.12622556924E+03  0.13960659995E+03  0.00000000000E+00 0.  1.
         14    1    3    3    0    0 -0.60610197945E+01 -0.22503654667E+02 -0.14844182870E+02  0.27631507367E+02  0.00000000000E+00 0. -1.
         11    1    5    5    0    0  0.21329836198E+01  0.13691296190E+01  0.49831007225E+00  0.25831081983E+01  0.00000000000E+00 0. -1.
        -12    1    5    5    0    0 -0.18765513178E+02 -0.82438526192E+02  0.14257358698E+04  0.14282405349E+04  0.00000000000E+00 0.  1.
          5    1    4    4  501    0  0.46609820653E+02  0.24184364147E+02  0.39632116352E+02  0.65920678827E+02  0.41800000000E+01 0. -1.
         -5    1    4    4    0  501 -0.80567970236E+01  0.21894465687E+02  0.30050016687E+03  0.30143341270E+03  0.41800000000E+01 0. -1.
</event>
<event>
11    1  0.6455215E-009  0.1925660E+03  0.7561462E-02  0.1059909E+00
         22   -1    0    0    0    0  0.00000000000E+00  0.00000000000E+00  0.12485093338E+04  0.12485093338E+04  0.00000000000E+00 0. -1.
         22   -1    0    0    0    0 -0.00000000000E+00 -0.00000000000E+00 -0.66667163842E+03  0.66667163842E+03  0.00000000000E+00 0. -1.
        -24    2    1    2    0    0 -0.65070503610E-01  0.14455077612E+03 -0.57015472314E+03  0.59352987987E+03  0.79412712239E+02 0.  0.
         25    2    1    2    0    0  0.22435362064E+02 -0.16746911039E+03  0.49776666287E+02  0.21603518579E+03  0.12507692267E+03 0.  0.
         24    2    1    2    0    0 -0.22370291560E+02  0.22918334266E+02  0.11022157523E+04  0.11056159066E+04  0.80506449387E+02 0.  0.
        -13    1    5    5    0    0 -0.10183754503E+02  0.36678736587E+02  0.22426051879E+03  0.22746828100E+03  0.00000000000E+00 0.  1.
         14    1    5    5    0    0 -0.12186537057E+02 -0.13760402321E+02  0.87795523349E+03  0.87814762561E+03  0.00000000000E+00 0. -1.
         11    1    3    3    0    0 -0.18459241945E+02  0.12225257696E+03 -0.34417106636E+03  0.36570501652E+03  0.00000000000E+00 0. -1.
        -12    1    3    3    0    0  0.18394171441E+02  0.22298199162E+02 -0.22598365678E+03  0.22782486335E+03  0.00000000000E+00 0.  1.
          5    1    4    4  501    0 -0.34088715024E+02 -0.38554388675E+02  0.54575217946E+02  0.75129276530E+02  0.41800000000E+01 0.  1.
         -5    1    4    4    0  501  0.56524077088E+02 -0.12891472171E+03 -0.47985516594E+01  0.14090590926E+03  0.41800000000E+01 0.  1.
</event>
<event>
11    1  0.6455215E-009  0.1662063E+03  0.7561462E-02  0.1081381E+00
         22   -1    0    0    0    0  0.00000000000E+00  0.00000000000E+00  0.53148032396E+03  0.53148032396E+03  0.00000000000E+00 0. -1.
         22   -1    0    0    0    0 -0.00000000000E+00 -0.00000000000E+00 -0.31349955005E+03  0.31349955005E+03  0.00000000000E+00 0. -1.
        -24    2    1    2    0    0  0.54270136624E+02 -0.93743057241E+02 -0.22876844340E+03  0.26607684278E+03  0.82029732780E+02 0.  0.
         25    2    1    2    0    0 -0.54247773698E+02  0.10320751551E+03  0.55269960736E+02  0.17971207927E+03  0.12508817157E+03 0.  0.
         24    2    1    2    0    0 -0.22362925176E-01 -0.94644582656E+01  0.39147925657E+03  0.39919095196E+03  0.77510201450E+02 0.  0.
        -13    1    5    5    0    0  0.29061527307E+02  0.54751958158E+01  0.69157957154E+02  0.75215511541E+02  0.00000000000E+00 0.  1.
         14    1    5    5    0    0 -0.29083890232E+02 -0.14939654081E+02  0.32232129942E+03  0.32397544041E+03  0.00000000000E+00 0. -1.
         13    1    3    3    0    0  0.88835598147E+01 -0.64851935109E+02 -0.18651081211E+03  0.19766379070E+03  0.00000000000E+00 0. -1.
        -14    1    3    3    0    0  0.45386576809E+02 -0.28891122132E+02 -0.42257631293E+02  0.68413052081E+02  0.00000000000E+00 0.  1.
          5    1    4    4  501    0 -0.89892444924E+02  0.47813623823E+02  0.16692587106E+02  0.10326136326E+03  0.41800000000E+01 0. -1.
         -5    1    4    4    0  501  0.35644671225E+02  0.55393891684E+02  0.38577373631E+02  0.76450716013E+02  0.41800000000E+01 0. -1.
</event>
<event>
11    1  0.6455215E-009  0.1350257E+03  0.7561462E-02  0.1113244E+00
         22   -1    0    0    0    0  0.00000000000E+00  0.00000000000E+00  0.32934852637E+03  0.32934852637E+03  0.00000000000E+00 0. -1.
         22   -1    0    0    0    0 -0.00000000000E+00 -0.00000000000E+00 -0.14703897165E+04  0.14703897165E+04  0.00000000000E+00 0.  1.
        -24    2    1    2    0    0  0.25590921512E+02  0.46717692210E+02 -0.12310107528E+04  0.12369901713E+04  0.10917770932E+03 0.  0.
         25    2    1    2    0    0  0.26984121052E+02 -0.50302786477E+02 -0.20828463750E+03  0.24957780605E+03  0.12509227770E+03 0.  0.
         24    2    1    2    0    0 -0.52575042564E+02  0.35850942667E+01  0.29825420018E+03  0.31317026556E+03  0.79643325539E+02 0.  0.
        -13    1    5    5    0    0  0.17922418153E+02 -0.88710448359E+01  0.34536712137E+02  0.39908557906E+02  0.00000000000E+00 0.  1.
         14    1    5    5    0    0 -0.70497460717E+02  0.12456139103E+02  0.26371748804E+03  0.27326170765E+03  0.00000000000E+00 0. -1.
         11    1    3    3    0    0  0.82990973292E+01  0.58588653872E+02 -0.30199560320E+03  0.30773828122E+03  0.00000000000E+00 0. -1.
        -12    1    3    3    0    0  0.17291824182E+02 -0.11870961662E+02 -0.92901514964E+03  0.92925189006E+03  0.00000000000E+00 0.  1.
          5    1    4    4  501    0 -0.37529899519E+02  0.86342750084E+01 -0.11654182851E+03  0.12281088818E+03  0.41800000000E+01 0.  1.
         -5    1    4    4    0  501  0.64514020571E+02 -0.58937061485E+02 -0.91742808991E+02  0.12676691788E+03  0.41800000000E+01 0.  1.
</event>
<event>
11    1  0.6455215E-009  0.1315466E+03  0.7561462E-02  0.1117383E+00
         22   -1    0    0    0    0  0.00000000000E+00  0.00000000000E+00  0.17854611566E+04  0.17854611566E+04  0.00000000000E+00 0. -1.
         22   -1    0    0    0    0 -0.00000000000E+00 -0.00000000000E+00 -0.66834954650E+02  0.66834954650E+02  0.00000000000E+00 0.  1.
        -24    2    1    2    0    0 -0.28526359070E+02 -0.55737699502E+02 -0.81418965434E+01  0.10246957073E+03  0.80704882988E+02 0.  0.
         25    2    1    2    0    0  0.95876570155E+00  0.64284670777E+01  0.44633516513E+03  0.46357761356E+03  0.12508748834E+03 0.  0.
         24    2    1    2    0    0  0.27567593369E+02  0.49309232424E+02  0.12804329334E+04  0.12862489270E+04  0.10833481747E+03 0.  0.
        -13    1    5    5    0    0  0.38490149583E+02  0.26217611458E+02  0.19384696946E+03  0.19936274059E+03  0.00000000000E+00 0.  1.
         14    1    5    5    0    0 -0.10922556214E+02  0.23091620966E+02  0.10865859639E+04  0.10868861864E+04  0.00000000000E+00 0. -1.
         13    1    3    3    0    0 -0.14454122070E+02  0.15349197117E+02 -0.19975022940E+02  0.29043433654E+02  0.00000000000E+00 0. -1.
        -14    1    3    3    0    0 -0.14072237000E+02 -0.71086896619E+02  0.11833126397E+02  0.73426137073E+02  0.00000000000E+00 0.  1.
          5    1    4    4  501    0 -0.59460273835E+02  0.54737392633E+01  0.28567437611E+03  0.29187806966E+03  0.41800000000E+01 0.  1.
         -5    1    4    4    0  501  0.60419039536E+02  0.95472781433E+00  0.16066078903E+03  0.17169954390E+03  0.41800000000E+01 0.  1.
</event>
<event>
11    1  0.6455215E-009  0.1292907E+03  0.7561462E-02  0.1120144E+00
         22   -1    0    0    0    0  0.00000000000E+00  0.00000000000E+00  0.14453489097E+03  0.14453489097E+03  0.00000000000E+00 0.  1.
         22   -1    0    0    0    0 -0.00000000000E+00 -0.00000000000E+00 -0.31900532350E+03  0.31900532350E+03  0.00000000000E+00 0.  1.
        -24    2    1    2    0    0  0.15644461096E+01  0.13086073301E+02 -0.16489277947E+03  0.18250012831E+03  0.77090695331E+02 0.  0.
         25    2    1    2    0    0  0.14978699572E+02 -0.39801300871E+02 -0.93459211934E+02  0.16183500182E+03  0.12508972191E+03 0.  0.
         24    2    1    2    0    0 -0.16543145682E+02  0.26715227570E+02  0.83881558863E+02  0.11920508434E+03  0.78653398929E+02 0.  0.
        -11    1    5    5    0    0  0.43671142902E+01 -0.75676590495E+01  0.78155359140E+02  0.78642236190E+02  0.00000000000E+00 0.  1.
         12    1    5    5    0    0 -0.20910259972E+02  0.34282886619E+02  0.57261997225E+01  0.40562848153E+02  0.00000000000E+00 0. -1.
         11    1    3    3    0    0  0.12035521740E+02  0.93519826810E+01  0.18799098742E+01  0.15357324792E+02  0.00000000000E+00 0. -1.
        -12    1    3    3    0    0 -0.10471075631E+02  0.37340906199E+01 -0.16677268934E+03  0.16714280352E+03  0.00000000000E+00 0.  1.
          5    1    4    4  501    0 -0.38049387494E+02  0.55438052098E+01  0.71455190832E+01  0.39332181580E+02  0.41800000000E+01 0.  1.
         -5    1    4    4    0  501  0.53028087066E+02 -0.45345106081E+02 -0.10060473102E+03  0.12250282024E+03  0.41800000000E+01 0.  1.
</event>
<event>
11    1  0.7136254E-009  0.1640424E+03  0.7561462E-02  0.1083336E+00
         22   -1    0    0    0    0  0.00000000000E+00  0.00000000000E+00  0.24699832561E+04  0.24699832561E+04  0.00000000000E+00 0.  1.
         22   -1    0    0    0    0 -0.00000000000E+00 -0.00000000000E+00 -0.14966740843E+03  0.14966740843E+03  0.00000000000E+00 0. -1.
        -24    2    1    2    0    0 -0.66574743583E+02  0.20347587719E+02 -0.59090234895E+02  0.12207127856E+03  0.81015556402E+02 0.  0.
         25    2    1    2    0    0  0.41117751708E+02 -0.12320471136E+03  0.85271727678E+02  0.19947786434E+03  0.12510028142E+03 0.  0.
         24    2    1    2    0    0  0.25456991875E+02  0.10285712364E+03  0.22941343549E+04  0.22981015216E+04  0.83609324370E+02 0.  0.
        -13    1    5    5    0    0 -0.70492881419E+01  0.10125971783E+03  0.16136912592E+04  0.16168805469E+04  0.00000000000E+00 0.  1.
         14    1    5    5    0    0  0.32506280017E+02  0.15974058155E+01  0.68044309566E+03  0.68122097470E+03  0.00000000000E+00 0. -1.
         11    1    3    3    0    0 -0.19597166554E+02  0.13768389271E+02 -0.69496081424E+02  0.73507297688E+02  0.00000000000E+00 0. -1.
        -12    1    3    3    0    0 -0.46977577029E+02  0.65791984475E+01  0.10405846529E+02  0.48563980868E+02  0.00000000000E+00 0.  1.
          5    1    4    4  501    0 -0.36058880330E+01  0.13516867215E+02 -0.17386135547E+02  0.22703705360E+02  0.41800000000E+01 0.  1.
         -5    1    4    4    0  501  0.44723639741E+02 -0.13672157857E+03  0.10265786322E+03  0.17677415898E+03  0.41800000000E+01 0.  1.
</event>
<event>
11    1  0.6455215E-009  0.1628767E+03  0.7561462E-02  0.1084402E+00
         22   -1    0    0    0    0  0.00000000000E+00  0.00000000000E+00  0.10085762400E+03  0.10085762400E+03  0.00000000000E+00 0. -1.
         22   -1    0    0    0    0 -0.00000000000E+00 -0.00000000000E+00 -0.12298725556E+04  0.12298725556E+04  0.00000000000E+00 0. -1.
         24    2    1    2    0    0 -0.20892147990E+02 -0.25239297199E+02 -0.77825064949E+03  0.78260783831E+03  0.75679925880E+02 0.  0.
         25    2    1    2    0    0  0.32665033417E+02 -0.81132750556E+02 -0.38099459092E+03  0.41042589714E+03  0.12507202372E+03 0.  0.
        -24    2    1    2    0    0 -0.11772885426E+02  0.10637204775E+03  0.30230308763E+02  0.13769644419E+03  0.81196217892E+02 0.  0.
        -13    1    3    3    0    0 -0.12328622907E+02 -0.21700044540E+01 -0.17810508275E+02  0.21769659325E+02  0.00000000000E+00 0.  1.
         14    1    3    3    0    0 -0.85635250835E+01 -0.23069292745E+02 -0.76044014121E+03  0.76083817898E+03  0.00000000000E+00 0. -1.
         11    1    5    5    0    0 -0.41219119562E+02  0.93519542425E+02  0.22369188525E+02  0.10461979367E+03  0.00000000000E+00 0. -1.
        -12    1    5    5    0    0  0.29446234136E+02  0.12852505330E+02  0.78611202380E+01  0.33076650517E+02  0.00000000000E+00 0.  1.
          5    1    4    4  501    0 -0.38100815927E+01 -0.57290877014E+02 -0.35473869243E+03  0.35937970675E+03  0.41800000000E+01 0. -1.
         -5    1    4    4    0  501  0.36475115009E+02 -0.23841873543E+02 -0.26255898482E+02  0.51046190397E+02  0.41800000000E+01 0. -1.
</event>
<event>
11    1  0.6455215E-009  0.1402579E+03  0.7561462E-02  0.1107271E+00
         22   -1    0    0    0    0  0.00000000000E+00  0.00000000000E+00  0.50048561496E+02  0.50048561496E+02  0.00000000000E+00 0. -1.
         22   -1    0    0    0    0 -0.00000000000E+00 -0.00000000000E+00 -0.16921501157E+04  0.16921501157E+04  0.00000000000E+00 0.  1.
         24    2    1    2    0    0 -0.51852246295E+02  0.25477238054E+02 -0.10212523135E+04  0.10261547625E+04  0.81850862583E+02 0.  0.
         25    2    1    2    0    0  0.71782951352E+02 -0.46101929442E+02 -0.60995657346E+03  0.62846703991E+03  0.12508244778E+03 0.  0.
        -24    2    1    2    0    0 -0.19930705056E+02  0.20624691388E+02 -0.10892667330E+02  0.87576874854E+02  0.82027116911E+02 0.  0.
        -11    1    3    3    0    0 -0.65272454228E+02  0.41567320206E+02 -0.87402813444E+03  0.87744715805E+03  0.00000000000E+00 0.  1.
         12    1    3    3    0    0  0.13420207933E+02 -0.16090082153E+02 -0.14722417902E+03  0.14870760442E+03  0.00000000000E+00 0. -1.
         13    1    5    5    0    0 -0.43022269423E+02  0.18487775413E+02  0.18316485621E+02  0.50281280329E+02  0.00000000000E+00 0. -1.
        -14    1    5    5    0    0  0.23091564367E+02  0.21369159757E+01 -0.29209152952E+02  0.37295594525E+02  0.00000000000E+00 0.  1.
          5    1    4    4  501    0 -0.18190264815E+02  0.26983770184E+02 -0.91817648751E+02  0.97503654340E+02  0.41800000000E+01 0. -1.
         -5    1    4    4    0  501  0.89973216166E+02 -0.73085699626E+02 -0.51813892471E+03  0.53096338557E+03  0.41800000000E+01 0. -1.
</event>
<event>
11    1  0.6455215E-009  0.2314245E+03  0.7561462E-02  0.1034288E+00
         22   -1    0    0    0    0  0.00000000000E+00  0.00000000000E+00  0.18898375824E+03  0.18898375824E+03  0.00000000000E+00 0.  1.
         22   -1    0    0    0    0 -0.00000000000E+00 -0.00000000000E+00 -0.20259167576E+04  0.20259167576E+04  0.00000000000E+00 0. -1.
        -24    2    1    2    0    0 -0.12461077946E+02  0.18208706358E+03 -0.14556365847E+04  0.14692948843E+04  0.81477685772E+02 0.  0.
         25    2    1    2    0    0 -0.20624046447E+02 -0.27038619976E+03 -0.49495795838E+03  0.57806955512E+03  0.12508789582E+03 0.  0.
         24    2    1    2    0    0  0.33085124394E+02  0.88299136171E+02  0.11366154375E+03  0.16753607633E+03  0.79107695192E+02 0.  0.
        -11    1    5    5    0    0  0.30370408097E+02  0.65882281013E+02  0.12324090035E+03  0.14300753882E+03  0.00000000000E+00 0.  1.
         12    1    5    5    0    0  0.27147162963E+01  0.22416855158E+02 -0.95793565951E+01  0.24528537513E+02  0.00000000000E+00 0. -1.
         11    1    3    3    0    0 -0.82678332325E+01  0.19018511591E+03 -0.13671809429E+04  0.13803704090E+04  0.00000000000E+00 0. -1.
        -12    1    3    3    0    0 -0.41932447140E+01 -0.80980523236E+01 -0.88455641819E+02  0.88924475384E+02  0.00000000000E+00 0.  1.
          5    1    4    4  501    0 -0.46414474460E+01 -0.23068826487E+03 -0.47991289598E+03  0.53251523801E+03  0.41800000000E+01 0.  1.
         -5    1    4    4    0  501 -0.15982599001E+02 -0.39697934883E+02 -0.15045062406E+02  0.45554317113E+02  0.41800000000E+01 0.  1.
</event>
<event>
11    1  0.6455215E-009  0.1632142E+03  0.7561462E-02  0.1084093E+00
         22   -1    0    0    0    0  0.00000000000E+00  0.00000000000E+00  0.19550662568E+04  0.19550662568E+04  0.00000000000E+00 0. -1.
         22   -1    0    0    0    0 -0.00000000000E+00 -0.00000000000E+00 -0.14131882843E+03  0.14131882843E+03  0.00000000000E+00 0. -1.
         24    2    1    2    0    0 -0.76080687317E+02 -0.72810870565E+02 -0.97094191180E+02  0.16485197754E+03  0.81603913411E+02 0.  0.
         25    2    1    2    0    0  0.84672763987E+02  0.48555667006E+02  0.70154401935E+03  0.71926365420E+03  0.12509621658E+03 0.  0.
        -24    2    1    2    0    0 -0.85920766706E+01  0.24255203560E+02  0.12092976002E+04  0.12122694535E+04  0.80835656340E+02 0.  0.
        -13    1    3    3    0    0  0.17170624044E+02 -0.48982795517E+01 -0.13684572001E+02  0.22496466022E+02  0.00000000000E+00 0.  1.
         14    1    3    3    0    0 -0.93251311361E+02 -0.67912591013E+02 -0.83409619179E+02  0.14235551152E+03  0.00000000000E+00 0. -1.
         11    1    5    5    0    0  0.35746585038E+02  0.18015765404E+02  0.58612884608E+03  0.58749417899E+03  0.00000000000E+00 0. -1.
        -12    1    5    5    0    0 -0.44338661709E+02  0.62394381552E+01  0.62316875408E+03  0.62477527446E+03  0.00000000000E+00 0.  1.
          5    1    4    4  501    0  0.72967273810E+02  0.69218437875E+02  0.67844458472E+03  0.68587166593E+03  0.41800000000E+01 0.  1.
         -5    1    4    4    0  501  0.11705490177E+02 -0.20662770869E+02  0.23099434632E+02  0.33391988270E+02  0.41800000000E+01 0.  1.
</event>
<event>
11    1  0.6455215E-009  0.1537248E+03  0.7561462E-02  0.1093132E+00
         22   -1    0    0    0    0  0.00000000000E+00  0.00000000000E+00  0.41601865396E+03  0.41601865396E+03  0.00000000000E+00 0. -1.
         22   -1    0    0    0    0 -0.00000000000E+00 -0.00000000000E+00 -0.16860567988E+04  0.16860567988E+04  0.00000000000E+00 0.  1.
        -24    2    1    2    0    0  0.47195137953E+02 -0.34021861155E+02 -0.13450267977E+04  0.13489110785E+04  0.84137643013E+02 0.  0.
         25    2    1    2    0    0 -0.74650241062E+02  0.11772277550E+03 -0.30348349872E+03  0.35662597721E+03  0.12509413759E+03 0.  0.
         24    2    1    2    0    0  0.27455103109E+02 -0.83700914350E+02  0.37847215163E+03  0.39653839704E+03  0.79005727723E+02 0.  0.
        -13    1    5    5    0    0 -0.59898917724E+01  0.82338794029E+01  0.11568371746E+03  0.11613095220E+03  0.00000000000E+00 0.  1.
         14    1    5    5    0    0  0.33444994881E+02 -0.91934793752E+02  0.26278843417E+03  0.28040744484E+03  0.00000000000E+00 0. -1.
         13    1    3    3    0    0  0.63566066615E+02 -0.23842626124E+02 -0.63429895719E+03  0.63792184689E+03  0.00000000000E+00 0. -1.
        -14    1    3    3    0    0 -0.16370928662E+02 -0.10179235031E+02 -0.71072784053E+03  0.71098923159E+03  0.00000000000E+00 0.  1.
          5    1    4    4  501    0  0.42474781759E+01 -0.21396626253E+02 -0.71139615458E+02  0.74526330739E+02  0.41800000000E+01 0.  1.
         -5    1    4    4    0  501 -0.78897719238E+02  0.13911940176E+03 -0.23234388326E+03  0.28209964647E+03  0.41800000000E+01 0.  1.
</event>
<event>
11    1  0.6455215E-009  0.1397726E+03  0.7561462E-02  0.1107813E+00
         22   -1    0    0    0    0  0.00000000000E+00  0.00000000000E+00  0.15701853997E+03  0.15701853997E+03  0.00000000000E+00 0.  1.
         22   -1    0    0    0    0 -0.00000000000E+00 -0.00000000000E+00 -0.14993235686E+04  0.14993235686E+04  0.00000000000E+00 0. -1.
        -24    2    1    2    0    0  0.21382290094E+02 -0.19857645487E+02 -0.13094937973E+04  0.13122602561E+04  0.80009037504E+02 0.  0.
         25    2    1    2    0    0 -0.81354191578E+02  0.22063968039E+02 -0.13495201669E+03  0.20239713172E+03  0.12508888418E+03 0.  0.
         24    2    1    2    0    0  0.59971901484E+02 -0.22063225528E+01  0.10214078537E+03  0.14168472076E+03  0.77719516429E+02 0.  0.
        -13    1    5    5    0    0  0.65077105523E+02  0.21582149627E+02  0.52335553200E+02  0.86254443216E+02  0.00000000000E+00 0.  1.
         14    1    5    5    0    0 -0.51052040394E+01 -0.23788472180E+02  0.49805232173E+02  0.55430277546E+02  0.00000000000E+00 0. -1.
         13    1    3    3    0    0  0.33468917854E+02 -0.45686526550E+02 -0.85994486722E+03  0.86180775224E+03  0.00000000000E+00 0. -1.
        -14    1    3    3    0    0 -0.12086627760E+02  0.25828881063E+02 -0.44954893007E+03  0.45045250382E+03  0.00000000000E+00 0.  1.
          5    1    4    4  501    0 -0.11043883311E+03  0.85730751878E+01 -0.12799711475E+03  0.16932503436E+03  0.41800000000E+01 0.  1.
         -5    1    4    4    0  501  0.29084641528E+02  0.13490892852E+02 -0.69549019350E+01  0.33072097358E+02  0.41800000000E+01 0.  1.
</event>
<event>
11    1  0.6455215E-009  0.1471975E+03  0.7561462E-02  0.1099777E+00
         22   -1    0    0    0    0  0.00000000000E+00  0.00000000000E+00  0.73041593294E+03  0.73041593294E+03  0.00000000000E+00 0. -1.
         22   -1    0    0    0    0 -0.00000000000E+00 -0.00000000000E+00 -0.38525041048E+03  0.38525041048E+03  0.00000000000E+00 0. -1.
         24    2    1    2    0    0 -0.20219232493E+02  0.37912185259E+02 -0.34927341328E+03  0.36078222749E+03  0.79534566665E+02 0.  0.
         25    2    1    2    0    0 -0.41442220845E+02 -0.82094458806E+02  0.22971408223E+03  0.27725703894E+03  0.12508376487E+03 0.  0.
        -24    2    1    2    0    0  0.61661453338E+02  0.44182273546E+02  0.46472485351E+03  0.47762707699E+03  0.80026414894E+02 0.  0.
        -13    1    3    3    0    0 -0.36450338021E+02  0.87038834074E+01 -0.29260918893E+03  0.29499919012E+03  0.00000000000E+00 0.  1.
         14    1    3    3    0    0  0.16231105528E+02  0.29208301852E+02 -0.56664224351E+02  0.65783037366E+02  0.00000000000E+00 0. -1.
         13    1    5    5    0    0 -0.52325741153E+01 -0.71689500617E+01  0.19099677327E+03  0.19120287936E+03  0.00000000000E+00 0. -1.
        -14    1    5    5    0    0  0.66894027453E+02  0.51351223608E+02  0.27372808024E+03  0.28642419763E+03  0.00000000000E+00 0.  1.
          5    1    4    4  501    0 -0.53453208604E+02 -0.70470663452E+02  0.24093803240E+03  0.25669430802E+03  0.41800000000E+01 0.  1.
         -5    1    4    4    0  501  0.12010987759E+02 -0.11623795354E+02 -0.11223950167E+02  0.20562730916E+02  0.41800000000E+01 0.  1.
</event>
<event>
11    1  0.6455215E-009  0.1354428E+03  0.7561462E-02  0.1112757E+00
         22   -1    0    0    0    0  0.00000000000E+00  0.00000000000E+00  0.18508989259E+03  0.18508989259E+03  0.00000000000E+00 0.  1.
         22   -1    0    0    0    0 -0.00000000000E+00 -0.00000000000E+00 -0.36713988103E+03  0.36713988103E+03  0.00000000000E+00 0. -1.
        -24    2    1    2    0    0  0.32278835959E+02  0.39474244209E+01 -0.20097792785E+03  0.21899764134E+03  0.80686640873E+02 0.  0.
         25    2    1    2    0    0 -0.73846658090E+02  0.22490717492E+02 -0.10228953628E+03  0.17907892868E+03  0.12508777790E+03 0.  0.
         24    2    1    2    0    0  0.41567822131E+02 -0.26438141912E+02  0.12121747571E+03  0.15415320360E+03  0.81502604744E+02 0.  0.
        -11    1    5    5    0    0  0.65236013918E+02 -0.10551783560E+02  0.92589871096E+02  0.11375395324E+03  0.00000000000E+00 0.  1.
         12    1    5    5    0    0 -0.23668191787E+02 -0.15886358353E+02  0.28627604609E+02  0.40399250362E+02  0.00000000000E+00 0. -1.
         11    1    3    3    0    0  0.14436267257E+01 -0.14524592257E+02 -0.17255996984E+03  0.17317618494E+03  0.00000000000E+00 0. -1.
        -12    1    3    3    0    0  0.30835209233E+02  0.18472016678E+02 -0.28417958012E+02  0.45821456396E+02  0.00000000000E+00 0.  1.
          5    1    4    4  501    0 -0.10725905992E+03  0.13853772317E+02 -0.93973953304E+02  0.14333530354E+03  0.41800000000E+01 0. -1.
         -5    1    4    4    0  501  0.33412401828E+02  0.86369451747E+01 -0.83155829803E+01  0.35743625141E+02  0.41800000000E+01 0. -1.
</event>
<event>
11    1  0.6455215E-009  0.1417912E+03  0.7561462E-02  0.1105575E+00
         22   -1    0    0    0    0  0.00000000000E+00  0.00000000000E+00  0.65838311439E+03  0.65838311439E+03  0.00000000000E+00 0.  1.
         22   -1    0    0    0    0 -0.00000000000E+00 -0.00000000000E+00 -0.46130688076E+03  0.46130688076E+03  0.00000000000E+00 0. -1.
         24    2    1    2    0    0  0.66113883674E+02 -0.13408926012E+02 -0.37350761218E+03  0.38811698238E+03  0.81092605944E+02 0.  0.
         25    2    1    2    0    0 -0.57711731605E+02  0.20905434179E+02 -0.14476874690E+02  0.14008784122E+03  0.12508933693E+03 0.  0.
        -24    2    1    2    0    0 -0.84021520697E+01 -0.74965081666E+01  0.58506072050E+03  0.59148517154E+03  0.86208280832E+02 0.  0.
        -11    1    3    3    0    0  0.16664469116E+02  0.63044647302E+01 -0.94120875167E+01  0.20150389522E+02  0.00000000000E+00 0.  1.
         12    1    3    3    0    0  0.49449414558E+02 -0.19713390742E+02 -0.36409552467E+03  0.36796659286E+03  0.00000000000E+00 0. -1.
         11    1    5    5    0    0 -0.13683923797E+02  0.92139717506E+00  0.11669001102E+02  0.18007341002E+02  0.00000000000E+00 0. -1.
        -12    1    5    5    0    0  0.52817717276E+01 -0.84179053417E+01  0.57339171940E+03  0.57347783054E+03  0.00000000000E+00 0.  1.
          5    1    4    4  501    0 -0.16566090877E+02 -0.35908864686E+02  0.35939349556E+02  0.53600290825E+02  0.41800000000E+01 0. -1.
         -5    1    4    4    0  501 -0.41145640727E+02  0.56814298865E+02 -0.50416224246E+02  0.86487550396E+02  0.41800000000E+01 0. -1.
</event>
<event>
11    1  0.6455215E-009  0.1533122E+03  0.7561462E-02  0.1093542E+00
         22   -1    0    0    0    0  0.00000000000E+00  0.00000000000E+00  0.78141531905E+03  0.78141531905E+03  0.00000000000E+00 0.  1.
         22   -1    0    0    0    0 -0.00000000000E+00 -0.00000000000E+00 -0.50643414952E+03  0.50643414952E+03  0.00000000000E+00 0.  1.
        -24    2    1    2    0    0  0.35946366424E+01 -0.83464229551E+02 -0.37348379738E+03  0.39146819867E+03  0.82328638036E+02 0.  0.
         25    2    1    2    0    0  0.24679004629E+02  0.12719802764E+03 -0.53967057363E+02  0.18801266513E+03  0.12509167625E+03 0.  0.
         24    2    1    2    0    0 -0.28273641271E+02 -0.43733798085E+02  0.70243202428E+03  0.70836860476E+03  0.75254817743E+02 0.  0.
        -11    1    5    5    0    0 -0.40438662630E+01 -0.60479390070E+02  0.40988199253E+03  0.41433966414E+03  0.00000000000E+00 0.  1.
         12    1    5    5    0    0 -0.24229775008E+02  0.16745591985E+02  0.29255003175E+03  0.29402894062E+03  0.00000000000E+00 0. -1.
         13    1    3    3    0    0 -0.12915950093E+02 -0.23972411404E+02 -0.23165943813E+02  0.35751352814E+02  0.00000000000E+00 0. -1.
        -14    1    3    3    0    0  0.16510586735E+02 -0.59491818148E+02 -0.35031785357E+03  0.35571684586E+03  0.00000000000E+00 0.  1.
          5    1    4    4  501    0  0.38349529958E+02  0.22172361535E+02  0.29255490941E+02  0.53250879938E+02  0.41800000000E+01 0.  1.
         -5    1    4    4    0  501 -0.13670525329E+02  0.10502566610E+03 -0.83222548305E+02  0.13476178520E+03  0.41800000000E+01 0.  1.
</event>
<event>
11    1  0.6455215E-009  0.1679735E+03  0.7561462E-02  0.1079809E+00
         22   -1    0    0    0    0  0.00000000000E+00  0.00000000000E+00  0.39296918262E+03  0.39296918262E+03  0.00000000000E+00 0.  1.
         22   -1    0    0    0    0 -0.00000000000E+00 -0.00000000000E+00 -0.27678297482E+03  0.27678297482E+03  0.00000000000E+00 0. -1.
         24    2    1    2    0    0  0.65050455105E+02  0.15594303651E+02 -0.18318901446E+03  0.21119181170E+03  0.81049505194E+02 0.  0.
         25    2    1    2    0    0 -0.11790636449E+03 -0.10043778092E+03  0.10414441331E+03  0.22468449898E+03  0.12508959444E+03 0.  0.
        -24    2    1    2    0    0  0.52855909382E+02  0.84843477272E+02  0.19523080895E+03  0.23387584676E+03  0.81183004012E+02 0.  0.
        -13    1    3    3    0    0  0.73810373480E+02  0.17707287745E+02 -0.90726521869E+02  0.11829125514E+03  0.00000000000E+00 0.  1.
         14    1    3    3    0    0 -0.87599183743E+01 -0.21129840939E+01 -0.92462492593E+02  0.92900556555E+02  0.00000000000E+00 0. -1.
         11    1    5    5    0    0  0.12027363788E+01  0.20147082710E+02 -0.16969671881E+01  0.20254165353E+02  0.00000000000E+00 0. -1.
        -12    1    5    5    0    0  0.51653173003E+02  0.64696394562E+02  0.19692777614E+03  0.21362168140E+03  0.00000000000E+00 0.  1.
          5    1    4    4  501    0 -0.52627861194E+02 -0.10077779247E+03  0.15952737049E+02  0.11488175420E+03  0.41800000000E+01 0.  1.
         -5    1    4    4    0  501 -0.65278503293E+02  0.34001154621E+00  0.88191676260E+02  0.10980274478E+03  0.41800000000E+01 0.  1.
</event>
<event>
11    1  0.6455215E-009  0.1366987E+03  0.7561462E-02  0.1111302E+00
         22   -1    0    0    0    0  0.00000000000E+00  0.00000000000E+00  0.11205755463E+04  0.11205755463E+04  0.00000000000E+00 0. -1.
         22   -1    0    0    0    0 -0.00000000000E+00 -0.00000000000E+00 -0.65887092769E+03  0.65887092769E+03  0.00000000000E+00 0.  1.
        -24    2    1    2    0    0 -0.33747053596E+02  0.31908397983E+02 -0.59566395421E+03  0.60281116346E+03  0.80054624878E+02 0.  0.
         25    2    1    2    0    0 -0.21928378535E+02 -0.21358933856E+02  0.15123047601E+02  0.12966628509E+03  0.12509029171E+03 0.  0.
         24    2    1    2    0    0  0.55675432131E+02 -0.10549464128E+02  0.10422455252E+04  0.10469690254E+04  0.81592649479E+02 0.  0.
        -11    1    5    5    0    0  0.40797164717E+02 -0.44141079900E+02  0.52734089071E+03  0.53075536606E+03  0.00000000000E+00 0.  1.
         12    1    5    5    0    0  0.14878267414E+02  0.33591615772E+02  0.51490463451E+03  0.51621365938E+03  0.00000000000E+00 0. -1.
         11    1    3    3    0    0 -0.27146741683E+02 -0.21950731250E+02 -0.31674010440E+03  0.31865824001E+03  0.00000000000E+00 0. -1.
        -12    1    3    3    0    0 -0.66003119133E+01  0.53859129233E+02 -0.27892384981E+03  0.28415292346E+03  0.00000000000E+00 0.  1.
          5    1    4    4  501    0 -0.47899343133E+02  0.27335453691E+02 -0.25607282740E+02  0.60948990397E+02  0.41800000000E+01 0. -1.
         -5    1    4    4    0  501  0.25970964598E+02 -0.48694387547E+02  0.40730330341E+02  0.68717294697E+02  0.41800000000E+01 0. -1.
</event>
<event>
11    1  0.6455215E-009  0.3337037E+03  0.7561462E-02  0.9868567E-01
         22   -1    0    0    0    0  0.00000000000E+00  0.00000000000E+00  0.40259199021E+03  0.40259199021E+03  0.00000000000E+00 0.  1.
         22   -1    0    0    0    0 -0.00000000000E+00 -0.00000000000E+00 -0.20134644840E+04  0.20134644840E+04  0.00000000000E+00 0.  1.
        -24    2    1    2    0    0  0.28750694912E+03  0.12160754688E+03 -0.18770051323E+04  0.19043824984E+04  0.77947368072E+02 0.  0.
         25    2    1    2    0    0 -0.25660062174E+03 -0.82838222632E+02  0.87648053645E+02  0.30990332807E+03  0.12510731885E+03 0.  0.
         24    2    1    2    0    0 -0.30906327379E+02 -0.38769324244E+02  0.17848458489E+03  0.20177064774E+03  0.79977407253E+02 0.  0.
        -13    1    5    5    0    0 -0.19383006356E+02 -0.52028527409E+02  0.17534514224E+03  0.18392549444E+03  0.00000000000E+00 0.  1.
         14    1    5    5    0    0 -0.11523321023E+02  0.13259203165E+02  0.31394426531E+01  0.17845153296E+02  0.00000000000E+00 0. -1.
         11    1    3    3    0    0  0.51770662517E+02 -0.79386689992E+01 -0.27280429884E+03  0.27778662572E+03  0.00000000000E+00 0. -1.
        -12    1    3    3    0    0  0.23573628661E+03  0.12954621588E+03 -0.16042008334E+04  0.16265958726E+04  0.00000000000E+00 0.  1.
          5    1    4    4  501    0 -0.88202056863E+02  0.30353591710E+02  0.16334698630E+02  0.94790496064E+02  0.41800000000E+01 0.  1.
         -5    1    4    4    0  501 -0.16839856488E+03 -0.11319181434E+03  0.71313355015E+02  0.21511283200E+03  0.41800000000E+01 0.  1.
</event>
<event>
11    1  0.6455215E-009  0.1454773E+03  0.7561462E-02  0.1101592E+00
         22   -1    0    0    0    0  0.00000000000E+00  0.00000000000E+00  0.45951294898E+03  0.45951294898E+03  0.00000000000E+00 0. -1.
         22   -1    0    0    0    0 -0.00000000000E+00 -0.00000000000E+00 -0.59814977021E+03  0.59814977021E+03  0.00000000000E+00 0. -1.
        -24    2    1    2    0    0 -0.27747303671E+02 -0.20473695627E+01 -0.52268200657E+03  0.52922283936E+03  0.78142364446E+02 0.  0.
         25    2    1    2    0    0  0.60500306904E+02  0.66920805589E+02  0.28004259021E+02  0.15674934426E+03  0.12508971599E+03 0.  0.
         24    2    1    2    0    0 -0.32753003234E+02 -0.64873436027E+02  0.35604092633E+03  0.37169053558E+03  0.78149799082E+02 0.  0.
        -13    1    5    5    0    0 -0.56542917962E+02 -0.29543380746E+02  0.19899092020E+03  0.20896722049E+03  0.00000000000E+00 0.  1.
         14    1    5    5    0    0  0.23789914728E+02 -0.35330055281E+02  0.15705000613E+03  0.16272331509E+03  0.00000000000E+00 0. -1.
         13    1    3    3    0    0 -0.55053351299E+02  0.31225061773E+01 -0.34277988616E+03  0.34718679682E+03  0.00000000000E+00 0. -1.
        -14    1    3    3    0    0  0.27306047628E+02 -0.51698757400E+01 -0.17990212042E+03  0.18203604254E+03  0.00000000000E+00 0.  1.
          5    1    4    4  501    0 -0.38265840879E+02  0.28756250233E+02  0.12567857866E+02  0.49665077841E+02  0.41800000000E+01 0.  1.
         -5    1    4    4    0  501  0.98766147783E+02  0.38164555357E+02  0.15436401155E+02  0.10708426642E+03  0.41800000000E+01 0.  1.
</event>
<event>
11    1  0.6544418E-009  0.1567579E+03  0.7561462E-02  0.1090167E+00
         22   -1    0    0    0    0  0.00000000000E+00  0.00000000000E+00  0.39647911549E+03  0.39647911549E+03  0.00000000000E+00 0. -1.
         22   -1    0    0    0    0 -0.00000000000E+00 -0.00000000000E+00 -0.82939267899E+03  0.82939267899E+03  0.00000000000E+00 0.  1.
        -24    2    1    2    0    0 -0.11159352921E+03  0.35602672876E+02 -0.61568397121E+03  0.63191433819E+03  0.80797972303E+02 0.  0.
         25    2    1    2    0    0  0.23315723034E+02 -0.32678597159E+02 -0.17384005119E+03  0.21789702331E+03  0.12508891125E+03 0.  0.
         24    2    1    2    0    0  0.88277806172E+02 -0.29240757165E+01  0.35661045890E+03  0.37606043297E+03  0.80305096763E+02 0.  0.
        -11    1    5    5    0    0 -0.15019611258E+02  0.47982596707E+01  0.44710971760E+02  0.47409735434E+02  0.00000000000E+00 0.  1.
         12    1    5    5    0    0  0.10329741743E+03 -0.77223353872E+01  0.31189948714E+03  0.32865069754E+03  0.00000000000E+00 0. -1.
         11    1    3    3    0    0 -0.52729379885E+02  0.50564269333E+02 -0.22569515384E+03  0.23722444078E+03  0.00000000000E+00 0. -1.
        -12    1    3    3    0    0 -0.58864149321E+02 -0.14961596458E+02 -0.38998881738E+03  0.39468989742E+03  0.00000000000E+00 0.  1.
          5    1    4    4  501    0 -0.44582748552E+02  0.63334361825E+01 -0.10187272939E+03  0.11145967556E+03  0.41800000000E+01 0.  1.
         -5    1    4    4    0  501  0.67898471586E+02 -0.39012033342E+02 -0.71967321800E+02  0.10643734775E+03  0.41800000000E+01 0.  1.
</event>
<event>
11    1  0.6455215E-009  0.1369372E+03  0.7561462E-02  0.1111027E+00
         22   -1    0    0    0    0  0.00000000000E+00  0.00000000000E+00  0.20004810085E+04  0.20004810085E+04  0.00000000000E+00 0. -1.
         22   -1    0    0    0    0 -0.00000000000E+00 -0.00000000000E+00 -0.17199380222E+03  0.17199380222E+03  0.00000000000E+00 0.  1.
        -24    2    1    2    0    0 -0.35339700922E+02 -0.43519719426E+02 -0.14629630226E+03  0.17597384714E+03  0.80133179040E+02 0.  0.
         25    2    1    2    0    0 -0.17441239488E+01  0.82597544669E+02  0.60788258160E+03  0.62608936136E+03  0.12506501921E+03 0.  0.
         24    2    1    2    0    0  0.37083824871E+02 -0.39077825243E+02  0.13669009270E+04  0.13704116022E+04  0.81899505294E+02 0.  0.
        -13    1    5    5    0    0  0.25042802055E+01 -0.21713920649E+02  0.80092252741E+02  0.83021290754E+02  0.00000000000E+00 0.  1.
         14    1    5    5    0    0  0.34579544666E+02 -0.17363904595E+02  0.12868086742E+04  0.12873903115E+04  0.00000000000E+00 0. -1.
         13    1    3    3    0    0  0.16356299586E+02 -0.17132398581E+02 -0.64312772830E+01  0.24544020551E+02  0.00000000000E+00 0. -1.
        -14    1    3    3    0    0 -0.51696000508E+02 -0.26387320844E+02 -0.13986502497E+03  0.15142982659E+03  0.00000000000E+00 0.  1.
          5    1    4    4  501    0  0.33891665673E+02  0.99239685315E+02  0.35695713852E+03  0.37206589642E+03  0.41800000000E+01 0. -1.
         -5    1    4    4    0  501 -0.35635789622E+02 -0.16642140645E+02  0.25092544309E+03  0.25402346493E+03  0.41800000000E+01 0. -1.
</event>
<event>
11    1  0.6455215E-009  0.1285288E+03  0.7561462E-02  0.1121090E+00
         22   -1    0    0    0    0  0.00000000000E+00  0.00000000000E+00  0.41984506313E+03  0.41984506313E+03  0.00000000000E+00 0.  1.
         22   -1    0    0    0    0 -0.00000000000E+00 -0.00000000000E+00 -0.61259510792E+03  0.61259510792E+03  0.00000000000E+00 0.  1.
         24    2    1    2    0    0 -0.87164738685E+00  0.98515509087E+01 -0.57545764179E+03  0.58103667092E+03  0.79713879883E+02 0.  0.
         25    2    1    2    0    0  0.23263316375E+02  0.11120796159E+02  0.12002480986E+03  0.17526769338E+03  0.12509178776E+03 0.  0.
        -24    2    1    2    0    0 -0.22391668988E+02 -0.20972347068E+02  0.26268278714E+03  0.27613580675E+03  0.79419839642E+02 0.  0.
        -11    1    3    3    0    0 -0.94074955120E+01  0.97278988477E+01 -0.57144270012E+03  0.57160291507E+03  0.00000000000E+00 0.  1.
         12    1    3    3    0    0  0.85358481252E+01  0.12365206108E+00 -0.40149416612E+01  0.94337558581E+01  0.00000000000E+00 0. -1.
         11    1    5    5    0    0  0.11737373484E+02 -0.28496880745E+02  0.38844500802E+02  0.49585616775E+02  0.00000000000E+00 0. -1.
        -12    1    5    5    0    0 -0.34129042472E+02  0.75245336766E+01  0.22383828634E+03  0.22655018997E+03  0.00000000000E+00 0.  1.
          5    1    4    4  501    0  0.18831690750E+02  0.51813060632E+02  0.12213708819E+03  0.13406776846E+03  0.41800000000E+01 0. -1.
         -5    1    4    4    0  501  0.44316256257E+01 -0.40692264473E+02 -0.21122783284E+01  0.41199924920E+02  0.41800000000E+01 0. -1.
</event>
<event>
11    1  0.6455215E-009  0.1487486E+03  0.7561462E-02  0.1098164E+00
         22   -1    0    0    0    0  0.00000000000E+00  0.00000000000E+00  0.26820889562E+03  0.26820889562E+03  0.00000000000E+00 0.  1.
         22   -1    0    0    0    0 -0.00000000000E+00 -0.00000000000E+00 -0.25454910948E+03  0.25454910948E+03  0.00000000000E+00 0. -1.
         24    2    1    2    0    0 -0.24350574341E+02  0.74177509048E+02 -0.15200957342E+03  0.18773747422E+03  0.77737992619E+02 0.  0.
         25    2    1    2    0    0  0.35429049492E+02 -0.84348515538E+02  0.42978885194E+01  0.15503701051E+03  0.12509241848E+03 0.  0.
        -24    2    1    2    0    0 -0.11078475151E+02  0.10171006490E+02  0.16137147103E+03  0.17998352037E+03  0.78276011379E+02 0.  0.
        -13    1    3    3    0    0  0.93840417604E+01  0.14616936194E+02  0.35990203726E+01  0.17738884156E+02  0.00000000000E+00 0.  1.
         14    1    3    3    0    0 -0.33734616102E+02  0.59560572854E+02 -0.15560859379E+03  0.16999859006E+03  0.00000000000E+00 0. -1.
         11    1    5    5    0    0 -0.19450395878E+02 -0.23083189452E+02  0.24485500123E+02  0.38867611856E+02  0.00000000000E+00 0. -1.
        -12    1    5    5    0    0  0.83719207275E+01  0.33254195942E+02  0.13688597091E+03  0.14111590852E+03  0.00000000000E+00 0.  1.
          5    1    4    4  501    0  0.32526641042E+02 -0.10449519219E+03  0.37590521909E+02  0.11579182746E+03  0.41800000000E+01 0. -1.
         -5    1    4    4    0  501  0.29024084505E+01  0.20146676653E+02 -0.33292633390E+02  0.39245183055E+02  0.41800000000E+01 0. -1.
</event>
<event>
11    1  0.6455215E-009  0.1672749E+03  0.7561462E-02  0.1080428E+00
         22   -1    0    0    0    0  0.00000000000E+00  0.00000000000E+00  0.28627135462E+03  0.28627135462E+03  0.00000000000E+00 0. -1.
         22   -1    0    0    0    0 -0.00000000000E+00 -0.00000000000E+00 -0.74589407000E+03  0.74589407000E+03  0.00000000000E+00 0. -1.
         24    2    1    2    0    0 -0.77042491641E+01 -0.11398917642E+02 -0.54214809632E+03  0.54819370330E+03  0.80015543600E+02 0.  0.
         25    2    1    2    0    0  0.95264173991E+02 -0.57049909786E+02 -0.14322786500E+03  0.22020762234E+03  0.12508885071E+03 0.  0.
        -24    2    1    2    0    0 -0.87559924827E+02  0.68448827428E+02  0.22575324594E+03  0.26376409898E+03  0.79088491234E+02 0.  0.
        -13    1    3    3    0    0 -0.49939903100E+00 -0.45743631644E+02 -0.28124821351E+03  0.28494435744E+03  0.00000000000E+00 0.  1.
         14    1    3    3    0    0 -0.72048501331E+01  0.34344714002E+02 -0.26089988281E+03  0.26324934586E+03  0.00000000000E+00 0. -1.
         13    1    5    5    0    0 -0.57988529607E+02  0.44249373526E+02  0.21022188629E+03  0.22251723101E+03  0.00000000000E+00 0. -1.
        -14    1    5    5    0    0 -0.29571395220E+02  0.24199453902E+02  0.15531359654E+02  0.41246867967E+02  0.00000000000E+00 0.  1.
          5    1    4    4  501    0  0.69553229937E+02 -0.48491271776E+02 -0.11512040141E+02  0.85668282936E+02  0.41800000000E+01 0.  1.
         -5    1    4    4    0  501  0.25710944054E+02 -0.85586380101E+01 -0.13171582486E+03  0.13453933940E+03  0.41800000000E+01 0.  1.
</event>
<event>
11    1  0.6455215E-009  0.1910735E+03  0.7561462E-02  0.1061022E+00
         22   -1    0    0    0    0  0.00000000000E+00  0.00000000000E+00  0.16551088225E+04  0.16551088225E+04  0.00000000000E+00 0. -1.
         22   -1    0    0    0    0 -0.00000000000E+00 -0.00000000000E+00 -0.17274887308E+03  0.17274887308E+03  0.00000000000E+00 0.  1.
        -24    2    1    2    0    0 -0.57624936001E+02 -0.13704714668E+03 -0.10922644886E+03  0.20131801664E+03  0.80597599417E+02 0.  0.
         25    2    1    2    0    0  0.11880461973E+03  0.42440185031E+02  0.61531644048E+03  0.64044304451E+03  0.12504904780E+03 0.  0.
         24    2    1    2    0    0 -0.61179683729E+02  0.94606961646E+02  0.97626995780E+03  0.98609663444E+03  0.81179499033E+02 0.  0.
        -11    1    5    5    0    0 -0.16336053868E+02 -0.11096602041E+02  0.75589329914E+02  0.78126487376E+02  0.00000000000E+00 0.  1.
         12    1    5    5    0    0 -0.44843629860E+02  0.10570356369E+03  0.90068062789E+03  0.90797014707E+03  0.00000000000E+00 0. -1.
         11    1    3    3    0    0 -0.62779674001E+02 -0.55177057316E+02 -0.75468726567E+02  0.11261138402E+03  0.00000000000E+00 0. -1.
        -12    1    3    3    0    0  0.51547380009E+01 -0.81870089361E+02 -0.33757722291E+02  0.88706632616E+02  0.00000000000E+00 0.  1.
          5    1    4    4  501    0  0.45555863628E+02 -0.44521139374E+02  0.21659807472E+03  0.22580891687E+03  0.41800000000E+01 0.  1.
         -5    1    4    4    0  501  0.73248756101E+02  0.86961324406E+02  0.39871836576E+03  0.41463412764E+03  0.41800000000E+01 0.  1.
</event>
<event>
11    1  0.6455215E-009  0.5135230E+03  0.7561462E-02  0.9363801E-01
         22   -1    0    0    0    0  0.00000000000E+00  0.00000000000E+00  0.11705835471E+03  0.11705835471E+03  0.00000000000E+00 0.  1.
         22   -1    0    0    0    0 -0.00000000000E+00 -0.00000000000E+00 -0.16240296445E+04  0.16240296445E+04  0.00000000000E+00 0.  1.
        -24    2    1    2    0    0 -0.25298292615E+03  0.20819922594E+03 -0.61642926852E+03  0.70278171573E+03  0.81054415504E+02 0.  0.
         25    2    1    2    0    0  0.75239687010E+02  0.26222689259E+02 -0.59076544447E+03  0.60909669958E+03  0.12508532738E+03 0.  0.
         24    2    1    2    0    0  0.17774323914E+03 -0.23442191520E+03 -0.29977657677E+03  0.42920958387E+03  0.88366155966E+02 0.  0.
        -13    1    5    5    0    0  0.12675957884E+03 -0.12328967168E+03 -0.22391702766E+03  0.28531941618E+03  0.00000000000E+00 0.  1.
         14    1    5    5    0    0  0.50983660303E+02 -0.11113224352E+03 -0.75859549102E+02  0.14389016769E+03  0.00000000000E+00 0. -1.
         11    1    3    3    0    0 -0.11517475670E+03  0.98728950643E+02 -0.20274368890E+03  0.25321460002E+03  0.00000000000E+00 0. -1.
        -12    1    3    3    0    0 -0.13780816945E+03  0.10947027530E+03 -0.41368557963E+03  0.44956711572E+03  0.00000000000E+00 0.  1.
          5    1    4    4  501    0  0.61897122485E+02 -0.35732784858E+02 -0.18462595468E+03  0.19802096159E+03  0.41800000000E+01 0. -1.
         -5    1    4    4    0  501  0.13342564525E+02  0.61955474117E+02 -0.40613948978E+03  0.41107573799E+03  0.41800000000E+01 0. -1.
</event>
<event>
11    1  0.6455215E-009  0.1457095E+03  0.7561462E-02  0.1101345E+00
         22   -1    0    0    0    0  0.00000000000E+00  0.00000000000E+00  0.15537272620E+03  0.15537272620E+03  0.00000000000E+00 0. -1.
         22   -1    0    0    0    0 -0.00000000000E+00 -0.00000000000E+00 -0.16627484288E+04  0.16627484288E+04  0.00000000000E+00 0. -1.
         24    2    1    2    0    0  0.11781131731E+02  0.71493533766E+02 -0.13860275247E+04  0.13902309323E+04  0.80122565441E+02 0.  0.
         25    2    1    2    0    0 -0.67334578853E+02 -0.94891064395E+02 -0.22555999078E+03  0.28295256573E+03  0.12508631181E+03 0.  0.
        -24    2    1    2    0    0  0.55553447122E+02  0.23397530629E+02  0.10421181286E+03  0.14493765697E+03  0.80704352688E+02 0.  0.
        -13    1    3    3    0    0  0.17165368212E+02  0.55517479229E+02 -0.41412565733E+03  0.41818285525E+03  0.00000000000E+00 0.  1.
         14    1    3    3    0    0 -0.53842364807E+01  0.15976054537E+02 -0.97190186737E+03  0.97204807706E+03  0.00000000000E+00 0. -1.
         13    1    5    5    0    0  0.11872871117E+02  0.36614397222E+02  0.88776255722E+02  0.96761576737E+02  0.00000000000E+00 0. -1.
        -14    1    5    5    0    0  0.43680576005E+02 -0.13216866593E+02  0.15435557134E+02  0.48176080234E+02  0.00000000000E+00 0.  1.
          5    1    4    4  501    0 -0.39984812402E+01 -0.96479953043E+02 -0.18162165699E+03  0.20573834810E+03  0.41800000000E+01 0.  1.
         -5    1    4    4    0  501 -0.63336097613E+02  0.15888886480E+01 -0.43938333787E+02  0.77214217628E+02  0.41800000000E+01 0.  1.
</event>
<event>
11    1  0.6455215E-009  0.2338466E+03  0.7561462E-02  0.1032874E+00
         22   -1    0    0    0    0  0.00000000000E+00  0.00000000000E+00  0.16241842173E+03  0.16241842173E+03  0.00000000000E+00 0.  1.
         22   -1    0    0    0    0 -0.00000000000E+00 -0.00000000000E+00 -0.13709109730E+04  0.13709109730E+04  0.00000000000E+00 0. -1.
         24    2    1    2    0    0 -0.34424866386E+02 -0.26811664800E+02 -0.98368709114E+03  0.98792037409E+03  0.80264783530E+02 0.  0.
         25    2    1    2    0    0  0.10103307931E+02 -0.17738581485E+03 -0.23984379436E+03  0.32363599887E+03  0.12508960760E+03 0.  0.
        -24    2    1    2    0    0  0.24321558454E+02  0.20419747965E+03  0.15038334276E+02  0.22177302173E+03  0.81663778792E+02 0.  0.
        -13    1    3    3    0    0  0.21581557947E+02 -0.19412019763E+02 -0.18771920989E+03  0.18995023537E+03  0.00000000000E+00 0.  1.
         14    1    3    3    0    0 -0.56006424332E+02 -0.73996450376E+01 -0.79596788125E+03  0.79797013872E+03  0.00000000000E+00 0. -1.
         13    1    5    5    0    0 -0.23385198835E+02  0.56684859236E+02 -0.16634963790E+02  0.63535524012E+02  0.00000000000E+00 0. -1.
        -14    1    5    5    0    0  0.47706757289E+02  0.14751262042E+03  0.31673298066E+02  0.15823749772E+03  0.00000000000E+00 0.  1.
          5    1    4    4  501    0 -0.28391885820E+01  0.16494755678E+02 -0.46033936526E+02  0.49160285483E+02  0.41800000000E+01 0.  1.
         -5    1    4    4    0  501  0.12942496513E+02 -0.19388057053E+03 -0.19380985783E+03  0.27447571339E+03  0.41800000000E+01 0.  1.
</event>
<event>
11    1  0.6455215E-009  0.1716650E+03  0.7561462E-02  0.1076592E+00
         22   -1    0    0    0    0  0.00000000000E+00  0.00000000000E+00  0.10196005889E+03  0.10196005889E+03  0.00000000000E+00 0.  1.
         22   -1    0    0    0    0 -0.00000000000E+00 -0.00000000000E+00 -0.17995475141E+04  0.17995475141E+04  0.00000000000E+00 0. -1.
         24    2    1    2    0    0 -0.26774980654E+02 -0.12173280618E+03 -0.13996421312E+04  0.14076944577E+04  0.84082192220E+02 0.  0.
         25    2    1    2    0    0 -0.39591710738E+02  0.93699285746E+02 -0.34028217846E+03  0.37654571137E+03  0.12509057545E+03 0.  0.
        -24    2    1    2    0    0  0.66366691392E+02  0.28033520435E+02  0.42336854465E+02  0.11726740394E+03  0.82272831395E+02 0.  0.
        -13    1    3    3    0    0 -0.87033251715E+01 -0.19733050795E+02 -0.55141046258E+02  0.59208750580E+02  0.00000000000E+00 0.  1.
         14    1    3    3    0    0 -0.18071655482E+02 -0.10199975539E+03 -0.13445010850E+04  0.13484857071E+04  0.00000000000E+00 0. -1.
         13    1    5    5    0    0  0.12593836425E+02  0.47436135058E+02  0.57962144875E+01  0.49420519296E+02  0.00000000000E+00 0. -1.
        -14    1    5    5    0    0  0.53772854967E+02 -0.19402614623E+02  0.36540639978E+02  0.67846884641E+02  0.00000000000E+00 0.  1.
          5    1    4    4  501    0 -0.62511443077E+02  0.19596885840E+02 -0.24484445072E+03  0.25349160913E+03  0.41800000000E+01 0.  1.
         -5    1    4    4    0  501  0.22919732339E+02  0.74102399906E+02 -0.95437727737E+02  0.12305410224E+03  0.41800000000E+01 0.  1.
</event>
<event>
11    1  0.6455215E-009  0.1742200E+03  0.7561462E-02  0.1074417E+00
         22   -1    0    0    0    0  0.00000000000E+00  0.00000000000E+00  0.19201117129E+04  0.19201117129E+04  0.00000000000E+00 0. -1.
         22   -1    0    0    0    0 -0.00000000000E+00 -0.00000000000E+00 -0.77055741313E+02  0.77055741313E+02  0.00000000000E+00 0.  1.
         24    2    1    2    0    0  0.57616341275E+02  0.10117693400E+03  0.32686767814E+02  0.14505938458E+03  0.80108585732E+02 0.  0.
         25    2    1    2    0    0 -0.22767177506E+02 -0.15876967044E+03  0.53100220061E+03  0.56862558781E+03  0.12508225069E+03 0.  0.
        -24    2    1    2    0    0 -0.34849163769E+02  0.57592736442E+02  0.12793670032E+04  0.12834824818E+04  0.77562651187E+02 0.  0.
        -13    1    3    3    0    0  0.46642358052E+01  0.76355489618E+02 -0.29876684995E+01  0.76556136616E+02  0.00000000000E+00 0.  1.
         14    1    3    3    0    0  0.52952105470E+02  0.24821444384E+02  0.35674436314E+02  0.68503247962E+02  0.00000000000E+00 0. -1.
         13    1    5    5    0    0 -0.51163578015E+02  0.54718094474E+02  0.12034413672E+04  0.12057706689E+04  0.00000000000E+00 0. -1.
        -14    1    5    5    0    0  0.16314414246E+02  0.28746419677E+01  0.75925635926E+02  0.77711812934E+02  0.00000000000E+00 0.  1.
          5    1    4    4  501    0  0.20712456368E+01  0.21177569213E+02  0.54612553416E+02  0.58760385353E+02  0.41800000000E+01 0. -1.
         -5    1    4    4    0  501 -0.24838423143E+02 -0.17994723966E+03  0.47638964719E+03  0.50986520246E+03  0.41800000000E+01 0. -1.
</event>
<event>
11    1  0.6455215E-009  0.1592178E+03  0.7561462E-02  0.1087815E+00
         22   -1    0    0    0    0  0.00000000000E+00  0.00000000000E+00  0.24215637362E+03  0.24215637362E+03  0.00000000000E+00 0. -1.
         22   -1    0    0    0    0 -0.00000000000E+00 -0.00000000000E+00 -0.23180803777E+04  0.23180803777E+04  0.00000000000E+00 0.  1.
         24    2    1    2    0    0  0.76726302395E+02  0.59662452648E+02 -0.20145086117E+04  0.20184915949E+04  0.81343951119E+02 0.  0.
         25    2    1    2    0    0 -0.89572304929E+02 -0.71786310917E+02 -0.26911672334E+03  0.31819132707E+03  0.12508172368E+03 0.  0.
        -24    2    1    2    0    0  0.12846002534E+02  0.12123858269E+02  0.20770133097E+03  0.22355382933E+03  0.80774154279E+02 0.  0.
        -13    1    3    3    0    0  0.73921464623E+02  0.54479906887E+02 -0.20062265962E+04  0.20083270646E+04  0.00000000000E+00 0.  1.
         14    1    3    3    0    0  0.28048377723E+01  0.51825457604E+01 -0.82820155457E+01  0.10164530338E+02  0.00000000000E+00 0. -1.
         11    1    5    5    0    0  0.37169853191E+02  0.26852470270E+02  0.17147536182E+03  0.17750057143E+03  0.00000000000E+00 0. -1.
        -12    1    5    5    0    0 -0.24323850657E+02 -0.14728612001E+02  0.36225969149E+02  0.46053257898E+02  0.00000000000E+00 0.  1.
          5    1    4    4  501    0  0.81532010951E+01  0.27612802445E+02 -0.62188901823E+02  0.68657654030E+02  0.41800000000E+01 0. -1.
         -5    1    4    4    0  501 -0.97725506024E+02 -0.99399113362E+02 -0.20692782151E+03  0.24953367304E+03  0.41800000000E+01 0. -1.
</event>
<event>
11    1  0.6455215E-009  0.1593666E+03  0.7561462E-02  0.1087675E+00
         22   -1    0    0    0    0  0.00000000000E+00  0.00000000000E+00  0.11133060609E+04  0.11133060609E+04  0.00000000000E+00 0. -1.
         22   -1    0    0    0    0 -0.00000000000E+00 -0.00000000000E+00 -0.46988424562E+03  0.46988424562E+03  0.00000000000E+00 0.  1.
        -24    2    1    2    0    0 -0.10841421328E+02 -0.99428963671E+02 -0.44028647880E+03  0.45758314313E+03  0.74340394370E+02 0.  0.
         25    2    1    2    0    0 -0.79439382656E+01 -0.38500571878E+02  0.33220493278E+03  0.35714585964E+03  0.12509055721E+03 0.  0.
         24    2    1    2    0    0  0.18785359593E+02  0.13792953555E+03  0.75150336132E+03  0.76846130377E+03  0.79987666552E+02 0.  0.
        -13    1    5    5    0    0  0.36754390775E+02  0.66119674841E+02  0.24029613595E+03  0.25192246742E+03  0.00000000000E+00 0.  1.
         14    1    5    5    0    0 -0.17969031181E+02  0.71809860708E+02  0.51120722538E+03  0.51653883635E+03  0.00000000000E+00 0. -1.
         13    1    3    3    0    0  0.14669240670E+02  0.61290973392E+01 -0.49709736714E+02  0.52190136809E+02  0.00000000000E+00 0. -1.
        -14    1    3    3    0    0 -0.25510661998E+02 -0.10555806101E+03 -0.39057674208E+03  0.40539300633E+03  0.00000000000E+00 0.  1.
          5    1    4    4  501    0 -0.30841016097E+02  0.21629517532E+02  0.24907175895E+03  0.25193891683E+03  0.41800000000E+01 0. -1.
         -5    1    4    4    0  501  0.22897077831E+02 -0.60130089410E+02  0.83133173826E+02  0.10520694281E+03  0.41800000000E+01 0. -1.
</event>
<event>
11    1  0.6455215E-009  0.1486603E+03  0.7561462E-02  0.1098256E+00
         22   -1    0    0    0    0  0.00000000000E+00  0.00000000000E+00  0.12005584774E+04  0.12005584774E+04  0.00000000000E+00 0. -1.
         22   -1    0    0    0    0 -0.00000000000E+00 -0.00000000000E+00 -0.54178917031E+03  0.54178917031E+03  0.00000000000E+00 0. -1.
        -24    2    1    2    0    0  0.17318269838E+02  0.90067312475E+01 -0.37930098943E+03  0.38816419049E+03  0.80132106668E+02 0.  0.
         25    2    1    2    0    0 -0.42555103959E+02 -0.85010432797E+02 -0.11554448855E+03  0.19502619794E+03  0.12508788306E+03 0.  0.
         24    2    1    2    0    0  0.25236834121E+02  0.76003701549E+02  0.11536147850E+04  0.11591572592E+04  0.80031362281E+02 0.  0.
        -13    1    5    5    0    0 -0.28796345662E+02  0.22129618383E+02  0.31845981597E+03  0.32052395218E+03  0.00000000000E+00 0.  1.
         14    1    5    5    0    0  0.54033179783E+02  0.53874083166E+02  0.83515496907E+03  0.83863330706E+03  0.00000000000E+00 0. -1.
         11    1    3    3    0    0  0.30299053411E+02  0.37313310879E+02 -0.27997240134E+03  0.28406840957E+03  0.00000000000E+00 0. -1.
        -12    1    3    3    0    0 -0.12980783573E+02 -0.28306579631E+02 -0.99328588091E+02  0.10409578092E+03  0.00000000000E+00 0.  1.
          5    1    4    4  501    0  0.31997134883E+02  0.71036728455E+01 -0.48863077079E+02  0.58986028094E+02  0.41800000000E+01 0. -1.
         -5    1    4    4    0  501 -0.74552238841E+02 -0.92114105642E+02 -0.66681411475E+02  0.13604016984E+03  0.41800000000E+01 0. -1.
</event>
<event>
11    1  0.6455215E-009  0.1302449E+03  0.7561462E-02  0.1118968E+00
         22   -1    0    0    0    0  0.00000000000E+00  0.00000000000E+00  0.16504799329E+02  0.16504799329E+02  0.00000000000E+00 0. -1.
         22   -1    0    0    0    0 -0.00000000000E+00 -0.00000000000E+00 -0.23528024641E+04  0.23528024641E+04  0.00000000000E+00 0. -1.
         24    2    1    2    0    0  0.18253103614E+02 -0.10952107313E+02 -0.15765789553E+04  0.15785136222E+04  0.75172658858E+02 0.  0.
         25    2    1    2    0    0 -0.46944542798E+02  0.31105771611E+00 -0.46818593789E+03  0.48687749795E+03  0.12509092180E+03 0.  0.
        -24    2    1    2    0    0  0.28691439185E+02  0.10641049597E+02 -0.29153277157E+03  0.30391614330E+03  0.80232378985E+02 0.  0.
        -11    1    3    3    0    0 -0.25307250786E+02 -0.11075933850E+01 -0.95342449436E+03  0.95376095021E+03  0.00000000000E+00 0.  1.
         12    1    3    3    0    0  0.43560354400E+02 -0.98445139282E+01 -0.62315446099E+03  0.62475267200E+03  0.00000000000E+00 0. -1.
         13    1    5    5    0    0  0.32546854015E+02  0.85943556530E+01 -0.39720743099E+02  0.52066285519E+02  0.00000000000E+00 0. -1.
        -14    1    5    5    0    0 -0.38554148307E+01  0.20466939441E+01 -0.25181202848E+03  0.25184985778E+03  0.00000000000E+00 0.  1.
          5    1    4    4  501    0  0.19405535529E+02 -0.20750308724E+02 -0.24509294448E+02  0.37753516864E+02  0.41800000000E+01 0.  1.
         -5    1    4    4    0  501 -0.66350078327E+02  0.21061366440E+02 -0.44367664345E+03  0.44912398109E+03  0.41800000000E+01 0.  1.
</event>
<event>
11    1  0.6455215E-009  0.3105088E+03  0.7561462E-02  0.9958392E-01
         22   -1    0    0    0    0  0.00000000000E+00  0.00000000000E+00  0.31318180784E+03  0.31318180784E+03  0.00000000000E+00 0.  1.
         22   -1    0    0    0    0 -0.00000000000E+00 -0.00000000000E+00 -0.24835006537E+04  0.24835006537E+04  0.00000000000E+00 0. -1.
        -24    2    1    2    0    0  0.30189803272E+03  0.65655706180E+02 -0.21471279652E+04  0.21707217773E+04  0.80133900290E+02 0.  0.
         25    2    1    2    0    0 -0.18644982173E+03  0.10674459493E+03 -0.21755710445E+03  0.33035949279E+03  0.12509338996E+03 0.  0.
         24    2    1    2    0    0 -0.11544821099E+03 -0.17240030111E+03  0.19436622371E+03  0.29560119143E+03  0.80942462381E+02 0.  0.
        -11    1    5    5    0    0 -0.97562176683E+02 -0.11737924386E+03  0.17997779859E+03  0.23598362908E+03  0.00000000000E+00 0.  1.
         12    1    5    5    0    0 -0.17886034303E+02 -0.55021057250E+02  0.14388425123E+02  0.59617562358E+02  0.00000000000E+00 0. -1.
         11    1    3    3    0    0  0.29395265458E+03  0.75412570797E+02 -0.21047448027E+04  0.21265102641E+04  0.00000000000E+00 0. -1.
        -12    1    3    3    0    0  0.79453781376E+01 -0.97568646177E+01 -0.42383162490E+02  0.44211513247E+02  0.00000000000E+00 0.  1.
          5    1    4    4  501    0 -0.27346818825E+02  0.82649741291E+02 -0.86345804454E+02  0.12268617926E+03  0.41800000000E+01 0.  1.
         -5    1    4    4    0  501 -0.15910300291E+03  0.24094853637E+02 -0.13121130000E+03  0.20767331353E+03  0.41800000000E+01 0.  1.
</event>
<event>
11    1  0.6455215E-009  0.1737276E+03  0.7561462E-02  0.1074833E+00
         22   -1    0    0    0    0  0.00000000000E+00  0.00000000000E+00  0.13085108845E+04  0.13085108845E+04  0.00000000000E+00 0.  1.
         22   -1    0    0    0    0 -0.00000000000E+00 -0.00000000000E+00 -0.30538962005E+03  0.30538962005E+03  0.00000000000E+00 0. -1.
         24    2    1    2    0    0 -0.58263626755E+02  0.10301933931E+03 -0.19559884331E+03  0.24244123100E+03  0.80692059762E+02 0.  0.
         25    2    1    2    0    0  0.51477653289E+02 -0.11959476024E+03  0.11075169443E+02  0.18089230830E+03  0.12508601984E+03 0.  0.
        -24    2    1    2    0    0  0.67859734655E+01  0.16575420928E+02  0.11876449383E+04  0.11905669653E+04  0.81415018444E+02 0.  0.
        -11    1    3    3    0    0  0.15382893521E+02  0.32787421478E+01 -0.81917154498E+01  0.17733802896E+02  0.00000000000E+00 0.  1.
         12    1    3    3    0    0 -0.73646520276E+02  0.99740597166E+02 -0.18740712786E+03  0.22470742810E+03  0.00000000000E+00 0. -1.
         13    1    5    5    0    0 -0.92640923691E+01 -0.77078715413E+01  0.27120452628E+02  0.29677493861E+02  0.00000000000E+00 0. -1.
        -14    1    5    5    0    0  0.16050065835E+02  0.24283292469E+02  0.11605244857E+04  0.11608894714E+04  0.00000000000E+00 0.  1.
          5    1    4    4  501    0  0.45824295378E+02 -0.64221426223E+02 -0.53592465949E+02  0.95466656167E+02  0.41800000000E+01 0.  1.
         -5    1    4    4    0  501  0.56533579111E+01 -0.55373334018E+02  0.64667635392E+02  0.85425652138E+02  0.41800000000E+01 0.  1.
</event>
<event>
11    1  0.6455215E-009  0.1767053E+03  0.7561462E-02  0.1072339E+00
         22   -1    0    0    0    0  0.00000000000E+00  0.00000000000E+00  0.47837119309E+02  0.47837119309E+02  0.00000000000E+00 0.  1.
         22   -1    0    0    0    0 -0.00000000000E+00 -0.00000000000E+00 -0.12522483320E+04  0.12522483320E+04  0.00000000000E+00 0.  1.
         24    2    1    2    0    0 -0.11271871045E+03 -0.44172237772E+01 -0.66186543817E+03  0.67631354283E+03  0.81296558490E+02 0.  0.
         25    2    1    2    0    0  0.16462600009E+03  0.19331815544E+02 -0.41674859719E+03  0.46562064047E+03  0.12509096120E+03 0.  0.
        -24    2    1    2    0    0 -0.51907289636E+02 -0.14914591767E+02 -0.12579717731E+03  0.15815126799E+03  0.79183849245E+02 0.  0.
        -11    1    3    3    0    0 -0.78835505492E+02  0.32700173878E+02 -0.48473552888E+03  0.49219190490E+03  0.00000000000E+00 0.  1.
         12    1    3    3    0    0 -0.33883204963E+02 -0.37117397655E+02 -0.17712990929E+03  0.18412163793E+03  0.00000000000E+00 0. -1.
         13    1    5    5    0    0 -0.47917854783E+02 -0.28244885225E+02 -0.13175500807E+03  0.14301495201E+03  0.00000000000E+00 0. -1.
        -14    1    5    5    0    0 -0.39894348535E+01  0.13330293458E+02  0.59578307512E+01  0.15136315978E+02  0.00000000000E+00 0.  1.
          5    1    4    4  501    0  0.13908117955E+03  0.62037123303E+02 -0.35426313498E+03  0.38563197530E+03  0.41800000000E+01 0.  1.
         -5    1    4    4    0  501  0.25544820545E+02 -0.42705307759E+02 -0.62485462212E+02  0.79988665167E+02  0.41800000000E+01 0.  1.
</event>
<event>
11    1  0.6455215E-009  0.2709501E+03  0.7561462E-02  0.1013295E+00
         22   -1    0    0    0    0  0.00000000000E+00  0.00000000000E+00  0.36655019659E+03  0.36655019659E+03  0.00000000000E+00 0. -1.
         22   -1    0    0    0    0 -0.00000000000E+00 -0.00000000000E+00 -0.12663565815E+04  0.12663565815E+04  0.00000000000E+00 0. -1.
         24    2    1    2    0    0  0.21660067168E+03  0.15899935651E+03 -0.85857319875E+03  0.90321123156E+03  0.80286641867E+02 0.  0.
         25    2    1    2    0    0 -0.15243715624E+03 -0.12172127877E+03 -0.34003549381E+03  0.41149220984E+03  0.12509414616E+03 0.  0.
        -24    2    1    2    0    0 -0.64163515442E+02 -0.37278077737E+02  0.29880230761E+03  0.31820333673E+03  0.80398586290E+02 0.  0.
        -11    1    3    3    0    0  0.10165937813E+02  0.84739776292E+01 -0.88762426595E+01  0.15935566266E+02  0.00000000000E+00 0.  1.
         12    1    3    3    0    0  0.20643473387E+03  0.15052537888E+03 -0.84969695609E+03  0.88727566529E+03  0.00000000000E+00 0. -1.
         11    1    5    5    0    0 -0.33548499088E+02 -0.61596418761E+02  0.20027117422E+03  0.21219840673E+03  0.00000000000E+00 0. -1.
        -12    1    5    5    0    0 -0.30615016355E+02  0.24318341024E+02  0.98531133391E+02  0.10600493000E+03  0.00000000000E+00 0.  1.
          5    1    4    4  501    0 -0.61309554219E+02  0.10489392281E+02 -0.15140205364E+03  0.16373436730E+03  0.41800000000E+01 0. -1.
         -5    1    4    4    0  501 -0.91127602020E+02 -0.13221067106E+03 -0.18863344016E+03  0.24775784254E+03  0.41800000000E+01 0. -1.
</event>
<event>
11    1  0.6455215E-009  0.1384288E+03  0.7561462E-02  0.1109326E+00
         22   -1    0    0    0    0  0.00000000000E+00  0.00000000000E+00  0.62180589288E+03  0.62180589288E+03  0.00000000000E+00 0.  1.
         22   -1    0    0    0    0 -0.00000000000E+00 -0.00000000000E+00 -0.74676215380E+03  0.74676215380E+03  0.00000000000E+00 0. -1.
         24    2    1    2    0    0  0.46162156737E+02 -0.43048218826E+02 -0.69677778018E+03  0.70428000490E+03  0.80789581643E+02 0.  0.
         25    2    1    2    0    0 -0.50775976381E+02 -0.20641188476E+02  0.74483364527E+02  0.15556152603E+03  0.12508940143E+03 0.  0.
        -24    2    1    2    0    0  0.46138196449E+01  0.63689407301E+02  0.49733815472E+03  0.50872651575E+03  0.85905760864E+02 0.  0.
        -13    1    3    3    0    0  0.41263619601E+02  0.15261252133E+02 -0.29346687328E+03  0.29674635269E+03  0.00000000000E+00 0.  1.
         14    1    3    3    0    0  0.48985371355E+01 -0.58309470959E+02 -0.40331090690E+03  0.40753365222E+03  0.00000000000E+00 0. -1.
         13    1    5    5    0    0  0.28160134915E+02  0.54948335768E+02  0.17804778093E+03  0.18844979463E+03  0.00000000000E+00 0. -1.
        -14    1    5    5    0    0 -0.23546315270E+02  0.87410715335E+01  0.31929037379E+03  0.32027672112E+03  0.00000000000E+00 0.  1.
          5    1    4    4  501    0 -0.57188810102E+02  0.43445700552E+02  0.36484461807E+02  0.80663977404E+02  0.41800000000E+01 0. -1.
         -5    1    4    4    0  501  0.64128337201E+01 -0.64086889028E+02  0.37998902720E+02  0.74897548622E+02  0.41800000000E+01 0. -1.
</event>
<event>
11    1  0.6455215E-009  0.1621474E+03  0.7561462E-02  0.1085075E+00
         22   -1    0    0    0    0  0.00000000000E+00  0.00000000000E+00  0.33759667151E+03  0.33759667151E+03  0.00000000000E+00 0. -1.
         22   -1    0    0    0    0 -0.00000000000E+00 -0.00000000000E+00 -0.94460475956E+03  0.94460475956E+03  0.00000000000E+00 0. -1.
        -24    2    1    2    0    0 -0.10425365229E+02 -0.45022548435E+02 -0.58553521696E+03  0.59280982748E+03  0.80226449184E+02 0.  0.
         25    2    1    2    0    0 -0.38519498684E+02  0.13430201868E+03 -0.31580150653E+03  0.36728630146E+03  0.12509137346E+03 0.  0.
         24    2    1    2    0    0  0.48944863913E+02 -0.89279470247E+02  0.29432863545E+03  0.32210530213E+03  0.82195234063E+02 0.  0.
        -11    1    5    5    0    0 -0.14245296176E+02 -0.90435330650E+01  0.11076138157E+03  0.11203926812E+03  0.00000000000E+00 0.  1.
         12    1    5    5    0    0  0.63190160088E+02 -0.80235937182E+02  0.18356725388E+03  0.21006603401E+03  0.00000000000E+00 0. -1.
         11    1    3    3    0    0 -0.37247466748E+02  0.21410885192E+01 -0.28287972085E+03  0.28532944907E+03  0.00000000000E+00 0. -1.
        -12    1    3    3    0    0  0.26822101519E+02 -0.47163636954E+02 -0.30265549611E+03  0.30748037841E+03  0.00000000000E+00 0.  1.
          5    1    4    4  501    0 -0.60470276943E+02  0.43730708390E+02 -0.22505774338E+03  0.23714444861E+03  0.41800000000E+01 0.  1.
         -5    1    4    4    0  501  0.21950778259E+02  0.90571310292E+02 -0.90743763146E+02  0.13014185285E+03  0.41800000000E+01 0.  1.
</event>
<event>
11    1  0.6455215E-009  0.1293897E+03  0.7561462E-02  0.1120021E+00
         22   -1    0    0    0    0  0.00000000000E+00  0.00000000000E+00  0.33846826296E+02  0.33846826296E+02  0.00000000000E+00 0.  1.
         22   -1    0    0    0    0 -0.00000000000E+00 -0.00000000000E+00 -0.24932629558E+04  0.24932629558E+04  0.00000000000E+00 0. -1.
         24    2    1    2    0    0  0.13657100512E+02 -0.17421485926E+02 -0.17699681198E+04  0.17719315872E+04  0.80401368739E+02 0.  0.
         25    2    1    2    0    0 -0.41232691470E+02 -0.36468063529E+00 -0.64680605255E+03  0.66008035622E+03  0.12509092379E+03 0.  0.
        -24    2    1    2    0    0  0.27575590959E+02  0.17786166562E+02 -0.42641957206E+02  0.95097838713E+02  0.78412380884E+02 0.  0.
        -11    1    3    3    0    0  0.20546057019E+02  0.17323064316E+02 -0.23132917775E+03  0.23288498770E+03  0.00000000000E+00 0.  1.
         12    1    3    3    0    0 -0.68889565079E+01 -0.34744550243E+02 -0.15386389420E+04  0.15390465995E+04  0.00000000000E+00 0. -1.
         11    1    5    5    0    0  0.11029828356E+02 -0.17349797760E+02 -0.51336073758E+02  0.55299774545E+02  0.00000000000E+00 0. -1.
        -12    1    5    5    0    0  0.16545762603E+02  0.35135964321E+02  0.86941165522E+01  0.39798064168E+02  0.00000000000E+00 0.  1.
          5    1    4    4  501    0  0.12276325019E+02 -0.41729882584E+02 -0.10052004369E+03  0.10960767692E+03  0.41800000000E+01 0.  1.
         -5    1    4    4    0  501 -0.53509016490E+02  0.41365201949E+02 -0.54628600887E+03  0.55047267930E+03  0.41800000000E+01 0.  1.
</event>
<event>
11    1  0.6455215E-009  0.1665558E+03  0.7561462E-02  0.1081068E+00
         22   -1    0    0    0    0  0.00000000000E+00  0.00000000000E+00  0.90598637003E+03  0.90598637003E+03  0.00000000000E+00 0. -1.
         22   -1    0    0    0    0 -0.00000000000E+00 -0.00000000000E+00 -0.27255817946E+03  0.27255817946E+03  0.00000000000E+00 0.  1.
         24    2    1    2    0    0  0.29977911928E+02 -0.43144804845E+02 -0.21303472234E+03  0.23204091458E+03  0.75492011037E+02 0.  0.
         25    2    1    2    0    0  0.17176458349E+02  0.13857322001E+03  0.15895939017E+03  0.24579345578E+03  0.12509503250E+03 0.  0.
        -24    2    1    2    0    0 -0.47154370278E+02 -0.95428415164E+02  0.68750352274E+03  0.70071017913E+03  0.83687181215E+02 0.  0.
        -11    1    3    3    0    0  0.36918957334E+02 -0.29084353421E+02 -0.21106833165E+03  0.21623771561E+03  0.00000000000E+00 0.  1.
         12    1    3    3    0    0 -0.69410454058E+01 -0.14060451423E+02 -0.19663906856E+01  0.15803198976E+02  0.00000000000E+00 0. -1.
         11    1    5    5    0    0 -0.57649602062E+02 -0.10509629289E+03  0.57946405796E+03  0.59173245801E+03  0.00000000000E+00 0. -1.
        -12    1    5    5    0    0  0.10495231784E+02  0.96678777309E+01  0.10803946478E+03  0.10897772112E+03  0.00000000000E+00 0.  1.
          5    1    4    4  501    0 -0.29362070570E+02  0.17207852057E+02 -0.69524585979E+01  0.34986432243E+02  0.41800000000E+01 0. -1.
         -5    1    4    4    0  501  0.46538528919E+02  0.12136536795E+03  0.16591184876E+03  0.21080702354E+03  0.41800000000E+01 0. -1.
</event>
<event>
11    1  0.6455215E-009  0.1526767E+03  0.7561462E-02  0.1094175E+00
         22   -1    0    0    0    0  0.00000000000E+00  0.00000000000E+00  0.11611853010E+03  0.11611853010E+03  0.00000000000E+00 0. -1.
         22   -1    0    0    0    0 -0.00000000000E+00 -0.00000000000E+00 -0.19508923116E+04  0.19508923116E+04  0.00000000000E+00 0. -1.
        -24    2    1    2    0    0  0.75222302277E+02  0.26007222086E+02 -0.13572516862E+04  0.13619463107E+04  0.80192538763E+02 0.  0.
         25    2    1    2    0    0 -0.12720135826E+03 -0.65297438442E+02 -0.54557153692E+03  0.57770341184E+03  0.12509591975E+03 0.  0.
         24    2    1    2    0    0  0.51979055979E+02  0.39290216357E+02  0.68049441583E+02  0.12736111917E+03  0.85700553176E+02 0.  0.
        -11    1    5    5    0    0 -0.15727350455E+02 -0.12493242862E+02  0.24375796113E+02  0.31584966451E+02  0.00000000000E+00 0.  1.
         12    1    5    5    0    0  0.67706406435E+02  0.51783459219E+02  0.43673645470E+02  0.95776152719E+02  0.00000000000E+00 0. -1.
         13    1    3    3    0    0  0.39196359930E+02  0.17997550321E+02 -0.11850341978E+04  0.11858188379E+04  0.00000000000E+00 0. -1.
        -14    1    3    3    0    0  0.36025942346E+02  0.80096717645E+01 -0.17221748838E+03  0.17612747278E+03  0.00000000000E+00 0.  1.
          5    1    4    4  501    0 -0.92709601985E+02 -0.78340091241E+02 -0.51642827209E+03  0.53051660936E+03  0.41800000000E+01 0.  1.
         -5    1    4    4    0  501 -0.34491756271E+02  0.13042652799E+02 -0.29143264835E+02  0.47186802476E+02  0.41800000000E+01 0.  1.
</event>
<event>
11    1  0.6455215E-009  0.1326858E+03  0.7561462E-02  0.1116012E+00
         22   -1    0    0    0    0  0.00000000000E+00  0.00000000000E+00  0.39359199140E+03  0.39359199140E+03  0.00000000000E+00 0.  1.
         22   -1    0    0    0    0 -0.00000000000E+00 -0.00000000000E+00 -0.59710394973E+03  0.59710394973E+03  0.00000000000E+00 0.  1.
        -24    2    1    2    0    0  0.14216729943E+02  0.23306258251E+01 -0.39451120124E+03  0.40291948680E+03  0.80606933390E+02 0.  0.
         25    2    1    2    0    0 -0.56765309855E+02  0.83553456363E+01 -0.16810203040E+03  0.21725050739E+03  0.12508948051E+03 0.  0.
         24    2    1    2    0    0  0.42548579912E+02 -0.10685971461E+02  0.35910127332E+03  0.37052594694E+03  0.80069852116E+02 0.  0.
        -13    1    5    5    0    0 -0.14346822514E+02  0.26602089333E+01  0.20809441098E+03  0.20860534966E+03  0.00000000000E+00 0.  1.
         14    1    5    5    0    0  0.56895402426E+02 -0.13346180395E+02  0.15100686234E+03  0.16192059727E+03  0.00000000000E+00 0. -1.
         11    1    3    3    0    0  0.14796490486E+02  0.16053786436E+02 -0.25155772788E+02  0.33308754017E+02  0.00000000000E+00 0. -1.
        -12    1    3    3    0    0 -0.57976054314E+00 -0.13723160611E+02 -0.36935542846E+03  0.36961073279E+03  0.00000000000E+00 0.  1.
          5    1    4    4  501    0 -0.50117786506E+02  0.16541924937E+02 -0.18747153464E+03  0.19480368709E+03  0.41800000000E+01 0.  1.
         -5    1    4    4    0  501 -0.66475233484E+01 -0.81865793011E+01  0.19369504237E+02  0.22446820303E+02  0.41800000000E+01 0.  1.
</event>
<event>
11    1  0.6455215E-009  0.1955289E+03  0.7561462E-02  0.1057731E+00
         22   -1    0    0    0    0  0.00000000000E+00  0.00000000000E+00  0.12245772771E+04  0.12245772771E+04  0.00000000000E+00 0.  1.
         22   -1    0    0    0    0 -0.00000000000E+00 -0.00000000000E+00 -0.15043183815E+04  0.15043183815E+04  0.00000000000E+00 0.  1.
        -24    2    1    2    0    0 -0.67869433929E+02 -0.62869891840E+02 -0.12602296095E+04  0.12662221551E+04  0.81123327001E+02 0.  0.
         25    2    1    2    0    0 -0.20681148973E+02  0.18392427777E+03 -0.18173537980E+03  0.28797782921E+03  0.12509049511E+03 0.  0.
         24    2    1    2    0    0  0.88550582901E+02 -0.12105438593E+03  0.11622238849E+04  0.11746956742E+04  0.81548748358E+02 0.  0.
        -11    1    5    5    0    0  0.10054338410E+03 -0.96204664836E+02  0.85667066497E+03  0.86789915188E+03  0.00000000000E+00 0.  1.
         12    1    5    5    0    0 -0.11992801198E+02 -0.24849721092E+02  0.30555321993E+03  0.30679652235E+03  0.00000000000E+00 0. -1.
         13    1    3    3    0    0  0.10641470428E+02 -0.86425774926E+01 -0.47769274756E+03  0.47788941828E+03  0.00000000000E+00 0. -1.
        -14    1    3    3    0    0 -0.78510904357E+02 -0.54227314348E+02 -0.78253686190E+03  0.78833273683E+03  0.00000000000E+00 0.  1.
          5    1    4    4  501    0  0.75737494686E+01  0.16061706930E+03 -0.79751503469E+02  0.17953545426E+03  0.41800000000E+01 0. -1.
         -5    1    4    4    0  501 -0.28254898441E+02  0.23307208471E+02 -0.10198387633E+03  0.10844237495E+03  0.41800000000E+01 0. -1.
</event>
<event>
11    1  0.6455215E-009  0.1801582E+03  0.7561462E-02  0.1069515E+00
         22   -1    0    0    0    0  0.00000000000E+00  0.00000000000E+00  0.11231567279E+04  0.11231567279E+04  0.00000000000E+00 0.  1.
         22   -1    0    0    0    0 -0.00000000000E+00 -0.00000000000E+00 -0.81230322348E+03  0.81230322348E+03  0.00000000000E+00 0.  1.
        -24    2    1    2    0    0  0.68265310427E+01 -0.86464519632E+02 -0.77289916764E+03  0.78186963941E+03  0.80151699991E+02 0.  0.
         25    2    1    2    0    0  0.28998059194E+01  0.19703906782E+03  0.47123483683E+03  0.52587201222E+03  0.12508516567E+03 0.  0.
         24    2    1    2    0    0 -0.97263369621E+01 -0.11057454819E+03  0.61251783526E+03  0.62771829978E+03  0.80813569620E+02 0.  0.
        -11    1    5    5    0    0  0.12943893340E+02 -0.11323562608E+03  0.52891778865E+03  0.54105811013E+03  0.00000000000E+00 0.  1.
         12    1    5    5    0    0 -0.22670230302E+02  0.26610778912E+01  0.83600046605E+02  0.86660189648E+02  0.00000000000E+00 0. -1.
         11    1    3    3    0    0  0.65234600713E+01 -0.13954934741E+02 -0.18857191174E+02  0.24349320194E+02  0.00000000000E+00 0. -1.
        -12    1    3    3    0    0  0.30307097144E+00 -0.72509584892E+02 -0.75404197647E+03  0.75752031922E+03  0.00000000000E+00 0.  1.
          5    1    4    4  501    0 -0.48039950903E+02  0.15572611368E+03  0.37942845696E+03  0.41296717269E+03  0.41800000000E+01 0. -1.
         -5    1    4    4    0  501  0.50939756823E+02  0.41312954139E+02  0.91806379865E+02  0.11290483953E+03  0.41800000000E+01 0. -1.
</event>
<event>
11    1  0.6455215E-009  0.3468966E+03  0.7561462E-02  0.9820903E-01
         22   -1    0    0    0    0  0.00000000000E+00  0.00000000000E+00  0.54128228654E+03  0.54128228654E+03  0.00000000000E+00 0.  1.
         22   -1    0    0    0    0 -0.00000000000E+00 -0.00000000000E+00 -0.14704663267E+04  0.14704663267E+04  0.00000000000E+00 0.  1.
         24    2    1    2    0    0  0.53616926795E+02  0.22469205981E+02 -0.10962738371E+04  0.11007409642E+04  0.80216608729E+02 0.  0.
         25    2    1    2    0    0  0.15770860538E+03  0.23397462640E+03 -0.23131515413E+03  0.38570844592E+03  0.12509266451E+03 0.  0.
        -24    2    1    2    0    0 -0.21132553217E+03 -0.25644383238E+03  0.39840495109E+03  0.52529920310E+03  0.82406480370E+02 0.  0.
        -11    1    3    3    0    0  0.26162295132E+01  0.42354144501E+02 -0.58758296150E+03  0.58911327846E+03  0.00000000000E+00 0.  1.
         12    1    3    3    0    0  0.51000697282E+02 -0.19884938520E+02 -0.50869087559E+03  0.51162768573E+03  0.00000000000E+00 0. -1.
         11    1    5    5    0    0 -0.82403691155E+02 -0.16449350313E+03  0.21059823848E+03  0.27964280599E+03  0.00000000000E+00 0. -1.
        -12    1    5    5    0    0 -0.12892184102E+03 -0.91950329248E+02  0.18780671261E+03  0.24565639711E+03  0.00000000000E+00 0.  1.
          5    1    4    4  501    0  0.13642740112E+03  0.19515553433E+03 -0.24247036442E+03  0.33986389684E+03  0.41800000000E+01 0. -1.
         -5    1    4    4    0  501  0.21281204258E+02  0.38819092069E+02  0.11155210283E+02  0.45844549078E+02  0.41800000000E+01 0. -1.
</event>
<event>
11    1  0.6455215E-009  0.1519981E+03  0.7561462E-02  0.1094854E+00
         22   -1    0    0    0    0  0.00000000000E+00  0.00000000000E+00  0.28357513102E+04  0.28357513102E+04  0.00000000000E+00 0.  1.
         22   -1    0    0    0    0 -0.00000000000E+00 -0.00000000000E+00 -0.18506567174E+03  0.18506567174E+03  0.00000000000E+00 0. -1.
         24    2    1    2    0    0  0.38318259235E+02 -0.51084018838E+02 -0.13692599535E+03  0.16974563558E+03  0.77375620355E+02 0.  0.
         25    2    1    2    0    0  0.35162854170E+01  0.12553915488E+03  0.22608996988E+03  0.28729281585E+03  0.12509214160E+03 0.  0.
        -24    2    1    2    0    0 -0.41834544652E+02 -0.74455136038E+02  0.25615216639E+04  0.25637785305E+04  0.65371417989E+02 0.  0.
        -13    1    3    3    0    0  0.61292226707E+02 -0.36736087986E+02 -0.83933928666E+02  0.11023239813E+03  0.00000000000E+00 0.  1.
         14    1    3    3    0    0 -0.22973967472E+02 -0.14347930851E+02 -0.52992066681E+02  0.59513237454E+02  0.00000000000E+00 0. -1.
         13    1    5    5    0    0 -0.17943260927E+02 -0.11422026309E+00  0.16273367933E+03  0.16371995617E+03  0.00000000000E+00 0. -1.
        -14    1    5    5    0    0 -0.23891283725E+02 -0.74340915775E+02  0.23987879846E+04  0.24000585743E+04  0.00000000000E+00 0.  1.
          5    1    4    4  501    0  0.31987593900E+02  0.87632899116E+02  0.22039447819E+03  0.23936150398E+03  0.41800000000E+01 0.  1.
         -5    1    4    4    0  501 -0.28471308483E+02  0.37906255760E+02  0.56954916948E+01  0.47931311875E+02  0.41800000000E+01 0.  1.
</event>
<event>
11    1  0.6455215E-009  0.2254923E+03  0.7561462E-02  0.1037830E+00
         22   -1    0    0    0    0  0.00000000000E+00  0.00000000000E+00  0.51523224180E+03  0.51523224180E+03  0.00000000000E+00 0.  1.
         22   -1    0    0    0    0 -0.00000000000E+00 -0.00000000000E+00 -0.21828551512E+04  0.21828551512E+04  0.00000000000E+00 0.  1.
        -24    2    1    2    0    0 -0.10178631062E+03  0.13170365009E+03 -0.13241261073E+04  0.13367322867E+04  0.76399960218E+02 0.  0.
         25    2    1    2    0    0  0.12275902513E+03 -0.27190560090E+03 -0.80735021296E+03  0.86975009555E+03  0.12509367809E+03 0.  0.
         24    2    1    2    0    0 -0.20972714516E+02  0.14020195081E+03  0.46385341080E+03  0.49160501076E+03  0.80119024750E+02 0.  0.
        -13    1    5    5    0    0 -0.47193769195E+02  0.68477783392E+02  0.19219419491E+03  0.20941601473E+03  0.00000000000E+00 0.  1.
         14    1    5    5    0    0  0.26221054679E+02  0.71724167415E+02  0.27165921589E+03  0.28218899603E+03  0.00000000000E+00 0. -1.
         13    1    3    3    0    0 -0.22375484873E+02  0.65899148955E+01 -0.41087446236E+03  0.41153604109E+03  0.00000000000E+00 0. -1.
        -14    1    3    3    0    0 -0.79410825745E+02  0.12511373519E+03 -0.91325164493E+03  0.92519624564E+03  0.00000000000E+00 0.  1.
          5    1    4    4  501    0  0.40761729137E+02 -0.39198217373E+02 -0.59298073819E+02  0.82047259346E+02  0.41800000000E+01 0.  1.
         -5    1    4    4    0  501  0.81997295997E+02 -0.23270738352E+03 -0.74805213914E+03  0.78770283620E+03  0.41800000000E+01 0.  1.
</event>
<event>
11    1  0.6455215E-009  0.2396500E+03  0.7561462E-02  0.1029562E+00
         22   -1    0    0    0    0  0.00000000000E+00  0.00000000000E+00  0.49607484185E+03  0.49607484185E+03  0.00000000000E+00 0.  1.
         22   -1    0    0    0    0 -0.00000000000E+00 -0.00000000000E+00 -0.89527146911E+03  0.89527146911E+03  0.00000000000E+00 0.  1.
         24    2    1    2    0    0  0.20509611410E+03 -0.14150609847E+01 -0.25968891730E+03  0.34406693049E+03  0.94219427239E+02 0.  0.
         25    2    1    2    0    0 -0.20393193040E+03 -0.82378612567E+01 -0.56509930052E+03  0.61371105846E+03  0.12509176325E+03 0.  0.
        -24    2    1    2    0    0 -0.11641836992E+01  0.96529222414E+01  0.42559159056E+03  0.43356832200E+03  0.82211639439E+02 0.  0.
        -11    1    3    3    0    0  0.88408251900E+02  0.44683457224E+02 -0.13221672096E+03  0.16520863069E+03  0.00000000000E+00 0.  1.
         12    1    3    3    0    0  0.11668786220E+03 -0.46098518208E+02 -0.12747219634E+03  0.17885829980E+03  0.00000000000E+00 0. -1.
         11    1    5    5    0    0 -0.59086895489E+01 -0.17878888862E+02  0.21779119035E+02  0.28790576671E+02  0.00000000000E+00 0. -1.
        -12    1    5    5    0    0  0.47445058497E+01  0.27531811103E+02  0.40381247152E+03  0.40477774533E+03  0.00000000000E+00 0.  1.
          5    1    4    4  501    0 -0.25069590629E+02  0.42068357302E+02 -0.17214106387E+03  0.17902024838E+03  0.41800000000E+01 0.  1.
         -5    1    4    4    0  501 -0.17886233977E+03 -0.50306218559E+02 -0.39295823665E+03  0.43469081008E+03  0.41800000000E+01 0.  1.
</event>
<event>
11    1  0.6455215E-009  0.1556888E+03  0.7561462E-02  0.1091204E+00
         22   -1    0    0    0    0  0.00000000000E+00  0.00000000000E+00  0.22103743590E+04  0.22103743590E+04  0.00000000000E+00 0.  1.
         22   -1    0    0    0    0 -0.00000000000E+00 -0.00000000000E+00 -0.67103181339E+03  0.67103181339E+03  0.00000000000E+00 0.  1.
         24    2    1    2    0    0  0.11384516112E+01  0.59237515579E+02 -0.62381024232E+03  0.63192735444E+03  0.81747070558E+02 0.  0.
         25    2    1    2    0    0 -0.15533900650E+02 -0.14821033835E+03  0.18794283592E+03  0.27051718683E+03  0.12509769118E+03 0.  0.
        -24    2    1    2    0    0  0.14395449039E+02  0.88972822767E+02  0.19752099520E+04  0.19789616311E+04  0.81923078298E+02 0.  0.
        -13    1    3    3    0    0 -0.10212768031E+02  0.18954285555E+02 -0.51339681202E+03  0.51384808276E+03  0.00000000000E+00 0.  1.
         14    1    3    3    0    0  0.11351219643E+02  0.40283230024E+02 -0.11041343030E+03  0.11807927168E+03  0.00000000000E+00 0. -1.
         13    1    5    5    0    0 -0.27229773392E+02  0.43369681938E+02  0.53958999976E+03  0.54201453643E+03  0.00000000000E+00 0. -1.
        -14    1    5    5    0    0  0.41625222431E+02  0.45603140829E+02  0.14356199522E+04  0.14369470947E+04  0.00000000000E+00 0.  1.
          5    1    4    4  501    0 -0.67223838688E+02 -0.62509092101E+02  0.11165261950E+03  0.14460363386E+03  0.41800000000E+01 0. -1.
         -5    1    4    4    0  501  0.51689938038E+02 -0.85701246246E+02  0.76290216417E+02  0.12591355298E+03  0.41800000000E+01 0. -1.
</event>
<event>
11    1  0.6455215E-009  0.2030912E+03  0.7561462E-02  0.1052359E+00
         22   -1    0    0    0    0  0.00000000000E+00  0.00000000000E+00  0.10949193963E+04  0.10949193963E+04  0.00000000000E+00 0.  1.
         22   -1    0    0    0    0 -0.00000000000E+00 -0.00000000000E+00 -0.41806817931E+03  0.41806817931E+03  0.00000000000E+00 0. -1.
        -24    2    1    2    0    0 -0.34461122179E+02  0.91718221083E+02 -0.32947347117E+03  0.35279858574E+03  0.79462399136E+02 0.  0.
         25    2    1    2    0    0 -0.18506974173E+01 -0.23764587390E+03  0.19772216147E+03  0.33349663767E+03  0.12508784008E+03 0.  0.
         24    2    1    2    0    0  0.36311819597E+02  0.14592765282E+03  0.80860252667E+03  0.82669235219E+03  0.83479164668E+02 0.  0.
        -11    1    5    5    0    0  0.60130716824E+02  0.11421499312E+03  0.67889346640E+03  0.69105506762E+03  0.00000000000E+00 0.  1.
         12    1    5    5    0    0 -0.23818897228E+02  0.31712659695E+02  0.12970906027E+03  0.13563728458E+03  0.00000000000E+00 0. -1.
         11    1    3    3    0    0 -0.10123245940E+02  0.74907357584E+02 -0.30553458763E+03  0.31474589206E+03  0.00000000000E+00 0. -1.
        -12    1    3    3    0    0 -0.24337876239E+02  0.16810863499E+02 -0.23938883535E+02  0.38052693680E+02  0.00000000000E+00 0.  1.
          5    1    4    4  501    0  0.26407758958E+02 -0.58712256690E+02  0.12018360828E+03  0.13640407222E+03  0.41800000000E+01 0. -1.
         -5    1    4    4    0  501 -0.28258456375E+02 -0.17893361721E+03  0.77538553193E+02  0.19709256545E+03  0.41800000000E+01 0. -1.
</event>
<event>
11    1  0.6455215E-009  0.2053626E+03  0.7561462E-02  0.1050795E+00
         22   -1    0    0    0    0  0.00000000000E+00  0.00000000000E+00  0.88937570868E+03  0.88937570868E+03  0.00000000000E+00 0. -1.
         22   -1    0    0    0    0 -0.00000000000E+00 -0.00000000000E+00 -0.38739248008E+03  0.38739248008E+03  0.00000000000E+00 0. -1.
         24    2    1    2    0    0 -0.98648425550E+02  0.12763493456E+03 -0.33132615116E+03  0.37681213903E+03  0.78664994086E+02 0.  0.
         25    2    1    2    0    0  0.14028231091E+03 -0.14011222071E+03  0.46746988734E+03  0.52295897484E+03  0.12508969842E+03 0.  0.
        -24    2    1    2    0    0 -0.41633885359E+02  0.12477286156E+02  0.36583949243E+03  0.37699707489E+03  0.79994982197E+02 0.  0.
        -13    1    3    3    0    0 -0.69020599698E+02  0.29412585816E+02 -0.11379890281E+03  0.13630529581E+03  0.00000000000E+00 0.  1.
         14    1    3    3    0    0 -0.29627825852E+02  0.98222348743E+02 -0.21752724836E+03  0.24050684322E+03  0.00000000000E+00 0. -1.
         13    1    5    5    0    0  0.23378568795E+02  0.19688887602E+01  0.13164407481E+03  0.13371834741E+03  0.00000000000E+00 0. -1.
        -14    1    5    5    0    0 -0.65012454154E+02  0.10508397396E+02  0.23419541762E+03  0.24327872748E+03  0.00000000000E+00 0.  1.
          5    1    4    4  501    0  0.18297457646E+02  0.18553678873E+02  0.11132531107E+03  0.11441080911E+03  0.41800000000E+01 0.  1.
         -5    1    4    4    0  501  0.12198485326E+03 -0.15866589959E+03  0.35614457627E+03  0.40854816573E+03  0.41800000000E+01 0.  1.
</event>
<event>
11    1  0.6455215E-009  0.2473789E+03  0.7561462E-02  0.1025305E+00
         22   -1    0    0    0    0  0.00000000000E+00  0.00000000000E+00  0.18914548613E+03  0.18914548613E+03  0.00000000000E+00 0. -1.
         22   -1    0    0    0    0 -0.00000000000E+00 -0.00000000000E+00 -0.42153331279E+04  0.42153331279E+04  0.00000000000E+00 0. -1.
        -24    2    1    2    0    0 -0.46886495594E+02 -0.81914086988E+01 -0.36453567133E+04  0.36465583944E+04  0.80604674240E+02 0.  0.
         25    2    1    2    0    0  0.13540791857E+02 -0.20478171028E+03 -0.45624862465E+03  0.51568318333E+03  0.12508971246E+03 0.  0.
         24    2    1    2    0    0  0.33345703736E+02  0.21297311898E+03  0.75417696183E+02  0.24223703635E+03  0.80755603628E+02 0.  0.
        -11    1    5    5    0    0  0.16476384883E+02  0.73802878350E+02 -0.12664921354E+02  0.76672917933E+02  0.00000000000E+00 0.  1.
         12    1    5    5    0    0  0.16869318854E+02  0.13917024063E+03  0.88082617537E+02  0.16556411842E+03  0.00000000000E+00 0. -1.
         13    1    3    3    0    0 -0.65569174893E+02  0.10038870258E+02 -0.28558909293E+04  0.28566611797E+04  0.00000000000E+00 0. -1.
        -14    1    3    3    0    0  0.18682679299E+02 -0.18230278957E+02 -0.78946578404E+03  0.78989721467E+03  0.00000000000E+00 0.  1.
          5    1    4    4  501    0 -0.16788658517E+02 -0.17546941828E+03 -0.25501843354E+03  0.31003749717E+03  0.41800000000E+01 0.  1.
         -5    1    4    4    0  501  0.30329450375E+02 -0.29312292003E+02 -0.20123019111E+03  0.20564568616E+03  0.41800000000E+01 0.  1.
</event>
<event>
11    1  0.6455215E-009  0.1767830E+03  0.7561462E-02  0.1072275E+00
         22   -1    0    0    0    0  0.00000000000E+00  0.00000000000E+00  0.15202520218E+04  0.15202520218E+04  0.00000000000E+00 0. -1.
         22   -1    0    0    0    0 -0.00000000000E+00 -0.00000000000E+00 -0.37429827840E+03  0.37429827840E+03  0.00000000000E+00 0. -1.
         24    2    1    2    0    0 -0.11005190280E+02 -0.12768165665E+02 -0.33944822381E+03  0.34962308555E+03  0.82018687115E+02 0.  0.
         25    2    1    2    0    0  0.84495173561E+02  0.11044096542E+03  0.32442771711E+03  0.37448684422E+03  0.12510160536E+03 0.  0.
        -24    2    1    2    0    0 -0.73489983281E+02 -0.97672799756E+02  0.11609742501E+04  0.11704403705E+04  0.84431616607E+02 0.  0.
        -13    1    3    3    0    0 -0.10644216841E+02  0.81100895187E+01 -0.46386490188E+01  0.14162978814E+02  0.00000000000E+00 0.  1.
         14    1    3    3    0    0 -0.36097343875E+00 -0.20878255184E+02 -0.33480957479E+03  0.33546010674E+03  0.00000000000E+00 0. -1.
         11    1    5    5    0    0 -0.86667883326E+02 -0.67296636549E+02  0.10061143772E+04  0.10120801842E+04  0.00000000000E+00 0. -1.
        -12    1    5    5    0    0  0.13177900045E+02 -0.30376163207E+02  0.15485987294E+03  0.15836018625E+03  0.00000000000E+00 0.  1.
          5    1    4    4  501    0  0.86777417864E+02  0.13469328858E+03  0.29754596088E+03  0.33796992984E+03  0.41800000000E+01 0.  1.
         -5    1    4    4    0  501 -0.22822443028E+01 -0.24252323159E+02  0.26881756231E+02  0.36516914379E+02  0.41800000000E+01 0.  1.
</event>
<event>
11    1  0.6455215E-009  0.1577802E+03  0.7561462E-02  0.1089184E+00
         22   -1    0    0    0    0  0.00000000000E+00  0.00000000000E+00  0.18616265676E+04  0.18616265676E+04  0.00000000000E+00 0.  1.
         22   -1    0    0    0    0 -0.00000000000E+00 -0.00000000000E+00 -0.35796963600E+03  0.35796963600E+03  0.00000000000E+00 0. -1.
         24    2    1    2    0    0 -0.14175938617E+02 -0.17043160250E+02 -0.30370206506E+03  0.31539676204E+03  0.82150755544E+02 0.  0.
         25    2    1    2    0    0 -0.85469228906E+01  0.10983062968E+03  0.10452802141E+03  0.19674698697E+03  0.12508977782E+03 0.  0.
        -24    2    1    2    0    0  0.22722861508E+02 -0.92787469431E+02  0.17028309752E+04  0.17074524546E+04  0.81453738568E+02 0.  0.
        -13    1    3    3    0    0  0.95842759781E+01 -0.21853406171E+02 -0.21391463498E+02  0.32047221688E+02  0.00000000000E+00 0.  1.
         14    1    3    3    0    0 -0.23760214595E+02  0.48102459219E+01 -0.28231060156E+03  0.28334954035E+03  0.00000000000E+00 0. -1.
         13    1    5    5    0    0  0.24891005518E+02  0.84803994156E+00  0.64580747549E+03  0.64628753409E+03  0.00000000000E+00 0. -1.
        -14    1    5    5    0    0 -0.21681440106E+01 -0.93635509372E+02  0.10570234997E+04  0.10611649205E+04  0.00000000000E+00 0.  1.
          5    1    4    4  501    0  0.35393998380E+02  0.30215330572E+02  0.94173603347E+02  0.10512773797E+03  0.41800000000E+01 0.  1.
         -5    1    4    4    0  501 -0.43940921270E+02  0.79615299108E+02  0.10354418068E+02  0.91619249002E+02  0.41800000000E+01 0.  1.
</event>
<event>
11    1  0.6455215E-009  0.1386159E+03  0.7561462E-02  0.1109114E+00
         22   -1    0    0    0    0  0.00000000000E+00  0.00000000000E+00  0.59131538291E+03  0.59131538291E+03  0.00000000000E+00 0.  1.
         22   -1    0    0    0    0 -0.00000000000E+00 -0.00000000000E+00 -0.18491255257E+03  0.18491255257E+03  0.00000000000E+00 0.  1.
         24    2    1    2    0    0  0.61837954976E+02  0.52832686278E+01 -0.13497772295E+03  0.16896892324E+03  0.80496370883E+02 0.  0.
         25    2    1    2    0    0 -0.37594383852E+02 -0.16190219459E+02  0.12191934263E+03  0.17940821525E+03  0.12509005032E+03 0.  0.
        -24    2    1    2    0    0 -0.24243571124E+02  0.10906950831E+02  0.41946121065E+03  0.42785079699E+03  0.80011779912E+02 0.  0.
        -13    1    3    3    0    0 -0.40497416974E+00 -0.94878585186E+01 -0.90636107878E+02  0.91132252878E+02  0.00000000000E+00 0.  1.
         14    1    3    3    0    0  0.62242929146E+02  0.14771127146E+02 -0.44341615068E+02  0.77836670360E+02  0.00000000000E+00 0. -1.
         13    1    5    5    0    0  0.13101469474E+02  0.20900084870E+02  0.44312730578E+02  0.50715679442E+02  0.00000000000E+00 0. -1.
        -14    1    5    5    0    0 -0.37345040598E+02 -0.99931340388E+01  0.37514848007E+03  0.37713511754E+03  0.00000000000E+00 0.  1.
          5    1    4    4  501    0 -0.52922197200E+02 -0.26530076478E+02  0.34665294243E+01  0.59448239172E+02  0.41800000000E+01 0. -1.
         -5    1    4    4    0  501  0.15327813348E+02  0.10339857019E+02  0.11845281321E+03  0.11995997608E+03  0.41800000000E+01 0. -1.
</event>
<event>
11    1  0.6455215E-009  0.1835473E+03  0.7561462E-02  0.1066809E+00
         22   -1    0    0    0    0  0.00000000000E+00  0.00000000000E+00  0.11513783095E+04  0.11513783095E+04  0.00000000000E+00 0. -1.
         22   -1    0    0    0    0 -0.00000000000E+00 -0.00000000000E+00 -0.45397260782E+03  0.45397260782E+03  0.00000000000E+00 0.  1.
        -24    2    1    2    0    0 -0.71365917003E+01 -0.73364935136E+02 -0.32723999907E+03  0.34505009939E+03  0.80871561403E+02 0.  0.
         25    2    1    2    0    0  0.13325080618E+03  0.24487351559E+02 -0.36111919731E+02  0.18790255652E+03  0.12509153555E+03 0.  0.
         24    2    1    2    0    0 -0.12611421447E+03  0.48877583577E+02  0.10607576205E+04  0.10723982614E+04  0.80854736371E+02 0.  0.
        -13    1    5    5    0    0 -0.15917739608E+02  0.44332808167E+02  0.29412990782E+03  0.29787778532E+03  0.00000000000E+00 0.  1.
         14    1    5    5    0    0 -0.11019647487E+03  0.45447754100E+01  0.76662771267E+03  0.77452047609E+03  0.00000000000E+00 0. -1.
         11    1    3    3    0    0 -0.50573208573E+01  0.17614387466E+02 -0.60403666692E+02  0.63122468978E+02  0.00000000000E+00 0. -1.
        -12    1    3    3    0    0 -0.20792708430E+01 -0.90979322602E+02 -0.26683633238E+03  0.28192763041E+03  0.00000000000E+00 0.  1.
          5    1    4    4  501    0 -0.77357032282E+01 -0.29591451644E+02 -0.18066775426E+02  0.35768364362E+02  0.41800000000E+01 0.  1.
         -5    1    4    4    0  501  0.14098650940E+03  0.54078803203E+02 -0.18045144305E+02  0.15213419215E+03  0.41800000000E+01 0.  1.
</event>
<event>
11    1  0.6455215E-009  0.1309231E+03  0.7561462E-02  0.1118140E+00
         22   -1    0    0    0    0  0.00000000000E+00  0.00000000000E+00  0.18751520462E+04  0.18751520462E+04  0.00000000000E+00 0. -1.
         22   -1    0    0    0    0 -0.00000000000E+00 -0.00000000000E+00 -0.91502997508E+02  0.91502997508E+02  0.00000000000E+00 0.  1.
         24    2    1    2    0    0  0.81403718784E+00  0.24819650560E+02 -0.64105386818E+02  0.10558277628E+03  0.80134538850E+02 0.  0.
         25    2    1    2    0    0 -0.25305429305E+02 -0.45752227382E+02  0.10607022643E+04  0.10693313278E+04  0.12508622728E+03 0.  0.
        -24    2    1    2    0    0  0.24491392117E+02  0.20932576822E+02  0.78705217122E+03  0.79174093955E+03  0.79778406093E+02 0.  0.
        -11    1    3    3    0    0  0.16051123306E+01 -0.12338886219E+02 -0.67148336818E+02  0.68291460931E+02  0.00000000000E+00 0.  1.
         12    1    3    3    0    0 -0.79107514278E+00  0.37158536779E+02  0.30429500000E+01  0.37291315345E+02  0.00000000000E+00 0. -1.
         13    1    5    5    0    0  0.24454358748E+01  0.47144497512E+02  0.57562165012E+03  0.57755421208E+03  0.00000000000E+00 0. -1.
        -14    1    5    5    0    0  0.22045956243E+02 -0.26211920690E+02  0.21143052110E+03  0.21418672748E+03  0.00000000000E+00 0.  1.
          5    1    4    4  501    0 -0.60931334392E+02  0.73943740141E+00  0.78876427040E+03  0.79112560377E+03  0.41800000000E+01 0.  1.
         -5    1    4    4    0  501  0.35625905087E+02 -0.46491664783E+02  0.27193799385E+03  0.27820572407E+03  0.41800000000E+01 0.  1.
</event>
<event>
11    1  0.6455215E-009  0.1313518E+03  0.7561462E-02  0.1117619E+00
         22   -1    0    0    0    0  0.00000000000E+00  0.00000000000E+00  0.47004434870E+03  0.47004434870E+03  0.00000000000E+00 0. -1.
         22   -1    0    0    0    0 -0.00000000000E+00 -0.00000000000E+00 -0.28600734921E+03  0.28600734921E+03  0.00000000000E+00 0. -1.
        -24    2    1    2    0    0  0.23751158686E+02 -0.19765990619E+02 -0.24569416880E+03  0.26086718798E+03  0.82044215287E+02 0.  0.
         25    2    1    2    0    0 -0.34723779290E+02  0.52122273974E+02  0.16534786382E+03  0.21659306823E+03  0.12510063487E+03 0.  0.
         24    2    1    2    0    0  0.10972620604E+02 -0.32356283354E+02  0.26438330446E+03  0.27859144169E+03  0.80915587065E+02 0.  0.
        -11    1    5    5    0    0 -0.15650991324E+02 -0.65153128752E+01  0.66648787187E+01  0.18216021509E+02  0.00000000000E+00 0.  1.
         12    1    5    5    0    0  0.26623611928E+02 -0.25840970479E+02  0.25771842575E+03  0.26037542018E+03  0.00000000000E+00 0. -1.
         11    1    3    3    0    0  0.52299200906E+01  0.24105693026E+01 -0.22559949805E+03  0.22567298560E+03  0.00000000000E+00 0. -1.
        -12    1    3    3    0    0  0.18521238596E+02 -0.22176559922E+02 -0.20094670744E+02  0.35194202384E+02  0.00000000000E+00 0.  1.
          5    1    4    4  501    0 -0.27125317747E+02  0.12083369210E+02 -0.13663464535E+02  0.32953806115E+02  0.41800000000E+01 0. -1.
         -5    1    4    4    0  501 -0.75984615433E+01  0.40038904764E+02  0.17901132835E+03  0.18363926212E+03  0.41800000000E+01 0. -1.
</event>
<event>
11    1  0.6455215E-009  0.1838816E+03  0.7561462E-02  0.1066546E+00
         22   -1    0    0    0    0  0.00000000000E+00  0.00000000000E+00  0.11514083238E+04  0.11514083238E+04  0.00000000000E+00 0. -1.
         22   -1    0    0    0    0 -0.00000000000E+00 -0.00000000000E+00 -0.44624087261E+03  0.44624087261E+03  0.00000000000E+00 0. -1.
         24    2    1    2    0    0  0.12783180411E+03  0.44019353820E+02 -0.38911811419E+03  0.41951547399E+03  0.79382948283E+02 0.  0.
         25    2    1    2    0    0 -0.11459277305E+03 -0.63321204033E+02  0.16464161967E+03  0.24473578716E+03  0.12509062345E+03 0.  0.
        -24    2    1    2    0    0 -0.13239031051E+02  0.19301850213E+02  0.92964394574E+03  0.93339793529E+03  0.80287024984E+02 0.  0.
        -13    1    3    3    0    0  0.20326775468E+02  0.11325485009E+02 -0.12339703710E+02  0.26338426287E+02  0.00000000000E+00 0.  1.
         14    1    3    3    0    0  0.10750502864E+03  0.32693868811E+02 -0.37677841048E+03  0.39317704771E+03  0.00000000000E+00 0. -1.
         13    1    5    5    0    0  0.20228758082E+02 -0.13155011091E+02  0.59872246519E+03  0.59920851738E+03  0.00000000000E+00 0. -1.
        -14    1    5    5    0    0 -0.33467789132E+02  0.32456861304E+02  0.33092148055E+03  0.33418941791E+03  0.00000000000E+00 0.  1.
          5    1    4    4  501    0 -0.79130095377E+02  0.26078402576E+02  0.61441170508E+02  0.10360571851E+03  0.41800000000E+01 0. -1.
         -5    1    4    4    0  501 -0.35462677677E+02 -0.89399606608E+02  0.10320044916E+03  0.14113006865E+03  0.41800000000E+01 0. -1.
</event>
<event>
11    1  0.6455215E-009  0.1273817E+03  0.7561462E-02  0.1122529E+00
         22   -1    0    0    0    0  0.00000000000E+00  0.00000000000E+00  0.69285809946E+03  0.69285809946E+03  0.00000000000E+00 0.  1.
         22   -1    0    0    0    0 -0.00000000000E+00 -0.00000000000E+00 -0.25476620005E+03  0.25476620005E+03  0.00000000000E+00 0.  1.
        -24    2    1    2    0    0  0.12025457823E+02  0.25035545898E+01 -0.19841677174E+03  0.21410703246E+03  0.79509286372E+02 0.  0.
         25    2    1    2    0    0 -0.34941222830E+02  0.92126425758E+00  0.48754227492E+02  0.13873890102E+03  0.12509904147E+03 0.  0.
         24    2    1    2    0    0  0.22915765007E+02 -0.34248188474E+01  0.58775444366E+03  0.59477836603E+03  0.88142821501E+02 0.  0.
        -11    1    5    5    0    0  0.39821984529E+02 -0.54019416676E+01  0.56466372585E+03  0.56609194900E+03  0.00000000000E+00 0.  1.
         12    1    5    5    0    0 -0.16906219521E+02  0.19771228202E+01  0.23090717805E+02  0.28686417028E+02  0.00000000000E+00 0. -1.
         11    1    3    3    0    0  0.26905888232E+02 -0.13024102423E+02 -0.23905899248E+02  0.38275920425E+02  0.00000000000E+00 0. -1.
        -12    1    3    3    0    0 -0.14880430409E+02  0.15527657013E+02 -0.17451087249E+03  0.17583111204E+03  0.00000000000E+00 0.  1.
          5    1    4    4  501    0 -0.54017543727E+02 -0.48191303365E+02  0.99923462772E+01  0.73195738499E+02  0.41800000000E+01 0. -1.
         -5    1    4    4    0  501  0.19076320897E+02  0.49112567622E+02  0.38761881215E+02  0.65543162517E+02  0.41800000000E+01 0. -1.
</event>
<event>
11    1  0.6455215E-009  0.1489302E+03  0.7561462E-02  0.1097977E+00
         22   -1    0    0    0    0  0.00000000000E+00  0.00000000000E+00  0.24098955775E+03  0.24098955775E+03  0.00000000000E+00 0.  1.
         22   -1    0    0    0    0 -0.00000000000E+00 -0.00000000000E+00 -0.11642473922E+04  0.11642473922E+04  0.00000000000E+00 0. -1.
        -24    2    1    2    0    0 -0.60911449794E+02 -0.54071518143E+02 -0.10466038479E+04  0.10528962119E+04  0.81097995165E+02 0.  0.
         25    2    1    2    0    0  0.70013519909E+02  0.27292977326E+02 -0.53676010633E+02  0.15548471665E+03  0.12509030103E+03 0.  0.
         24    2    1    2    0    0 -0.91020701152E+01  0.26778540817E+02  0.17702202408E+03  0.19685602141E+03  0.81336081961E+02 0.  0.
        -11    1    5    5    0    0  0.60041305587E+01  0.46742243678E+02  0.15945332625E+03  0.16627161568E+03  0.00000000000E+00 0.  1.
         12    1    5    5    0    0 -0.15106200674E+02 -0.19963702862E+02  0.17568697828E+02  0.30584405734E+02  0.00000000000E+00 0. -1.
         11    1    3    3    0    0 -0.80565277411E+02 -0.44148937290E+02 -0.89487588477E+03  0.89957920259E+03  0.00000000000E+00 0. -1.
        -12    1    3    3    0    0  0.19653827617E+02 -0.99225808530E+01 -0.15172796316E+03  0.15331700935E+03  0.00000000000E+00 0.  1.
          5    1    4    4  501    0  0.85625798025E+02 -0.50350856056E+01 -0.74573047697E+02  0.11373540002E+03  0.41800000000E+01 0.  1.
         -5    1    4    4    0  501 -0.15612278116E+02  0.32328062932E+02  0.20897037064E+02  0.41749316629E+02  0.41800000000E+01 0.  1.
</event>
<event>
11    1  0.6455215E-009  0.1426988E+03  0.7561462E-02  0.1104582E+00
         22   -1    0    0    0    0  0.00000000000E+00  0.00000000000E+00  0.41120327296E+03  0.41120327296E+03  0.00000000000E+00 0.  1.
         22   -1    0    0    0    0 -0.00000000000E+00 -0.00000000000E+00 -0.64344547603E+03  0.64344547603E+03  0.00000000000E+00 0.  1.
         24    2    1    2    0    0  0.70127167327E+02 -0.17262899503E+02 -0.42901755812E+03  0.44242940233E+03  0.80448017851E+02 0.  0.
         25    2    1    2    0    0 -0.61864922819E+02 -0.39815394874E+02 -0.17507567694E+03  0.22740095322E+03  0.12508863467E+03 0.  0.
        -24    2    1    2    0    0 -0.82622445085E+01  0.57078294377E+02  0.37185103199E+03  0.38481839343E+03  0.80534524011E+02 0.  0.
        -13    1    3    3    0    0  0.84793715959E+02 -0.30514835906E+01 -0.37942654069E+03  0.38879787242E+03  0.00000000000E+00 0.  1.
         14    1    3    3    0    0 -0.14666548632E+02 -0.14211415912E+02 -0.49591017435E+02  0.53631529917E+02  0.00000000000E+00 0. -1.
         13    1    5    5    0    0 -0.67914400625E+01 -0.13603212751E+02  0.16233940778E+02  0.22242119694E+02  0.00000000000E+00 0. -1.
        -14    1    5    5    0    0 -0.14708044460E+01  0.70681507128E+02  0.35561709121E+03  0.36257627374E+03  0.00000000000E+00 0.  1.
          5    1    4    4  501    0  0.14018308226E+02  0.30847780858E+02 -0.78662188384E+02  0.85751447980E+02  0.41800000000E+01 0.  1.
         -5    1    4    4    0  501 -0.75883231045E+02 -0.70663175732E+02 -0.96413488561E+02  0.14164950524E+03  0.41800000000E+01 0.  1.
</event>
<event>
11    1  0.6455215E-009  0.1755978E+03  0.7561462E-02  0.1073260E+00
         22   -1    0    0    0    0  0.00000000000E+00  0.00000000000E+00  0.52226797984E+03  0.52226797984E+03  0.00000000000E+00 0.  1.
         22   -1    0    0    0    0 -0.00000000000E+00 -0.00000000000E+00 -0.80254620270E+03  0.80254620270E+03  0.00000000000E+00 0. -1.
        -24    2    1    2    0    0 -0.18131600776E+02  0.23839991244E+02 -0.74987740245E+03  0.75490528258E+03  0.81662517912E+02 0.  0.
         25    2    1    2    0    0 -0.11118282953E+02  0.10719992915E+03  0.20045978575E+03  0.25970861091E+03  0.12509594659E+03 0.  0.
         24    2    1    2    0    0  0.29249883729E+02 -0.13103992039E+03  0.26913939385E+03  0.31020028905E+03  0.75902500418E+02 0.  0.
        -13    1    5    5    0    0  0.54731523508E+02 -0.77084969208E+02  0.16223072988E+03  0.18776698821E+03  0.00000000000E+00 0.  1.
         14    1    5    5    0    0 -0.25481639778E+02 -0.53954951186E+02  0.10690866397E+03  0.12243330084E+03  0.00000000000E+00 0. -1.
         11    1    3    3    0    0 -0.21815841671E+02  0.40318531534E+02 -0.71152644228E+03  0.71300167811E+03  0.00000000000E+00 0. -1.
        -12    1    3    3    0    0  0.36842408948E+01 -0.16478540290E+02 -0.38350960173E+02  0.41903604466E+02  0.00000000000E+00 0.  1.
          5    1    4    4  501    0  0.17045611523E+02  0.76605082172E+02  0.20315664940E+03  0.21782788638E+03  0.41800000000E+01 0.  1.
         -5    1    4    4    0  501 -0.28163894475E+02  0.30594846978E+02 -0.26968636566E+01  0.41880724530E+02  0.41800000000E+01 0.  1.
</event>
<event>
11    1  0.6455215E-009  0.1898394E+03  0.7561462E-02  0.1061951E+00
         22   -1    0    0    0    0  0.00000000000E+00  0.00000000000E+00  0.17811806380E+04  0.17811806380E+04  0.00000000000E+00 0. -1.
         22   -1    0    0    0    0 -0.00000000000E+00 -0.00000000000E+00 -0.17015649588E+03  0.17015649588E+03  0.00000000000E+00 0.  1.
        -24    2    1    2    0    0  0.42009169605E+02  0.29223163145E+02 -0.98398389507E+02  0.13657549566E+03  0.79698553072E+02 0.  0.
         25    2    1    2    0    0 -0.94704399364E+02 -0.15813541302E+03  0.20815928754E+03  0.30488379772E+03  0.12509240189E+03 0.  0.
         24    2    1    2    0    0  0.52695229759E+02  0.12891224988E+03  0.15012632441E+04  0.15098778405E+04  0.80898762552E+02 0.  0.
        -11    1    5    5    0    0  0.83129863073E+01  0.33427469522E+02  0.12705397212E+03  0.13164046981E+03  0.00000000000E+00 0.  1.
         12    1    5    5    0    0  0.44382243452E+02  0.95484780354E+02  0.13742092720E+04  0.13782373707E+04  0.00000000000E+00 0. -1.
         13    1    3    3    0    0 -0.81240246700E+01 -0.20449763126E+02 -0.12161514521E+02  0.25141500039E+02  0.00000000000E+00 0. -1.
        -14    1    3    3    0    0  0.50133194275E+02  0.49672926271E+02 -0.86236874986E+02  0.11143399562E+03  0.00000000000E+00 0.  1.
          5    1    4    4  501    0 -0.42721578700E+02 -0.14451312091E+03  0.19987098785E+03  0.25034987435E+03  0.41800000000E+01 0.  1.
         -5    1    4    4    0  501 -0.51982820665E+02 -0.13622292109E+02  0.82882996961E+01  0.54533923372E+02  0.41800000000E+01 0.  1.
</event>
<event>
11    1  0.6455215E-009  0.1856386E+03  0.7561462E-02  0.1065171E+00
         22   -1    0    0    0    0  0.00000000000E+00  0.00000000000E+00  0.12718437305E+04  0.12718437305E+04  0.00000000000E+00 0. -1.
         22   -1    0    0    0    0 -0.00000000000E+00 -0.00000000000E+00 -0.36424159021E+02  0.36424159021E+02  0.00000000000E+00 0.  1.
        -24    2    1    2    0    0  0.16704675564E+02  0.10717332412E+02  0.16336052953E+03  0.18206754013E+03  0.77897491353E+02 0.  0.
         25    2    1    2    0    0 -0.97297976291E+02  0.99245378985E+02  0.56916665662E+03  0.59909345782E+03  0.12508295947E+03 0.  0.
         24    2    1    2    0    0  0.80593300727E+02 -0.10996271140E+03  0.50289238535E+03  0.52710689160E+03  0.79711014991E+02 0.  0.
        -11    1    5    5    0    0  0.48880118817E+02 -0.61502595473E+01  0.14788407475E+03  0.15587428034E+03  0.00000000000E+00 0.  1.
         12    1    5    5    0    0  0.31713181909E+02 -0.10381245185E+03  0.35500831060E+03  0.37123261126E+03  0.00000000000E+00 0. -1.
         11    1    3    3    0    0 -0.38422729664E+01  0.69348037665E+01  0.16082697521E+03  0.16102226716E+03  0.00000000000E+00 0. -1.
        -12    1    3    3    0    0  0.20546948531E+02  0.37825286459E+01  0.25335543217E+01  0.21045272970E+02  0.00000000000E+00 0.  1.
          5    1    4    4  501    0  0.60798321536E+00 -0.26861017759E+02  0.89375911845E+02  0.93420607667E+02  0.41800000000E+01 0. -1.
         -5    1    4    4    0  501 -0.97905959506E+02  0.12610639674E+03  0.47979074477E+03  0.50567285015E+03  0.41800000000E+01 0. -1.
</event>
<event>
11    1  0.6455215E-009  0.1761928E+03  0.7561462E-02  0.1072765E+00
         22   -1    0    0    0    0  0.00000000000E+00  0.00000000000E+00  0.12399242450E+04  0.12399242450E+04  0.00000000000E+00 0.  1.
         22   -1    0    0    0    0 -0.00000000000E+00 -0.00000000000E+00 -0.92032601114E+03  0.92032601114E+03  0.00000000000E+00 0. -1.
         24    2    1    2    0    0 -0.41380995016E+02  0.18888701000E+02 -0.49294812951E+03  0.50219793338E+03  0.84473286502E+02 0.  0.
         25    2    1    2    0    0 -0.39439530627E+02  0.75910466186E+02 -0.40449263409E+03  0.43193434994E+03  0.12504045815E+03 0.  0.
        -24    2    1    2    0    0  0.80820525643E+02 -0.94799167186E+02  0.12170389974E+04  0.12261179728E+04  0.81624276207E+02 0.  0.
        -13    1    3    3    0    0  0.85559549611E+01  0.40598465340E+02 -0.21338062412E+03  0.21737693185E+03  0.00000000000E+00 0.  1.
         14    1    3    3    0    0 -0.49936949977E+02 -0.21709764340E+02 -0.27956750539E+03  0.28482100153E+03  0.00000000000E+00 0. -1.
         11    1    5    5    0    0  0.82090759638E+02 -0.39418814752E+02  0.64378289415E+03  0.65019162604E+03  0.00000000000E+00 0. -1.
        -12    1    5    5    0    0 -0.12702339944E+01 -0.55380352434E+02  0.57325610328E+03  0.57592634675E+03  0.00000000000E+00 0.  1.
          5    1    4    4  501    0  0.97736103338E+01 -0.18172023534E+02 -0.20346563866E+03  0.20455191129E+03  0.41800000000E+01 0. -1.
         -5    1    4    4    0  501 -0.49213140961E+02  0.94082489720E+02 -0.20102699543E+03  0.22738243865E+03  0.41800000000E+01 0. -1.
</event>
<event>
11    1  0.6455215E-009  0.1346072E+03  0.7561462E-02  0.1113734E+00
         22   -1    0    0    0    0  0.00000000000E+00  0.00000000000E+00  0.47361814986E+03  0.47361814986E+03  0.00000000000E+00 0. -1.
         22   -1    0    0    0    0 -0.00000000000E+00 -0.00000000000E+00 -0.40036256267E+03  0.40036256267E+03  0.00000000000E+00 0. -1.
         24    2    1    2    0    0  0.51400943972E+02 -0.68170980290E+01 -0.26496650867E+03  0.28136556582E+03  0.79188389575E+02 0.  0.
         25    2    1    2    0    0 -0.41277032098E+02 -0.46802847647E+01 -0.88082881452E+02  0.15853268367E+03  0.12509324260E+03 0.  0.
        -24    2    1    2    0    0 -0.10123911874E+02  0.11497382794E+02  0.42630497732E+03  0.43408246304E+03  0.80355258878E+02 0.  0.
        -13    1    3    3    0    0  0.42634706644E+02 -0.21524113299E+02 -0.64960121329E+02  0.80627681518E+02  0.00000000000E+00 0.  1.
         14    1    3    3    0    0  0.87662373275E+01  0.14707015270E+02 -0.20000638735E+03  0.20073788430E+03  0.00000000000E+00 0. -1.
         11    1    5    5    0    0  0.77128371564E+01  0.33875906593E+02  0.36241136460E+03  0.36407288020E+03  0.00000000000E+00 0. -1.
        -12    1    5    5    0    0 -0.17836749030E+02 -0.22378523800E+02  0.63893612717E+02  0.70009582840E+02  0.00000000000E+00 0.  1.
          5    1    4    4  501    0 -0.29972359198E+02 -0.61161688228E+02 -0.70607449362E+02  0.98193577836E+02  0.41800000000E+01 0.  1.
         -5    1    4    4    0  501 -0.11304672900E+02  0.56481403463E+02 -0.17475432090E+02  0.60339105838E+02  0.41800000000E+01 0.  1.
</event>
<event>
11    1  0.6455215E-009  0.1616289E+03  0.7561462E-02  0.1085555E+00
         22   -1    0    0    0    0  0.00000000000E+00  0.00000000000E+00  0.12179802666E+04  0.12179802666E+04  0.00000000000E+00 0. -1.
         22   -1    0    0    0    0 -0.00000000000E+00 -0.00000000000E+00 -0.25165646820E+03  0.25165646820E+03  0.00000000000E+00 0.  1.
         24    2    1    2    0    0  0.98271645582E+02  0.30159056709E+02 -0.21459815620E+03  0.25208381226E+03  0.83228569228E+02 0.  0.
         25    2    1    2    0    0 -0.63955628319E+02 -0.96331093899E+02  0.49922792890E+03  0.52748993146E+03  0.12508837178E+03 0.  0.
        -24    2    1    2    0    0 -0.34316017263E+02  0.66172037190E+02  0.68169402574E+03  0.69006299111E+03  0.76966612378E+02 0.  0.
        -13    1    3    3    0    0 -0.56118235510E+01  0.18038779991E+02 -0.76801080164E+02  0.79090429645E+02  0.00000000000E+00 0.  1.
         14    1    3    3    0    0  0.10388346913E+03  0.12120276718E+02 -0.13779707603E+03  0.17299338262E+03  0.00000000000E+00 0. -1.
         11    1    5    5    0    0 -0.20855087343E+02  0.74201308448E+02  0.65149771695E+03  0.65604119081E+03  0.00000000000E+00 0. -1.
        -12    1    5    5    0    0 -0.13460929919E+02 -0.80292712577E+01  0.30196308787E+02  0.34021800299E+02  0.00000000000E+00 0.  1.
          5    1    4    4  501    0  0.24550696052E+02  0.11943436154E+02  0.12370864340E+03  0.12675442082E+03  0.41800000000E+01 0. -1.
         -5    1    4    4    0  501 -0.88506324371E+02 -0.10827453005E+03  0.37551928549E+03  0.40073551064E+03  0.41800000000E+01 0. -1.
</event>
<event>
11    1  0.6455215E-009  0.1448282E+03  0.7561462E-02  0.1102284E+00
         22   -1    0    0    0    0  0.00000000000E+00  0.00000000000E+00  0.13674060901E+03  0.13674060901E+03  0.00000000000E+00 0.  1.
         22   -1    0    0    0    0 -0.00000000000E+00 -0.00000000000E+00 -0.29853636937E+03  0.29853636937E+03  0.00000000000E+00 0.  1.
        -24    2    1    2    0    0  0.65794817068E+02  0.19410929960E+02 -0.10488500784E+03  0.14850451863E+03  0.79667967390E+02 0.  0.
         25    2    1    2    0    0 -0.65750692632E+02 -0.53414160657E+02 -0.10734196528E+03  0.18533167801E+03  0.12509719110E+03 0.  0.
         24    2    1    2    0    0 -0.44124436225E-01  0.34003230696E+02  0.50431212760E+02  0.10144078174E+03  0.81183146864E+02 0.  0.
        -13    1    5    5    0    0  0.12098278882E+02  0.52016160632E+01  0.65451042294E+02  0.66762744843E+02  0.00000000000E+00 0.  1.
         14    1    5    5    0    0 -0.12142403318E+02  0.28801614633E+02 -0.15019829534E+02  0.34678036897E+02  0.00000000000E+00 0. -1.
         11    1    3    3    0    0  0.46663626788E+02  0.34805353661E+02 -0.22288806380E+02  0.62335363946E+02  0.00000000000E+00 0. -1.
        -12    1    3    3    0    0  0.19131190281E+02 -0.15394423701E+02 -0.82596201464E+02  0.86169154684E+02  0.00000000000E+00 0.  1.
          5    1    4    4  501    0 -0.28194771317E+02 -0.72287778565E+02 -0.89021686616E+01  0.78212461069E+02  0.41800000000E+01 0. -1.
         -5    1    4    4    0  501 -0.37555921315E+02  0.18873617909E+02 -0.98439796620E+02  0.10711921694E+03  0.41800000000E+01 0. -1.
</event>
<event>
11    1  0.6455215E-009  0.1979268E+03  0.7561462E-02  0.1056000E+00
         22   -1    0    0    0    0  0.00000000000E+00  0.00000000000E+00  0.10228930949E+04  0.10228930949E+04  0.00000000000E+00 0.  1.
         22   -1    0    0    0    0 -0.00000000000E+00 -0.00000000000E+00 -0.12209388231E+04  0.12209388231E+04  0.00000000000E+00 0.  1.
         24    2    1    2    0    0 -0.66926536181E+02  0.21517135884E+01 -0.11060648609E+04  0.11110280398E+04  0.80746749935E+02 0.  0.
         25    2    1    2    0    0  0.16408311028E+03  0.11259265389E+03  0.28095756229E+02  0.23672022651E+03  0.12508685515E+03 0.  0.
        -24    2    1    2    0    0 -0.97156574099E+02 -0.11474436748E+03  0.87992337647E+03  0.89608365159E+03  0.78071072879E+02 0.  0.
        -11    1    3    3    0    0 -0.54325133671E+02 -0.28061230642E+02 -0.92565593990E+03  0.92767320318E+03  0.00000000000E+00 0.  1.
         12    1    3    3    0    0 -0.12601402510E+02  0.30212944230E+02 -0.18040892101E+03  0.18335483665E+03  0.00000000000E+00 0. -1.
         13    1    5    5    0    0 -0.51428134021E+02 -0.40908718099E+02  0.19726132164E+03  0.20791922759E+03  0.00000000000E+00 0. -1.
        -14    1    5    5    0    0 -0.45728440078E+02 -0.73835649384E+02  0.68266205483E+03  0.68816442400E+03  0.00000000000E+00 0.  1.
          5    1    4    4  501    0  0.82311040755E+02  0.81382104372E+01 -0.34822111424E+02  0.89840913527E+02  0.41800000000E+01 0.  1.
         -5    1    4    4    0  501  0.81772069525E+02  0.10445444346E+03  0.62917867652E+02  0.14687931298E+03  0.41800000000E+01 0.  1.
</event>
<event>
11    1  0.6455215E-009  0.1545251E+03  0.7561462E-02  0.1092343E+00
         22   -1    0    0    0    0  0.00000000000E+00  0.00000000000E+00  0.57985090298E+03  0.57985090298E+03  0.00000000000E+00 0.  1.
         22   -1    0    0    0    0 -0.00000000000E+00 -0.00000000000E+00 -0.46272139402E+03  0.46272139402E+03  0.00000000000E+00 0. -1.
         24    2    1    2    0    0  0.88230680660E+02  0.52773566728E+01 -0.35298446406E+03  0.37261198266E+03  0.80182007056E+02 0.  0.
         25    2    1    2    0    0 -0.10528556231E+03 -0.34735595514E+02 -0.22887950781E+02  0.16873294322E+03  0.12512128759E+03 0.  0.
        -24    2    1    2    0    0  0.17054881654E+02  0.29458238841E+02  0.49300192380E+03  0.50122737112E+03  0.83781405279E+02 0.  0.
        -11    1    3    3    0    0  0.29667322000E+02 -0.10811118539E+02 -0.28637281862E+02  0.42627739691E+02  0.00000000000E+00 0.  1.
         12    1    3    3    0    0  0.58563358660E+02  0.16088475212E+02 -0.32434718220E+03  0.32998424297E+03  0.00000000000E+00 0. -1.
         11    1    5    5    0    0  0.15988800878E+02  0.41648157435E+02  0.11999143141E+03  0.12801622703E+03  0.00000000000E+00 0. -1.
        -12    1    5    5    0    0  0.10660807761E+01 -0.12189918594E+02  0.37301049238E+03  0.37321114409E+03  0.00000000000E+00 0.  1.
          5    1    4    4  501    0 -0.23214496650E+02 -0.20433087622E+02 -0.67336406606E+02  0.74216493982E+02  0.41800000000E+01 0.  1.
         -5    1    4    4    0  501 -0.82071065664E+02 -0.14302507892E+02  0.44448455824E+02  0.94516449238E+02  0.41800000000E+01 0.  1.
</event>
<event>
11    1  0.6455215E-009  0.1334299E+03  0.7561462E-02  0.1115125E+00
         22   -1    0    0    0    0  0.00000000000E+00  0.00000000000E+00  0.12730190877E+03  0.12730190877E+03  0.00000000000E+00 0.  1.
         22   -1    0    0    0    0 -0.00000000000E+00 -0.00000000000E+00 -0.16581038054E+04  0.16581038054E+04  0.00000000000E+00 0. -1.
        -24    2    1    2    0    0  0.49674644853E+01 -0.34570817174E+02 -0.12622691519E+04  0.12649625248E+04  0.74745970921E+02 0.  0.
         25    2    1    2    0    0 -0.28767316558E+02  0.72634476448E+02 -0.36119860775E+03  0.39014926742E+03  0.12509472792E+03 0.  0.
         24    2    1    2    0    0  0.23799852073E+02 -0.38063659274E+02  0.92665863044E+02  0.13029392194E+03  0.79839018066E+02 0.  0.
        -13    1    5    5    0    0  0.32055523009E+02 -0.36348295035E+02  0.10483142286E+03  0.11549191455E+03  0.00000000000E+00 0.  1.
         14    1    5    5    0    0 -0.82556709363E+01 -0.17153642392E+01 -0.12165559820E+02  0.14802007391E+02  0.00000000000E+00 0. -1.
         11    1    3    3    0    0 -0.20663598816E+02 -0.23336167439E+02 -0.10891578599E+04  0.10896037835E+04  0.00000000000E+00 0. -1.
        -12    1    3    3    0    0  0.25631063301E+02 -0.11234649735E+02 -0.17311129195E+03  0.17535874133E+03  0.00000000000E+00 0.  1.
          5    1    4    4  501    0  0.35060708883E+02  0.15936381497E+02 -0.23215041435E+03  0.23536038079E+03  0.41800000000E+01 0. -1.
         -5    1    4    4    0  501 -0.63828025442E+02  0.56698094950E+02 -0.12904819341E+03  0.15478888663E+03  0.41800000000E+01 0. -1.
</event>
<event>
11    1  0.6455215E-009  0.1758810E+03  0.7561462E-02  0.1073024E+00
         22   -1    0    0    0    0  0.00000000000E+00  0.00000000000E+00  0.11708089176E+04  0.11708089176E+04  0.00000000000E+00 0.  1.
         22   -1    0    0    0    0 -0.00000000000E+00 -0.00000000000E+00 -0.12489724445E+04  0.12489724445E+04  0.00000000000E+00 0.  1.
        -24    2    1    2    0    0  0.89859382355E+02 -0.45763110555E+02 -0.12036126774E+04  0.12105287886E+04  0.80792943873E+02 0.  0.
         25    2    1    2    0    0 -0.17067464669E+03 -0.41371782022E+02  0.28829666120E+03  0.36001548549E+03  0.12511884575E+03 0.  0.
         24    2    1    2    0    0  0.80815264332E+02  0.87134892577E+02  0.83715248938E+03  0.84923708806E+03  0.79093266496E+02 0.  0.
        -11    1    5    5    0    0  0.74891799741E+02  0.45248933756E+02  0.37142897529E+03  0.38159629369E+03  0.00000000000E+00 0.  1.
         12    1    5    5    0    0  0.59234645909E+01  0.41885958822E+02  0.46572351409E+03  0.46764079437E+03  0.00000000000E+00 0. -1.
         13    1    3    3    0    0  0.30415367535E+02 -0.19982644466E+02 -0.13100407135E+03  0.13596494906E+03  0.00000000000E+00 0. -1.
        -14    1    3    3    0    0  0.59444014820E+02 -0.25780466090E+02 -0.10726086061E+04  0.10745638395E+04  0.00000000000E+00 0.  1.
          5    1    4    4  501    0 -0.12773954183E+03  0.25576711885E+02  0.13738227814E+03  0.18937508148E+03  0.41800000000E+01 0. -1.
         -5    1    4    4    0  501 -0.42935104855E+02 -0.66948493907E+02  0.15091438306E+03  0.17064040401E+03  0.41800000000E+01 0. -1.
</event>
<event>
11    1  0.6455215E-009  0.1513851E+03  0.7561462E-02  0.1095472E+00
         22   -1    0    0    0    0  0.00000000000E+00  0.00000000000E+00  0.24797554992E+03  0.24797554992E+03  0.00000000000E+00 0.  1.
         22   -1    0    0    0    0 -0.00000000000E+00 -0.00000000000E+00 -0.57942249299E+03  0.57942249299E+03  0.00000000000E+00 0.  1.
         24    2    1    2    0    0 -0.84470865235E+02  0.71852635130E+01 -0.41436427001E+03  0.43125812037E+03  0.84254750834E+02 0.  0.
         25    2    1    2    0    0  0.86410387705E+02 -0.15872023515E+02 -0.10905297668E+03  0.18777455384E+03  0.12509218646E+03 0.  0.
        -24    2    1    2    0    0 -0.19395224705E+01  0.86867600022E+01  0.19197030363E+03  0.20836536870E+03  0.80525200096E+02 0.  0.
        -13    1    3    3    0    0 -0.55941588092E+02 -0.16473788275E+01 -0.38611205574E+03  0.39014701680E+03  0.00000000000E+00 0.  1.
         14    1    3    3    0    0 -0.28529277142E+02  0.88326423405E+01 -0.28252214270E+02  0.41111103563E+02  0.00000000000E+00 0. -1.
         11    1    5    5    0    0  0.26865187328E+02 -0.15705771105E+02  0.34617165443E+02  0.46548444436E+02  0.00000000000E+00 0. -1.
        -12    1    5    5    0    0 -0.28804709798E+02  0.24392531108E+02  0.15735313818E+03  0.16181692426E+03  0.00000000000E+00 0.  1.
          5    1    4    4  501    0  0.87330066088E+02  0.40404248802E+02 -0.65328460941E+02  0.11638008409E+03  0.41800000000E+01 0.  1.
         -5    1    4    4    0  501 -0.91967838255E+00 -0.56276272317E+02 -0.43724515742E+02  0.71394469752E+02  0.41800000000E+01 0.  1.
</event>
<event>
11    1  0.6455215E-009  0.1449236E+03  0.7561462E-02  0.1102182E+00
         22   -1    0    0    0    0  0.00000000000E+00  0.00000000000E+00  0.16468604168E+03  0.16468604168E+03  0.00000000000E+00 0. -1.
         22   -1    0    0    0    0 -0.00000000000E+00 -0.00000000000E+00 -0.15343972275E+04  0.15343972275E+04  0.00000000000E+00 0. -1.
         24    2    1    2    0    0 -0.58493627473E+02  0.38212100269E+02 -0.12507359091E+04  0.12551530577E+04  0.78658849890E+02 0.  0.
         25    2    1    2    0    0  0.11809235536E+03 -0.30456130188E+02 -0.23629114265E+03  0.29386242475E+03  0.12509292674E+03 0.  0.
        -24    2    1    2    0    0 -0.59598727888E+02 -0.77559700812E+01  0.11731586594E+03  0.15006778681E+03  0.71729804110E+02 0.  0.
        -13    1    3    3    0    0  0.16830545480E+02  0.10783690113E+01 -0.10523239638E+03  0.10657526631E+03  0.00000000000E+00 0.  1.
         14    1    3    3    0    0 -0.75324172953E+02  0.37133731258E+02 -0.11455035128E+04  0.11485777913E+04  0.00000000000E+00 0. -1.
         11    1    5    5    0    0 -0.56653398054E+01  0.42900464446E+01  0.86505646029E+02  0.86797047004E+02  0.00000000000E+00 0. -1.
        -12    1    5    5    0    0 -0.53933388083E+02 -0.12046016526E+02  0.30810219914E+02  0.63270739804E+02  0.00000000000E+00 0.  1.
          5    1    4    4  501    0 -0.13033059381E+02  0.14903018413E+02 -0.49426840118E+00  0.20240486553E+02  0.41800000000E+01 0.  1.
         -5    1    4    4    0  501  0.13112541474E+03 -0.45359148601E+02 -0.23579687425E+03  0.27362193819E+03  0.41800000000E+01 0.  1.
</event>
<event>
11    1  0.6455215E-009  0.1472637E+03  0.7561462E-02  0.1099708E+00
         22   -1    0    0    0    0  0.00000000000E+00  0.00000000000E+00  0.42439633411E+03  0.42439633411E+03  0.00000000000E+00 0.  1.
         22   -1    0    0    0    0 -0.00000000000E+00 -0.00000000000E+00 -0.59932648274E+03  0.59932648274E+03  0.00000000000E+00 0. -1.
        -24    2    1    2    0    0 -0.38421863976E+02  0.63454536129E+02 -0.23603334691E+03  0.26024404595E+03  0.80700091776E+02 0.  0.
         25    2    1    2    0    0  0.16200983633E+02 -0.83896758101E+02 -0.32966618440E+03  0.36280571255E+03  0.12508818503E+03 0.  0.
         24    2    1    2    0    0  0.22220880343E+02  0.20442221972E+02  0.39076938268E+03  0.40067305835E+03  0.83225821008E+02 0.  0.
        -13    1    5    5    0    0 -0.63738699966E+01 -0.24502296283E+02  0.22816423683E+03  0.22956460465E+03  0.00000000000E+00 0.  1.
         14    1    5    5    0    0  0.28594750340E+02  0.44944518255E+02  0.16260514586E+03  0.17110845370E+03  0.00000000000E+00 0. -1.
         13    1    3    3    0    0 -0.15071895832E+01  0.27482535884E+02 -0.18729548218E+03  0.18930704964E+03  0.00000000000E+00 0. -1.
        -14    1    3    3    0    0 -0.36914674393E+02  0.35972000245E+02 -0.48737864736E+02  0.70936996315E+02  0.00000000000E+00 0.  1.
          5    1    4    4  501    0 -0.21723417136E+02  0.16029416951E+02 -0.16589654442E+02  0.31961509576E+02  0.41800000000E+01 0. -1.
         -5    1    4    4    0  501  0.37924400769E+02 -0.99926175052E+02 -0.31307652996E+03  0.33084420298E+03  0.41800000000E+01 0. -1.
</event>
<event>
11    1  0.6455215E-009  0.1423274E+03  0.7561462E-02  0.1104987E+00
         22   -1    0    0    0    0  0.00000000000E+00  0.00000000000E+00  0.96831346639E+03  0.96831346639E+03  0.00000000000E+00 0. -1.
         22   -1    0    0    0    0 -0.00000000000E+00 -0.00000000000E+00 -0.19188517273E+03  0.19188517273E+03  0.00000000000E+00 0.  1.
        -24    2    1    2    0    0  0.34897814741E+01  0.42638615171E+02 -0.14390074335E+03  0.16962928236E+03  0.78971130300E+02 0.  0.
         25    2    1    2    0    0  0.63963323207E+02 -0.48672358663E+02  0.14311688669E+03  0.20637603988E+03  0.12509325068E+03 0.  0.
         24    2    1    2    0    0 -0.67453104682E+02  0.60337434923E+01  0.77721215031E+03  0.78419331688E+03  0.79461338097E+02 0.  0.
        -13    1    5    5    0    0 -0.31097051389E+02  0.39882658952E+01  0.78446068542E+02  0.84479101201E+02  0.00000000000E+00 0.  1.
         14    1    5    5    0    0 -0.36356053293E+02  0.20454775971E+01  0.69876608177E+03  0.69971421568E+03  0.00000000000E+00 0. -1.
         13    1    3    3    0    0  0.11510257166E+02 -0.21485390929E+02 -0.29798407181E+02  0.38497442953E+02  0.00000000000E+00 0. -1.
        -14    1    3    3    0    0 -0.80204756921E+01  0.64124006100E+02 -0.11410233617E+03  0.13113183941E+03  0.00000000000E+00 0.  1.
          5    1    4    4  501    0  0.43786426573E+02  0.21394801803E+02  0.37799532190E+01  0.49058629645E+02  0.41800000000E+01 0.  1.
         -5    1    4    4    0  501  0.20176896634E+02 -0.70067160466E+02  0.13933693347E+03  0.15731741023E+03  0.41800000000E+01 0.  1.
</event>
<event>
11    1  0.6455215E-009  0.1525834E+03  0.7561462E-02  0.1094268E+00
         22   -1    0    0    0    0  0.00000000000E+00  0.00000000000E+00  0.78139841033E+03  0.78139841033E+03  0.00000000000E+00 0. -1.
         22   -1    0    0    0    0 -0.00000000000E+00 -0.00000000000E+00 -0.17977988813E+04  0.17977988813E+04  0.00000000000E+00 0.  1.
        -24    2    1    2    0    0  0.58152151311E+02 -0.12643990311E+02 -0.17541135929E+04  0.17569749469E+04  0.80653109783E+02 0.  0.
         25    2    1    2    0    0 -0.92248228531E+02  0.87381067911E+02  0.18224748013E+03  0.25496439091E+03  0.12509000728E+03 0.  0.
         24    2    1    2    0    0  0.34096077220E+02 -0.74737077600E+02  0.55546564185E+03  0.56725795374E+03  0.80568812520E+02 0.  0.
        -11    1    5    5    0    0 -0.14079084594E+02 -0.50663304355E+02  0.16716023434E+03  0.17523565555E+03  0.00000000000E+00 0.  1.
         12    1    5    5    0    0  0.48175161813E+02 -0.24073773245E+02  0.38830540751E+03  0.39202229819E+03  0.00000000000E+00 0. -1.
         11    1    3    3    0    0  0.72488721672E+02 -0.17339808994E+02 -0.10254229222E+04  0.10281281307E+04  0.00000000000E+00 0. -1.
        -12    1    3    3    0    0 -0.14336570361E+02  0.46958186831E+01 -0.72869067067E+03  0.72884681620E+03  0.00000000000E+00 0.  1.
          5    1    4    4  501    0 -0.12310059932E+03  0.69327241221E+02  0.15540194340E+03  0.21006489555E+03  0.41800000000E+01 0.  1.
         -5    1    4    4    0  501  0.30852370790E+02  0.18053826691E+02  0.26845536730E+02  0.44899495363E+02  0.41800000000E+01 0.  1.
</event>
<event>
11    1  0.6455215E-009  0.1618907E+03  0.7561462E-02  0.1085312E+00
         22   -1    0    0    0    0  0.00000000000E+00  0.00000000000E+00  0.44005426829E+03  0.44005426829E+03  0.00000000000E+00 0.  1.
         22   -1    0    0    0    0 -0.00000000000E+00 -0.00000000000E+00 -0.33565341950E+03  0.33565341950E+03  0.00000000000E+00 0.  1.
        -24    2    1    2    0    0  0.16576143872E+02 -0.55171038182E+01 -0.23811073792E+03  0.25196341928E+03  0.80521016871E+02 0.  0.
         25    2    1    2    0    0  0.36187575909E+02  0.94257417939E+02  0.41097593944E+01  0.16080825774E+03  0.12509358156E+03 0.  0.
         24    2    1    2    0    0 -0.52763719781E+02 -0.88740314120E+02  0.33840182732E+03  0.36293601078E+03  0.80919081264E+02 0.  0.
        -13    1    5    5    0    0 -0.29625746364E+02 -0.99408279538E+02  0.29374763861E+03  0.31152426242E+03  0.00000000000E+00 0.  1.
         14    1    5    5    0    0 -0.23137973417E+02  0.10667965418E+02  0.44654188710E+02  0.51411748359E+02  0.00000000000E+00 0. -1.
         13    1    3    3    0    0 -0.22396504645E+02 -0.28159524058E+02 -0.83626488337E+02  0.91038188509E+02  0.00000000000E+00 0. -1.
        -14    1    3    3    0    0  0.38972648516E+02  0.22642420239E+02 -0.15448424959E+03  0.16092523077E+03  0.00000000000E+00 0.  1.
          5    1    4    4  501    0  0.77427898733E+02  0.36454845267E+02  0.19864366709E+02  0.87955106221E+02  0.41800000000E+01 0. -1.
         -5    1    4    4    0  501 -0.41240322824E+02  0.57802572672E+02 -0.15754607314E+02  0.72853151516E+02  0.41800000000E+01 0. -1.
</event>
<event>
11    1  0.6455215E-009  0.1538353E+03  0.7561462E-02  0.1093023E+00
         22   -1    0    0    0    0  0.00000000000E+00  0.00000000000E+00  0.16665992030E+04  0.16665992030E+04  0.00000000000E+00 0. -1.
         22   -1    0    0    0    0 -0.00000000000E+00 -0.00000000000E+00 -0.11318797840E+04  0.11318797840E+04  0.00000000000E+00 0.  1.
         24    2    1    2    0    0 -0.10517662824E+02 -0.88749029921E+02 -0.11095035754E+04  0.11159962849E+04  0.80389754085E+02 0.  0.
         25    2    1    2    0    0  0.83811485992E+01  0.10983565571E+03  0.37322624138E+03  0.40875389224E+03  0.12509117575E+03 0.  0.
        -24    2    1    2    0    0  0.21365142245E+01 -0.21086625790E+02  0.12709967530E+04  0.12737288099E+04  0.80641952290E+02 0.  0.
        -11    1    3    3    0    0  0.18763134240E+02 -0.48429456219E+02 -0.85991722129E+03  0.86148423950E+03  0.00000000000E+00 0.  1.
         12    1    3    3    0    0 -0.29280797063E+02 -0.40319573702E+02 -0.24958635411E+03  0.25451204540E+03  0.00000000000E+00 0. -1.
         13    1    5    5    0    0  0.36698496560E+02 -0.27563824232E+02  0.86297055863E+03  0.86419021582E+03  0.00000000000E+00 0. -1.
        -14    1    5    5    0    0 -0.34561982335E+02  0.64771984429E+01  0.40802619442E+03  0.40953859410E+03  0.00000000000E+00 0.  1.
          5    1    4    4  501    0  0.51088223738E+02  0.91367144611E+02  0.32560449140E+03  0.34204344598E+03  0.41800000000E+01 0. -1.
         -5    1    4    4    0  501 -0.42707075138E+02  0.18468511100E+02  0.47621749983E+02  0.66710446263E+02  0.41800000000E+01 0. -1.
</event>
<event>
11    1  0.6455215E-009  0.4163138E+03  0.7561462E-02  0.9602813E-01
         22   -1    0    0    0    0  0.00000000000E+00  0.00000000000E+00  0.12479684869E+04  0.12479684869E+04  0.00000000000E+00 0.  1.
         22   -1    0    0    0    0 -0.00000000000E+00 -0.00000000000E+00 -0.21606860670E+03  0.21606860670E+03  0.00000000000E+00 0.  1.
        -24    2    1    2    0    0 -0.12064185362E+03 -0.74892252740E+02  0.29153408869E+02  0.16573534404E+03  0.80342869322E+02 0.  0.
         25    2    1    2    0    0 -0.21815286166E+03 -0.25794851315E+02  0.23138923971E+02  0.25384980732E+03  0.12509304323E+03 0.  0.
         24    2    1    2    0    0  0.33879471529E+03  0.10068710405E+03  0.97960754738E+03  0.10444519423E+04  0.79556022777E+02 0.  0.
        -11    1    5    5    0    0  0.29557602993E+03  0.11067682866E+03  0.89321214552E+03  0.94733441127E+03  0.00000000000E+00 0.  1.
         12    1    5    5    0    0  0.43218685353E+02 -0.99897246019E+01  0.86395401858E+02  0.97117530979E+02  0.00000000000E+00 0. -1.
         11    1    3    3    0    0 -0.18331653779E+02 -0.54442082544E+02  0.20692842474E+02  0.61058853671E+02  0.00000000000E+00 0. -1.
        -12    1    3    3    0    0 -0.10231019984E+03 -0.20450170195E+02  0.84605663950E+01  0.10467649037E+03  0.00000000000E+00 0.  1.
          5    1    4    4  501    0 -0.11634311632E+03 -0.43702315218E+02 -0.42399989225E+02  0.13138053340E+03  0.41800000000E+01 0. -1.
         -5    1    4    4    0  501 -0.10180974535E+03  0.17907463904E+02  0.65538913196E+02  0.12246927392E+03  0.41800000000E+01 0. -1.
</event>
<event>
11    1  0.6455215E-009  0.1350401E+03  0.7561462E-02  0.1113227E+00
         22   -1    0    0    0    0  0.00000000000E+00  0.00000000000E+00  0.13663898175E+04  0.13663898175E+04  0.00000000000E+00 0.  1.
         22   -1    0    0    0    0 -0.00000000000E+00 -0.00000000000E+00 -0.92295990410E+03  0.92295990410E+03  0.00000000000E+00 0.  1.
        -24    2    1    2    0    0 -0.13606519686E+02 -0.22233327784E+02 -0.89023355430E+03  0.89429641524E+03  0.81060710904E+02 0.  0.
         25    2    1    2    0    0  0.22304439337E+00  0.69976236197E+02  0.15177780802E+03  0.20876006495E+03  0.12509012082E+03 0.  0.
         24    2    1    2    0    0  0.13383475292E+02 -0.47742908413E+02  0.11818856596E+04  0.11862932414E+04  0.89327707784E+02 0.  0.
        -13    1    5    5    0    0  0.13936298868E+02  0.96803455963E+00  0.90810700818E+03  0.90821445476E+03  0.00000000000E+00 0.  1.
         14    1    5    5    0    0 -0.55282357576E+00 -0.48710942973E+02  0.27377865146E+03  0.27807878663E+03  0.00000000000E+00 0. -1.
         11    1    3    3    0    0 -0.19448464386E+02 -0.29458845177E+02 -0.15359037539E+03  0.15759463740E+03  0.00000000000E+00 0. -1.
        -12    1    3    3    0    0  0.58419447005E+01  0.72255173926E+01 -0.73664317891E+03  0.73670177783E+03  0.00000000000E+00 0.  1.
          5    1    4    4  501    0 -0.37820912358E+02  0.70940464017E+00  0.53204608914E+00  0.38061530967E+02  0.41800000000E+01 0. -1.
         -5    1    4    4    0  501  0.38043956751E+02  0.69266831557E+02  0.15124576193E+03  0.17069853398E+03  0.41800000000E+01 0. -1.
</event>
<event>
11    1  0.6455215E-009  0.4970081E+03  0.7561462E-02  0.9400232E-01
         22   -1    0    0    0    0  0.00000000000E+00  0.00000000000E+00  0.19421027780E+04  0.19421027780E+04  0.00000000000E+00 0. -1.
         22   -1    0    0    0    0 -0.00000000000E+00 -0.00000000000E+00 -0.64425599849E+03  0.64425599849E+03  0.00000000000E+00 0.  1.
         24    2    1    2    0    0 -0.30860562463E+03  0.37136206413E+03 -0.44400422215E+03  0.66094846148E+03  0.81030273445E+02 0.  0.
         25    2    1    2    0    0  0.33147192606E+03 -0.33503781267E+03  0.57035867327E+03  0.75038742579E+03  0.12509316101E+03 0.  0.
        -24    2    1    2    0    0 -0.22866301435E+02 -0.36324251457E+02  0.11714923284E+04  0.11750228892E+04  0.80263289937E+02 0.  0.
        -13    1    3    3    0    0 -0.23840259407E+03  0.30189962191E+03 -0.39245199635E+03  0.54954321760E+03  0.00000000000E+00 0.  1.
         14    1    3    3    0    0 -0.70203030560E+02  0.69462442217E+02 -0.51552225799E+02  0.11140524388E+03  0.00000000000E+00 0. -1.
         11    1    5    5    0    0 -0.31332070077E+02 -0.30473719947E+02  0.11532518760E+04  0.11540798221E+04  0.00000000000E+00 0. -1.
        -12    1    5    5    0    0  0.84657686418E+01 -0.58505315102E+01  0.18240452372E+02  0.20943067119E+02  0.00000000000E+00 0.  1.
          5    1    4    4  501    0  0.11413858913E+03 -0.16665744965E+03  0.32046139896E+03  0.37883413742E+03  0.41800000000E+01 0. -1.
         -5    1    4    4    0  501  0.21733333694E+03 -0.16838036302E+03  0.24989727431E+03  0.37155328837E+03  0.41800000000E+01 0. -1.
</event>
<event>
11    1  0.6455215E-009  0.1421928E+03  0.7561462E-02  0.1105134E+00
         22   -1    0    0    0    0  0.00000000000E+00  0.00000000000E+00  0.25422037974E+04  0.25422037974E+04  0.00000000000E+00 0.  1.
         22   -1    0    0    0    0 -0.00000000000E+00 -0.00000000000E+00 -0.30464554794E+03  0.30464554794E+03  0.00000000000E+00 0.  1.
        -24    2    1    2    0    0  0.29480360582E+02  0.11581869407E+01 -0.27050242486E+03  0.28365951246E+03  0.80129420922E+02 0.  0.
         25    2    1    2    0    0 -0.66118281946E+02  0.54886821938E+02  0.19196265357E+03  0.24470317881E+03  0.12508315204E+03 0.  0.
         24    2    1    2    0    0  0.36637921365E+02 -0.56045008879E+02  0.23160980208E+04  0.23184866541E+04  0.81159984414E+02 0.  0.
        -13    1    5    5    0    0 -0.22924376834E+02 -0.65941913331E+01  0.31992124027E+03  0.32080930533E+03  0.00000000000E+00 0.  1.
         14    1    5    5    0    0  0.59562298198E+02 -0.49450817546E+02  0.19961767805E+04  0.19976773488E+04  0.00000000000E+00 0. -1.
         11    1    3    3    0    0  0.42692709634E+01 -0.18969334083E+02 -0.11364793348E+02  0.22521563844E+02  0.00000000000E+00 0. -1.
        -12    1    3    3    0    0  0.25211089618E+02  0.20127521024E+02 -0.25913763151E+03  0.26113794862E+03  0.00000000000E+00 0.  1.
          5    1    4    4  501    0  0.18555351613E+01 -0.33174376137E+02  0.80418988899E+02  0.87112963549E+02  0.41800000000E+01 0. -1.
         -5    1    4    4    0  501 -0.67973817108E+02  0.88061198075E+02  0.11154366467E+03  0.15759021526E+03  0.41800000000E+01 0. -1.
</event>
<event>
11    1  0.6455215E-009  0.2051066E+03  0.7561462E-02  0.1050970E+00
         22   -1    0    0    0    0  0.00000000000E+00  0.00000000000E+00  0.23895774543E+04  0.23895774543E+04  0.00000000000E+00 0.  1.
         22   -1    0    0    0    0 -0.00000000000E+00 -0.00000000000E+00 -0.12390878836E+04  0.12390878836E+04  0.00000000000E+00 0.  1.
         24    2    1    2    0    0  0.16295346997E+03 -0.10683657034E+02 -0.12172185721E+04  0.12306795761E+04  0.79266593510E+02 0.  0.
         25    2    1    2    0    0 -0.10586442099E+03  0.20622541404E+02  0.47845188128E+03  0.50615903470E+03  0.12509276903E+03 0.  0.
        -24    2    1    2    0    0 -0.57089048985E+02 -0.99388843700E+01  0.18892562616E+04  0.18918267270E+04  0.79757146217E+02 0.  0.
        -11    1    3    3    0    0  0.82693108185E+02 -0.45098013872E+02 -0.62663212124E+03  0.63367167869E+03  0.00000000000E+00 0.  1.
         12    1    3    3    0    0  0.80260361785E+02  0.34414356838E+02 -0.59058645090E+03  0.59700789745E+03  0.00000000000E+00 0. -1.
         11    1    5    5    0    0 -0.14692647048E+01  0.13570813669E+02  0.58364523261E+02  0.59939496978E+02  0.00000000000E+00 0. -1.
        -12    1    5    5    0    0 -0.55619784280E+02 -0.23509698039E+02  0.18308917383E+04  0.18318872301E+04  0.00000000000E+00 0.  1.
          5    1    4    4  501    0 -0.50570234700E+02 -0.52038154602E+02  0.18354034825E+03  0.19740782661E+03  0.41800000000E+01 0.  1.
         -5    1    4    4    0  501 -0.55294186286E+02  0.72660696006E+02  0.29491153303E+03  0.30875120809E+03  0.41800000000E+01 0.  1.
</event>
<event>
11    1  0.6455215E-009  0.1405063E+03  0.7561462E-02  0.1106994E+00
         22   -1    0    0    0    0  0.00000000000E+00  0.00000000000E+00  0.12173962362E+04  0.12173962362E+04  0.00000000000E+00 0.  1.
         22   -1    0    0    0    0 -0.00000000000E+00 -0.00000000000E+00 -0.70835247908E+02  0.70835247908E+02  0.00000000000E+00 0. -1.
         24    2    1    2    0    0 -0.31959282843E+01 -0.66280850499E+02  0.58728987914E+01  0.10431631943E+03  0.80274768508E+02 0.  0.
         25    2    1    2    0    0 -0.28358782155E+02  0.53229106322E+02  0.22943604354E+03  0.26819585397E+03  0.12510219712E+03 0.  0.
        -24    2    1    2    0    0  0.31554710439E+02  0.13051744177E+02  0.91125204591E+03  0.91571931066E+03  0.83639207088E+02 0.  0.
        -11    1    3    3    0    0  0.85890433413E+01 -0.83132775428E+02  0.40903481733E+01  0.83675330677E+02  0.00000000000E+00 0.  1.
         12    1    3    3    0    0 -0.11784971626E+02  0.16851924929E+02  0.17825506181E+01  0.20640988754E+02  0.00000000000E+00 0. -1.
         11    1    5    5    0    0  0.51798902310E+02  0.32154594064E+02  0.54158008688E+03  0.54500094926E+03  0.00000000000E+00 0. -1.
        -12    1    5    5    0    0 -0.20244191871E+02 -0.19102849888E+02  0.36967195904E+03  0.37071836140E+03  0.00000000000E+00 0.  1.
          5    1    4    4  501    0 -0.27968113317E+02  0.93790016718E+02  0.16745860658E+03  0.19400680379E+03  0.41800000000E+01 0.  1.
         -5    1    4    4    0  501 -0.39066883716E+00 -0.40560910396E+02  0.61977436969E+02  0.74189050186E+02  0.41800000000E+01 0.  1.
</event>
<event>
11    1  0.6455215E-009  0.1662120E+03  0.7561462E-02  0.1081376E+00
         22   -1    0    0    0    0  0.00000000000E+00  0.00000000000E+00  0.20343639731E+04  0.20343639731E+04  0.00000000000E+00 0.  1.
         22   -1    0    0    0    0 -0.00000000000E+00 -0.00000000000E+00 -0.10061454697E+03  0.10061454697E+03  0.00000000000E+00 0.  1.
        -24    2    1    2    0    0 -0.10412049248E+02 -0.84257181267E+02 -0.46491984618E+02  0.12678770853E+03  0.81889773694E+02 0.  0.
         25    2    1    2    0    0  0.79755540235E+02  0.14260741284E+03  0.10462475886E+04  0.10662922139E+04  0.12508896188E+03 0.  0.
         24    2    1    2    0    0 -0.69343490988E+02 -0.58350231577E+02  0.93399382214E+03  0.94189859763E+03  0.81334120476E+02 0.  0.
        -13    1    5    5    0    0 -0.69023477467E+02 -0.56351299315E+02  0.93527033424E+03  0.93950535256E+03  0.00000000000E+00 0.  1.
         14    1    5    5    0    0 -0.32001352081E+00 -0.19989322615E+01 -0.12765120987E+01  0.23932450726E+01  0.00000000000E+00 0. -1.
         11    1    3    3    0    0  0.31980066879E+02 -0.17720854967E+02 -0.27200299133E+02  0.45569832689E+02  0.00000000000E+00 0. -1.
        -12    1    3    3    0    0 -0.42392116126E+02 -0.66536326300E+02 -0.19291685485E+02  0.81217875840E+02  0.00000000000E+00 0.  1.
          5    1    4    4  501    0  0.10437815165E+03  0.13853251301E+03  0.98256292352E+03  0.99776421402E+03  0.41800000000E+01 0.  1.
         -5    1    4    4    0  501 -0.24622611418E+02  0.40748998371E+01  0.63684665085E+02  0.68527999888E+02  0.41800000000E+01 0.  1.
</event>
<event>
11    1  0.6455215E-009  0.1556848E+03  0.7561462E-02  0.1091208E+00
         22   -1    0    0    0    0  0.00000000000E+00  0.00000000000E+00  0.17074756054E+03  0.17074756054E+03  0.00000000000E+00 0.  1.
         22   -1    0    0    0    0 -0.00000000000E+00 -0.00000000000E+00 -0.12580323050E+04  0.12580323050E+04  0.00000000000E+00 0.  1.
         24    2    1    2    0    0 -0.28960968864E+01 -0.59352465046E+02 -0.10710785415E+04  0.10757640137E+04  0.80795226551E+02 0.  0.
         25    2    1    2    0    0  0.95102032115E+02  0.50180114145E+02 -0.11030831661E+03  0.19843940559E+03  0.12509129709E+03 0.  0.
        -24    2    1    2    0    0 -0.92205935229E+02  0.91723509014E+01  0.94102113586E+02  0.15457644631E+03  0.80328098813E+02 0.  0.
        -13    1    3    3    0    0  0.14496560899E+01  0.52475169186E-01 -0.69469885783E+03  0.69470037234E+03  0.00000000000E+00 0.  1.
         14    1    3    3    0    0 -0.43457529763E+01 -0.59404940216E+02 -0.37637968364E+03  0.38106364134E+03  0.00000000000E+00 0. -1.
         11    1    5    5    0    0 -0.14683929975E+02 -0.44438838850E+01 -0.14058485414E+02  0.20808818218E+02  0.00000000000E+00 0. -1.
        -12    1    5    5    0    0 -0.77522005254E+02  0.13616234786E+02  0.10816059900E+03  0.13376762809E+03  0.00000000000E+00 0.  1.
          5    1    4    4  501    0  0.90153847585E+02  0.86132773164E+02 -0.66415693267E+02  0.14133325001E+03  0.41800000000E+01 0.  1.
         -5    1    4    4    0  501  0.49481845302E+01 -0.35952659019E+02 -0.43892623340E+02  0.57106155573E+02  0.41800000000E+01 0.  1.
</event>
<event>
11    1  0.6455215E-009  0.1455177E+03  0.7561462E-02  0.1101549E+00
         22   -1    0    0    0    0  0.00000000000E+00  0.00000000000E+00  0.12988305052E+04  0.12988305052E+04  0.00000000000E+00 0.  1.
         22   -1    0    0    0    0 -0.00000000000E+00 -0.00000000000E+00 -0.13933236554E+03  0.13933236554E+03  0.00000000000E+00 0.  1.
        -24    2    1    2    0    0  0.47374014121E+02  0.49681362951E+02 -0.30836801884E+02  0.12223191763E+03  0.96318213739E+02 0.  0.
         25    2    1    2    0    0 -0.86446823247E+02 -0.32707759965E+02  0.38094341722E+02  0.16012527614E+03  0.12508426910E+03 0.  0.
         24    2    1    2    0    0  0.39072809127E+02 -0.16973602987E+02  0.11522405998E+04  0.11558056769E+04  0.80084801490E+02 0.  0.
        -11    1    5    5    0    0  0.40288665752E+02 -0.37717690942E+02  0.10513427302E+04  0.10527902626E+04  0.00000000000E+00 0.  1.
         12    1    5    5    0    0 -0.12158566257E+01  0.20744087956E+02  0.10089786963E+03  0.10301541433E+03  0.00000000000E+00 0. -1.
         13    1    3    3    0    0 -0.24201331267E+02  0.17290172207E+02  0.12780371403E+02  0.32372710471E+02  0.00000000000E+00 0. -1.
        -14    1    3    3    0    0  0.71575345388E+02  0.32391190745E+02 -0.43617173287E+02  0.89859207156E+02  0.00000000000E+00 0.  1.
          5    1    4    4  501    0 -0.10536839859E+03 -0.42992373710E+02  0.60344416701E+02  0.12887887587E+03  0.41800000000E+01 0. -1.
         -5    1    4    4    0  501  0.18921575342E+02  0.10284613745E+02 -0.22250074979E+02  0.31246400271E+02  0.41800000000E+01 0. -1.
</event>
<event>
11    1  0.6455215E-009  0.2190572E+03  0.7561462E-02  0.1041810E+00
         22   -1    0    0    0    0  0.00000000000E+00  0.00000000000E+00  0.67871634993E+03  0.67871634993E+03  0.00000000000E+00 0.  1.
         22   -1    0    0    0    0 -0.00000000000E+00 -0.00000000000E+00 -0.46225571426E+03  0.46225571426E+03  0.00000000000E+00 0.  1.
        -24    2    1    2    0    0  0.97011366741E+02 -0.15050727176E+03 -0.39741419681E+03  0.44314776504E+03  0.79863970001E+02 0.  0.
         25    2    1    2    0    0 -0.96726399966E+02  0.16586721150E+03  0.32273724895E+03  0.39582250524E+03  0.12509274756E+03 0.  0.
         24    2    1    2    0    0 -0.28496677467E+00 -0.15359939737E+02  0.29113758353E+03  0.30200179392E+03  0.78790748389E+02 0.  0.
        -13    1    5    5    0    0 -0.25998230889E+02  0.44412506591E+00  0.24796914546E+03  0.24932870343E+03  0.00000000000E+00 0.  1.
         14    1    5    5    0    0  0.25713264114E+02 -0.15804064803E+02  0.43168438069E+02  0.52673090483E+02  0.00000000000E+00 0. -1.
         11    1    3    3    0    0  0.27949977901E+02 -0.20493926076E+02 -0.25124021635E+02  0.42806760376E+02  0.00000000000E+00 0. -1.
        -12    1    3    3    0    0  0.69061388840E+02 -0.13001334569E+03 -0.37229017517E+03  0.40034100466E+03  0.00000000000E+00 0.  1.
          5    1    4    4  501    0 -0.33597495166E+02  0.90542179872E+02  0.56436575878E+02  0.11193407664E+03  0.41800000000E+01 0.  1.
         -5    1    4    4    0  501 -0.63128904801E+02  0.75325031628E+02  0.26630067307E+03  0.28388842859E+03  0.41800000000E+01 0.  1.
</event>
<event>
11    1  0.6455215E-009  0.2011806E+03  0.7561462E-02  0.1053692E+00
         22   -1    0    0    0    0  0.00000000000E+00  0.00000000000E+00  0.36385097126E+03  0.36385097126E+03  0.00000000000E+00 0. -1.
         22   -1    0    0    0    0 -0.00000000000E+00 -0.00000000000E+00 -0.10766124879E+04  0.10766124879E+04  0.00000000000E+00 0. -1.
         24    2    1    2    0    0  0.37418220627E+02  0.46517763158E+02 -0.71348676005E+03  0.72069804563E+03  0.82330375262E+02 0.  0.
         25    2    1    2    0    0 -0.13045310189E+03  0.81867585056E+02 -0.30655805669E+03  0.36516561750E+03  0.12509105805E+03 0.  0.
        -24    2    1    2    0    0  0.93034881265E+02 -0.12838534821E+03  0.30728330006E+03  0.35459979608E+03  0.78611081386E+02 0.  0.
        -13    1    3    3    0    0  0.14820324488E+02  0.53940750951E+02 -0.23292975313E+03  0.23955274267E+03  0.00000000000E+00 0.  1.
         14    1    3    3    0    0  0.22597896139E+02 -0.74229877934E+01 -0.48055700692E+03  0.48114530296E+03  0.00000000000E+00 0. -1.
         13    1    5    5    0    0  0.65812731500E+02 -0.11052154625E+03  0.16815955441E+03  0.21171670589E+03  0.00000000000E+00 0. -1.
        -14    1    5    5    0    0  0.27222149766E+02 -0.17863801959E+02  0.13912374565E+03  0.14288309019E+03  0.00000000000E+00 0.  1.
          5    1    4    4  501    0 -0.13133522654E+03  0.32029830625E+02 -0.27377171616E+03  0.30535762108E+03  0.41800000000E+01 0. -1.
         -5    1    4    4    0  501  0.88212465148E+00  0.49837754431E+02 -0.32786340534E+02  0.59807996424E+02  0.41800000000E+01 0. -1.
</event>
<event>
11    1  0.6455215E-009  0.1534378E+03  0.7561462E-02  0.1093417E+00
         22   -1    0    0    0    0  0.00000000000E+00  0.00000000000E+00  0.89844177466E+03  0.89844177466E+03  0.00000000000E+00 0.  1.
         22   -1    0    0    0    0 -0.00000000000E+00 -0.00000000000E+00 -0.40655188263E+03  0.40655188263E+03  0.00000000000E+00 0.  1.
        -24    2    1    2    0    0  0.72819041019E+02 -0.47372250183E+02 -0.35332609003E+03  0.37280806674E+03  0.81239066416E+02 0.  0.
         25    2    1    2    0    0 -0.10692899751E+03  0.73871906376E+02  0.16091511262E+03  0.24172675884E+03  0.12508910187E+03 0.  0.
         24    2    1    2    0    0  0.34109956490E+02 -0.26499656192E+02  0.68430086944E+03  0.69045883171E+03  0.81240368425E+02 0.  0.
        -13    1    5    5    0    0  0.24750212449E+02  0.17319981729E+02  0.49524772807E+03  0.49616818413E+03  0.00000000000E+00 0.  1.
         14    1    5    5    0    0  0.93597440413E+01 -0.43819637921E+02  0.18905314136E+03  0.19429064758E+03  0.00000000000E+00 0. -1.
         13    1    3    3    0    0  0.60828117350E+02 -0.11123813025E+02 -0.10734892522E+03  0.12388539390E+03  0.00000000000E+00 0. -1.
        -14    1    3    3    0    0  0.11990923669E+02 -0.36248437158E+02 -0.24597716481E+03  0.24892267284E+03  0.00000000000E+00 0.  1.
          5    1    4    4  501    0 -0.99788097143E+02  0.85212271976E+01  0.48317279814E+02  0.11127581756E+03  0.41800000000E+01 0. -1.
         -5    1    4    4    0  501 -0.71409003660E+01  0.65350679178E+02  0.11259783281E+03  0.13045094128E+03  0.41800000000E+01 0. -1.
</event>
<event>
11    1  0.6455215E-009  0.1733890E+03  0.7561462E-02  0.1075120E+00
         22   -1    0    0    0    0  0.00000000000E+00  0.00000000000E+00  0.31723311314E+02  0.31723311314E+02  0.00000000000E+00 0.  1.
         22   -1    0    0    0    0 -0.00000000000E+00 -0.00000000000E+00 -0.21615611386E+04  0.21615611386E+04  0.00000000000E+00 0.  1.
        -24    2    1    2    0    0 -0.20800327875E+02  0.53431838745E+02 -0.95366887230E+03  0.95824282839E+03  0.73874116757E+02 0.  0.
         25    2    1    2    0    0 -0.77305034679E+02  0.32560472964E+02 -0.95035205588E+03  0.96221281635E+03  0.12509284974E+03 0.  0.
         24    2    1    2    0    0  0.98105362553E+02 -0.85992311709E+02 -0.22581689909E+03  0.27282880515E+03  0.80143279029E+02 0.  0.
        -13    1    5    5    0    0  0.88798667632E+02 -0.85443474322E+02 -0.23125238514E+03  0.26203712774E+03  0.00000000000E+00 0.  1.
         14    1    5    5    0    0  0.93066949212E+01 -0.54883738781E+00  0.54354860562E+01  0.10791677418E+02  0.00000000000E+00 0. -1.
         11    1    3    3    0    0 -0.43954274118E+02  0.25545681221E+02 -0.37366555291E+03  0.37710808195E+03  0.00000000000E+00 0. -1.
        -12    1    3    3    0    0  0.23153946244E+02  0.27886157524E+02 -0.58000331940E+03  0.58113474644E+03  0.00000000000E+00 0.  1.
          5    1    4    4  501    0 -0.96402262011E+01  0.58096230028E+02 -0.20452350710E+03  0.21287424283E+03  0.41800000000E+01 0.  1.
         -5    1    4    4    0  501 -0.67664808478E+02 -0.25535757064E+02 -0.74582854877E+03  0.74933857352E+03  0.41800000000E+01 0.  1.
</event>
<event>
11    1  0.6455215E-009  0.1469689E+03  0.7561462E-02  0.1100017E+00
         22   -1    0    0    0    0  0.00000000000E+00  0.00000000000E+00  0.11093927665E+04  0.11093927665E+04  0.00000000000E+00 0.  1.
         22   -1    0    0    0    0 -0.00000000000E+00 -0.00000000000E+00 -0.12271173344E+03  0.12271173344E+03  0.00000000000E+00 0.  1.
        -24    2    1    2    0    0 -0.30883120614E+02  0.20869968173E+02 -0.33229049332E+02  0.93954302391E+02  0.79585919030E+02 0.  0.
         25    2    1    2    0    0  0.18890230894E+02  0.56714199167E+02  0.29953107096E+02  0.14183510252E+03  0.12508663586E+03 0.  0.
         24    2    1    2    0    0  0.11992889721E+02 -0.77584167341E+02  0.98995697527E+03  0.99631509501E+03  0.80410342745E+02 0.  0.
        -11    1    5    5    0    0 -0.20477943004E+02 -0.39023768688E+02  0.74079060925E+03  0.74210034863E+03  0.00000000000E+00 0.  1.
         12    1    5    5    0    0  0.32470832724E+02 -0.38560398653E+02  0.24916636602E+03  0.25421474638E+03  0.00000000000E+00 0. -1.
         11    1    3    3    0    0 -0.34698269048E+02  0.40728439601E+02  0.17691535653E+01  0.53534153319E+02  0.00000000000E+00 0. -1.
        -12    1    3    3    0    0  0.38151484341E+01 -0.19858471427E+02 -0.34998202897E+02  0.40420149072E+02  0.00000000000E+00 0.  1.
          5    1    4    4  501    0  0.70804532100E+02  0.47363720779E+02  0.13016839649E+02  0.86275803829E+02  0.41800000000E+01 0. -1.
         -5    1    4    4    0  501 -0.51914301206E+02  0.93504783887E+01  0.16936267447E+02  0.55559298690E+02  0.41800000000E+01 0. -1.
</event>
<event>
11    1  0.6455215E-009  0.1378196E+03  0.7561462E-02  0.1110018E+00
         22   -1    0    0    0    0  0.00000000000E+00  0.00000000000E+00  0.49589356094E+03  0.49589356094E+03  0.00000000000E+00 0.  1.
         22   -1    0    0    0    0 -0.00000000000E+00 -0.00000000000E+00 -0.14139311306E+04  0.14139311306E+04  0.00000000000E+00 0.  1.
        -24    2    1    2    0    0  0.57772841759E+02 -0.10951975415E+02 -0.12919869767E+04  0.12957776606E+04  0.79697871602E+02 0.  0.
         25    2    1    2    0    0 -0.36538114717E+02  0.16355523432E+02 -0.78330481312E+02  0.15292678187E+03  0.12509356234E+03 0.  0.
         24    2    1    2    0    0 -0.21234727042E+02 -0.54035480178E+01  0.45227988832E+03  0.46112024910E+03  0.87147431353E+02 0.  0.
        -13    1    5    5    0    0 -0.21589330643E+02 -0.41779039114E+02  0.33621949914E+03  0.33949247253E+03  0.00000000000E+00 0.  1.
         14    1    5    5    0    0  0.35460360146E+00  0.36375491097E+02  0.11606038918E+03  0.12162777657E+03  0.00000000000E+00 0. -1.
         13    1    3    3    0    0  0.24742930881E+02  0.11438885556E+02 -0.11779827161E+03  0.12091109761E+03  0.00000000000E+00 0. -1.
        -14    1    3    3    0    0  0.33029910878E+02 -0.22390860971E+02 -0.11741887051E+04  0.11748665630E+04  0.00000000000E+00 0.  1.
          5    1    4    4  501    0  0.13583404864E+02 -0.44119230551E+02 -0.72577409619E+01  0.46916549276E+02  0.41800000000E+01 0.  1.
         -5    1    4    4    0  501 -0.50121519581E+02  0.60474753984E+02 -0.71072740350E+02  0.10601023260E+03  0.41800000000E+01 0.  1.
</event>
<event>
11    1  0.6455215E-009  0.1414708E+03  0.7561462E-02  0.1105927E+00
         22   -1    0    0    0    0  0.00000000000E+00  0.00000000000E+00  0.82684514356E+03  0.82684514356E+03  0.00000000000E+00 0.  1.
         22   -1    0    0    0    0 -0.00000000000E+00 -0.00000000000E+00 -0.17638537114E+03  0.17638537114E+03  0.00000000000E+00 0. -1.
        -24    2    1    2    0    0 -0.48304220731E+02 -0.31090364227E+02 -0.13878057660E+03  0.17012512068E+03  0.79891174458E+02 0.  0.
         25    2    1    2    0    0  0.62737885687E+02 -0.38128001519E+02  0.38053795194E+03  0.40724272259E+03  0.12509082876E+03 0.  0.
         24    2    1    2    0    0 -0.14433664956E+02  0.69218365745E+02  0.40870239709E+03  0.42586267142E+03  0.96549742031E+02 0.  0.
        -13    1    5    5    0    0 -0.22889991319E+02  0.69435037365E+02  0.41071173632E+03  0.41716819925E+03  0.00000000000E+00 0.  1.
         14    1    5    5    0    0  0.84563263630E+01 -0.21667161977E+00 -0.20093392341E+01  0.86944721695E+01  0.00000000000E+00 0. -1.
         13    1    3    3    0    0 -0.57883928276E+02  0.28924949630E+01 -0.11092307272E+03  0.12515128342E+03  0.00000000000E+00 0. -1.
        -14    1    3    3    0    0  0.95797075447E+01 -0.33982859190E+02 -0.27857503876E+02  0.44973837256E+02  0.00000000000E+00 0.  1.
          5    1    4    4  501    0  0.54562960897E+02 -0.39830733064E+02  0.72948700656E+02  0.99511754711E+02  0.41800000000E+01 0. -1.
         -5    1    4    4    0  501  0.81749247895E+01  0.17027315454E+01  0.30758925128E+03  0.30773096788E+03  0.41800000000E+01 0. -1.
</event>
<event>
11    1  0.6455215E-009  0.2486333E+03  0.7561462E-02  0.1024630E+00
         22   -1    0    0    0    0  0.00000000000E+00  0.00000000000E+00  0.23876858232E+03  0.23876858232E+03  0.00000000000E+00 0. -1.
         22   -1    0    0    0    0 -0.00000000000E+00 -0.00000000000E+00 -0.25107219298E+04  0.25107219298E+04  0.00000000000E+00 0. -1.
         24    2    1    2    0    0 -0.12329300042E+02 -0.33922415334E+02 -0.20370967852E+04  0.20389613819E+04  0.79356555122E+02 0.  0.
         25    2    1    2    0    0 -0.11253875697E+03 -0.14691365341E+03 -0.37606385222E+03  0.43739437714E+03  0.12506489049E+03 0.  0.
        -24    2    1    2    0    0  0.12486805701E+03  0.18083606874E+03  0.14120728990E+03  0.27313475308E+03  0.79808390516E+02 0.  0.
        -13    1    3    3    0    0  0.21226390371E+02  0.16240028018E+02 -0.67157503307E+03  0.67210663082E+03  0.00000000000E+00 0.  1.
         14    1    3    3    0    0 -0.33555690413E+02 -0.50162443352E+02 -0.13655217521E+04  0.13668547511E+04  0.00000000000E+00 0. -1.
         11    1    5    5    0    0  0.99205023968E+02  0.18210765512E+03  0.11850559463E+03  0.23884809145E+03  0.00000000000E+00 0. -1.
        -12    1    5    5    0    0  0.25663033045E+02 -0.12715863744E+01  0.22701695277E+02  0.34286661626E+02  0.00000000000E+00 0.  1.
          5    1    4    4  501    0 -0.27364182901E+02  0.17401295241E+02 -0.27518546282E+02  0.42735773907E+02  0.41800000000E+01 0. -1.
         -5    1    4    4    0  501 -0.85174574069E+02 -0.16431494865E+03 -0.34854530594E+03  0.39465860323E+03  0.41800000000E+01 0. -1.
</event>
<event>
11    1  0.6455215E-009  0.1468184E+03  0.7561462E-02  0.1100175E+00
         22   -1    0    0    0    0  0.00000000000E+00  0.00000000000E+00  0.10056140647E+03  0.10056140647E+03  0.00000000000E+00 0. -1.
         22   -1    0    0    0    0 -0.00000000000E+00 -0.00000000000E+00 -0.93577116144E+03  0.93577116144E+03  0.00000000000E+00 0.  1.
         24    2    1    2    0    0  0.12924046245E+02 -0.29061708207E+02 -0.66770950681E+03  0.67478673111E+03  0.92138662569E+02 0.  0.
         25    2    1    2    0    0  0.16114071757E+02  0.96262195292E+02 -0.19217579233E+03  0.24920573400E+03  0.12508352868E+03 0.  0.
        -24    2    1    2    0    0 -0.29038118002E+02 -0.67200487086E+02  0.24675544174E+02  0.11234010281E+03  0.81561623681E+02 0.  0.
        -11    1    3    3    0    0  0.39319068264E+02 -0.89829354589E+00 -0.53851958236E+03  0.53995382826E+03  0.00000000000E+00 0.  1.
         12    1    3    3    0    0 -0.26395022019E+02 -0.28163414661E+02 -0.12918992445E+03  0.13483290285E+03  0.00000000000E+00 0. -1.
         11    1    5    5    0    0 -0.52206842759E+02 -0.39679987782E+02  0.35766487542E+02  0.74694695208E+02  0.00000000000E+00 0. -1.
        -12    1    5    5    0    0  0.23168724756E+02 -0.27520499304E+02 -0.11090943367E+02  0.37645407603E+02  0.00000000000E+00 0.  1.
          5    1    4    4  501    0  0.94250070108E+01  0.27197599172E+02  0.13524845153E+02  0.32077001017E+02  0.41800000000E+01 0. -1.
         -5    1    4    4    0  501  0.66890647466E+01  0.69064596121E+02 -0.20570063748E+03  0.21712873298E+03  0.41800000000E+01 0. -1.
</event>
<event>
11    1  0.6455215E-009  0.1481538E+03  0.7561462E-02  0.1098780E+00
         22   -1    0    0    0    0  0.00000000000E+00  0.00000000000E+00  0.31387156384E+03  0.31387156384E+03  0.00000000000E+00 0. -1.
         22   -1    0    0    0    0 -0.00000000000E+00 -0.00000000000E+00 -0.35896609501E+03  0.35896609501E+03  0.00000000000E+00 0.  1.
        -24    2    1    2    0    0  0.61750437767E+01  0.62906826749E+02 -0.12121816637E+03  0.16126162370E+03  0.85534013128E+02 0.  0.
         25    2    1    2    0    0  0.41653441168E+02 -0.10537813068E+03 -0.17312020640E+03  0.24178164331E+03  0.12509275595E+03 0.  0.
         24    2    1    2    0    0 -0.47828484945E+02  0.42471303926E+02  0.24924384159E+03  0.26979439184E+03  0.81087271922E+02 0.  0.
        -11    1    5    5    0    0  0.17415891762E+02 -0.21799224718E+01  0.16890810190E+02  0.24359080786E+02  0.00000000000E+00 0.  1.
         12    1    5    5    0    0 -0.65244376707E+02  0.44651226398E+02  0.23235303140E+03  0.24543531106E+03  0.00000000000E+00 0. -1.
         11    1    3    3    0    0 -0.18482665530E+02 -0.12595094610E+02 -0.97702591096E+01  0.24407033748E+02  0.00000000000E+00 0. -1.
        -12    1    3    3    0    0  0.24657709306E+02  0.75501921359E+02 -0.11144790726E+03  0.13685458995E+03  0.00000000000E+00 0.  1.
          5    1    4    4  501    0 -0.19902542807E+02  0.18872300491E+02 -0.45451753502E+02  0.53250438801E+02  0.41800000000E+01 0. -1.
         -5    1    4    4    0  501  0.61555983976E+02 -0.12425043117E+03 -0.12766845289E+03  0.18853120451E+03  0.41800000000E+01 0. -1.
</event>
<event>
11    1  0.6455215E-009  0.1342626E+03  0.7561462E-02  0.1114140E+00
         22   -1    0    0    0    0  0.00000000000E+00  0.00000000000E+00  0.33117700209E+03  0.33117700209E+03  0.00000000000E+00 0.  1.
         22   -1    0    0    0    0 -0.00000000000E+00 -0.00000000000E+00 -0.27501506429E+03  0.27501506429E+03  0.00000000000E+00 0. -1.
         24    2    1    2    0    0  0.51872006414E+02  0.14695964743E+02 -0.17669116832E+03  0.20280761783E+03  0.83692798137E+02 0.  0.
         25    2    1    2    0    0 -0.32134416460E+02  0.19152479990E+02 -0.22697759609E+02  0.13252262705E+03  0.12509044799E+03 0.  0.
        -24    2    1    2    0    0 -0.19737589954E+02 -0.33848444733E+02  0.25555086572E+03  0.27086182150E+03  0.80774944776E+02 0.  0.
        -13    1    3    3    0    0  0.75026331609E+02  0.12977811440E+02 -0.14060826295E+03  0.15990014895E+03  0.00000000000E+00 0.  1.
         14    1    3    3    0    0 -0.23154325195E+02  0.17181533030E+01 -0.36082905364E+02  0.42907468878E+02  0.00000000000E+00 0. -1.
         11    1    5    5    0    0 -0.23413937686E+02 -0.28147581097E+02  0.36475094296E+02  0.51681053622E+02  0.00000000000E+00 0. -1.
        -12    1    5    5    0    0  0.36763477325E+01 -0.57008636363E+01  0.21907577143E+03  0.21918076787E+03  0.00000000000E+00 0.  1.
          5    1    4    4  501    0 -0.23996094717E+01  0.27574613099E+02  0.47823415177E+02  0.55413616128E+02  0.41800000000E+01 0. -1.
         -5    1    4    4    0  501 -0.29734806989E+02 -0.84221331086E+01 -0.70521174786E+02  0.77109010926E+02  0.41800000000E+01 0. -1.
</event>
<event>
11    1  0.6455215E-009  0.3491070E+03  0.7561462E-02  0.9813140E-01
         22   -1    0    0    0    0  0.00000000000E+00  0.00000000000E+00  0.92914791518E+03  0.92914791518E+03  0.00000000000E+00 0.  1.
         22   -1    0    0    0    0 -0.00000000000E+00 -0.00000000000E+00 -0.27619906710E+04  0.27619906710E+04  0.00000000000E+00 0.  1.
         24    2    1    2    0    0 -0.32763345372E+02 -0.23567976863E+02 -0.16009479012E+04  0.16044571978E+04  0.98080737565E+02 0.  0.
         25    2    1    2    0    0  0.87535714854E+02 -0.29821049593E+03 -0.11028307151E+04  0.11525953444E+04  0.12509372697E+03 0.  0.
        -24    2    1    2    0    0 -0.54772369482E+02  0.32177847279E+03  0.87093586043E+03  0.93408604396E+03  0.86290593494E+02 0.  0.
        -13    1    3    3    0    0 -0.60938164966E+02 -0.15682987683E+02 -0.13975496979E+04  0.13989655372E+04  0.00000000000E+00 0.  1.
         14    1    3    3    0    0  0.28174819594E+02 -0.78849891800E+01 -0.20339820324E+03  0.20549166065E+03  0.00000000000E+00 0. -1.
         13    1    5    5    0    0 -0.36962122277E+02  0.38468757081E+02  0.15516106639E+03  0.16407620266E+03  0.00000000000E+00 0. -1.
        -14    1    5    5    0    0 -0.17810247205E+02  0.28330971571E+03  0.71577479404E+03  0.77000984130E+03  0.00000000000E+00 0.  1.
          5    1    4    4  501    0 -0.20211316902E+02 -0.12535258985E+03 -0.33770904084E+03  0.36081385475E+03  0.41800000000E+01 0.  1.
         -5    1    4    4    0  501  0.10774703176E+03 -0.17285790608E+03 -0.76512167425E+03  0.79178148965E+03  0.41800000000E+01 0.  1.
</event>
<event>
11    1  0.6455215E-009  0.4245079E+03  0.7561462E-02  0.9580091E-01
         22   -1    0    0    0    0  0.00000000000E+00  0.00000000000E+00  0.12649287106E+04  0.12649287106E+04  0.00000000000E+00 0.  1.
         22   -1    0    0    0    0 -0.00000000000E+00 -0.00000000000E+00 -0.10538453133E+04  0.10538453133E+04  0.00000000000E+00 0.  1.
         24    2    1    2    0    0  0.21060165903E+02 -0.27112582767E+02 -0.78567532239E+03  0.78980735656E+03  0.73015926614E+02 0.  0.
         25    2    1    2    0    0 -0.35199382968E+03  0.25305615419E+03 -0.43572250097E+00  0.45120357398E+03  0.12508957595E+03 0.  0.
        -24    2    1    2    0    0  0.33093366378E+03 -0.22594357142E+03  0.99719444221E+03  0.10777630934E+04  0.81295403510E+02 0.  0.
        -13    1    3    3    0    0 -0.53930445855E+01 -0.45993118074E+02 -0.37508991917E+03  0.37793769236E+03  0.00000000000E+00 0.  1.
         14    1    3    3    0    0  0.26453210488E+02  0.18880535307E+02 -0.41058540321E+03  0.41186966420E+03  0.00000000000E+00 0. -1.
         13    1    5    5    0    0  0.52010057263E+01  0.64733469997E+01  0.14286787833E+02  0.16524738682E+02  0.00000000000E+00 0. -1.
        -14    1    5    5    0    0  0.32573265805E+03 -0.23241691842E+03  0.98290765438E+03  0.10612383547E+04  0.00000000000E+00 0.  1.
          5    1    4    4  501    0 -0.29553412000E+03  0.20428008471E+03  0.47511209226E+02  0.36241627515E+03  0.41800000000E+01 0. -1.
         -5    1    4    4    0  501 -0.56459709681E+02  0.48776069475E+02 -0.47946931727E+02  0.88787298826E+02  0.41800000000E+01 0. -1.
</event>
<event>
11    1  0.6455215E-009  0.1300758E+03  0.7561462E-02  0.1119176E+00
         22   -1    0    0    0    0  0.00000000000E+00  0.00000000000E+00  0.21551631335E+03  0.21551631335E+03  0.00000000000E+00 0.  1.
         22   -1    0    0    0    0 -0.00000000000E+00 -0.00000000000E+00 -0.37984601141E+03  0.37984601141E+03  0.00000000000E+00 0.  1.
        -24    2    1    2    0    0 -0.36701181513E+02 -0.28943021274E+01 -0.23760370569E+03  0.25364286268E+03  0.80770211836E+02 0.  0.
         25    2    1    2    0    0  0.60184917856E+01 -0.20037582406E+02 -0.89809539184E+02  0.15540945417E+03  0.12509443699E+03 0.  0.
         24    2    1    2    0    0  0.30682689728E+02  0.22931884533E+02  0.16308354682E+03  0.18631000791E+03  0.81534514331E+02 0.  0.
        -11    1    5    5    0    0  0.31409307881E+02 -0.26019788501E+02  0.82230062933E+02  0.91789744880E+02  0.00000000000E+00 0.  1.
         12    1    5    5    0    0 -0.72661815392E+00  0.48951673033E+02  0.80853483885E+02  0.94520263029E+02  0.00000000000E+00 0. -1.
         13    1    3    3    0    0 -0.59197674937E+02 -0.31637727075E+01 -0.11928227796E+03  0.13320148652E+03  0.00000000000E+00 0. -1.
        -14    1    3    3    0    0  0.22496493424E+02  0.26947058005E+00 -0.11832142772E+03  0.12044137615E+03  0.00000000000E+00 0.  1.
          5    1    4    4  501    0 -0.23294919880E+02 -0.67139718065E+02 -0.51223727851E+02  0.87702552580E+02  0.41800000000E+01 0. -1.
         -5    1    4    4    0  501  0.29313411666E+02  0.47102135660E+02 -0.38585811333E+02  0.67706901594E+02  0.41800000000E+01 0. -1.
</event>
<event>
11    1  0.6455215E-009  0.1321753E+03  0.7561462E-02  0.1116625E+00
         22   -1    0    0    0    0  0.00000000000E+00  0.00000000000E+00  0.80205435605E+03  0.80205435605E+03  0.00000000000E+00 0.  1.
         22   -1    0    0    0    0 -0.00000000000E+00 -0.00000000000E+00 -0.82673506926E+02  0.82673506926E+02  0.00000000000E+00 0. -1.
        -24    2    1    2    0    0 -0.14930369387E+02  0.24983116686E+02 -0.24582191510E+02  0.89372947666E+02  0.80846568175E+02 0.  0.
         25    2    1    2    0    0  0.28757275868E+02 -0.61080243363E+02  0.20672176805E+03  0.25087615211E+03  0.12508867763E+03 0.  0.
         24    2    1    2    0    0 -0.13826906482E+02  0.36097126677E+02  0.53724127259E+03  0.54447876320E+03  0.79591159707E+02 0.  0.
        -11    1    5    5    0    0 -0.13370092629E+02  0.13790589314E+02  0.50445821414E+03  0.50482376087E+03  0.00000000000E+00 0.  1.
         12    1    5    5    0    0 -0.45681385267E+00  0.22306537363E+02  0.32783058451E+02  0.39655002326E+02  0.00000000000E+00 0. -1.
         13    1    3    3    0    0  0.60094073143E+01 -0.22929296268E+02 -0.28344205617E+02  0.36949419422E+02  0.00000000000E+00 0. -1.
        -14    1    3    3    0    0 -0.20939776701E+02  0.47912412954E+02  0.37620141065E+01  0.52423528244E+02  0.00000000000E+00 0.  1.
          5    1    4    4  501    0  0.68276947120E+02 -0.71575898410E+02  0.12554948926E+03  0.15989057945E+03  0.41800000000E+01 0. -1.
         -5    1    4    4    0  501 -0.39519671252E+02  0.10495655047E+02  0.81172278784E+02  0.90985572668E+02  0.41800000000E+01 0. -1.
</event>
<event>
11    1  0.6455215E-009  0.2913544E+03  0.7561462E-02  0.1003918E+00
         22   -1    0    0    0    0  0.00000000000E+00  0.00000000000E+00  0.13520585722E+04  0.13520585722E+04  0.00000000000E+00 0.  1.
         22   -1    0    0    0    0 -0.00000000000E+00 -0.00000000000E+00 -0.23699640779E+03  0.23699640779E+03  0.00000000000E+00 0.  1.
         24    2    1    2    0    0  0.15597817748E+03  0.12997241304E+03  0.20263299046E+02  0.21950599773E+03  0.80933687365E+02 0.  0.
         25    2    1    2    0    0 -0.37974431800E+03 -0.17586828121E+02  0.22125718642E+03  0.45729361018E+03  0.12509060632E+03 0.  0.
        -24    2    1    2    0    0  0.22376614052E+03 -0.11238558492E+03  0.87354167896E+03  0.91225537210E+03  0.80205945509E+02 0.  0.
        -11    1    3    3    0    0  0.13594025572E+03  0.13909890965E+03  0.88279088599E+01  0.19469512517E+03  0.00000000000E+00 0.  1.
         12    1    3    3    0    0  0.20037921758E+02 -0.91264966026E+01  0.11435390186E+02  0.24810872563E+02  0.00000000000E+00 0. -1.
         11    1    5    5    0    0  0.14684834444E+03 -0.70403202289E+02  0.42289665782E+03  0.45316953820E+03  0.00000000000E+00 0. -1.
        -12    1    5    5    0    0  0.76917796082E+02 -0.41982382633E+02  0.45064502114E+03  0.45908583389E+03  0.00000000000E+00 0.  1.
          5    1    4    4  501    0 -0.28729830460E+03 -0.33441742315E+02  0.21995527138E+03  0.36339573437E+03  0.41800000000E+01 0. -1.
         -5    1    4    4    0  501 -0.92446013401E+02  0.15854914195E+02  0.13019150448E+01  0.93897875805E+02  0.41800000000E+01 0. -1.
</event>
<event>
11    1  0.6455215E-009  0.1450201E+03  0.7561462E-02  0.1102079E+00
         22   -1    0    0    0    0  0.00000000000E+00  0.00000000000E+00  0.79420513925E+02  0.79420513925E+02  0.00000000000E+00 0.  1.
         22   -1    0    0    0    0 -0.00000000000E+00 -0.00000000000E+00 -0.23821454310E+04  0.23821454310E+04  0.00000000000E+00 0.  1.
         24    2    1    2    0    0  0.69823084239E+02 -0.40017346822E+02 -0.21324460136E+04  0.21355006712E+04  0.80996695770E+02 0.  0.
         25    2    1    2    0    0  0.42786045159E+02  0.31120084997E+02 -0.59183721956E+02  0.14814865436E+03  0.12508479321E+03 0.  0.
        -24    2    1    2    0    0 -0.11260912940E+03  0.88972618249E+01 -0.11109518149E+03  0.17791661932E+03  0.80945702715E+02 0.  0.
        -13    1    3    3    0    0  0.72941560441E+02 -0.39140894760E+02 -0.21295417760E+04  0.21311500784E+04  0.00000000000E+00 0.  1.
         14    1    3    3    0    0 -0.31184762017E+01 -0.87645206157E+00 -0.29042376262E+01  0.43505928592E+01  0.00000000000E+00 0. -1.
         11    1    5    5    0    0 -0.54081211429E+02  0.38014431991E+02 -0.84640306784E+02  0.10739579136E+03  0.00000000000E+00 0. -1.
        -12    1    5    5    0    0 -0.58527917969E+02 -0.29117170166E+02 -0.26454874702E+02  0.70520827957E+02  0.00000000000E+00 0.  1.
          5    1    4    4  501    0  0.72676384375E+02 -0.13933693233E+01 -0.71563547617E+02  0.10209119488E+03  0.41800000000E+01 0. -1.
         -5    1    4    4    0  501 -0.29890339215E+02  0.32513454320E+02  0.12379825661E+02  0.46057459479E+02  0.41800000000E+01 0. -1.
</event>
<event>
11    1  0.6455215E-009  0.1517986E+03  0.7561462E-02  0.1095055E+00
         22   -1    0    0    0    0  0.00000000000E+00  0.00000000000E+00  0.45351625437E+03  0.45351625437E+03  0.00000000000E+00 0. -1.
         22   -1    0    0    0    0 -0.00000000000E+00 -0.00000000000E+00 -0.16532033800E+04  0.16532033800E+04  0.00000000000E+00 0. -1.
         24    2    1    2    0    0  0.85478115045E+02  0.38915380717E+01 -0.15166004226E+04  0.15211908678E+04  0.81382811510E+02 0.  0.
         25    2    1    2    0    0 -0.93311701590E+02 -0.45032916505E+02 -0.78066605152E+02  0.18021092808E+03  0.12508615645E+03 0.  0.
        -24    2    1    2    0    0  0.78335865450E+01  0.41141378434E+02  0.39497990219E+03  0.40531783849E+03  0.80743104740E+02 0.  0.
        -11    1    3    3    0    0  0.76678876204E+02 -0.29270615427E+02 -0.94290551013E+03  0.94647092930E+03  0.00000000000E+00 0.  1.
         12    1    3    3    0    0  0.87992388411E+01  0.33162153498E+02 -0.57369491252E+03  0.57471993847E+03  0.00000000000E+00 0. -1.
         11    1    5    5    0    0 -0.11130370394E+02  0.56214351485E+02  0.34556797016E+03  0.35028725420E+03  0.00000000000E+00 0. -1.
        -12    1    5    5    0    0  0.18963956939E+02 -0.15072973051E+02  0.49411932036E+02  0.55030584287E+02  0.00000000000E+00 0.  1.
          5    1    4    4  501    0 -0.11773705527E+03 -0.58046603212E+02 -0.76909797369E+02  0.15219727875E+03  0.41800000000E+01 0.  1.
         -5    1    4    4    0  501  0.24425353681E+02  0.13013686707E+02 -0.11568077831E+01  0.28013649323E+02  0.41800000000E+01 0.  1.
</event>
<event>
11    1  0.6455215E-009  0.1369665E+03  0.7561462E-02  0.1110994E+00
         22   -1    0    0    0    0  0.00000000000E+00  0.00000000000E+00  0.25017972096E+04  0.25017972096E+04  0.00000000000E+00 0.  1.
         22   -1    0    0    0    0 -0.00000000000E+00 -0.00000000000E+00 -0.69400509398E+03  0.69400509398E+03  0.00000000000E+00 0. -1.
        -24    2    1    2    0    0  0.28633615250E+02 -0.30110947326E+02 -0.66876772916E+03  0.67478250374E+03  0.79715736969E+02 0.  0.
         25    2    1    2    0    0 -0.78481550869E+02  0.50738274379E+02  0.26696883555E+03  0.30927891802E+03  0.12508942267E+03 0.  0.
         24    2    1    2    0    0  0.49847935619E+02 -0.20627327053E+02  0.22095910092E+04  0.22117408818E+04  0.81209586116E+02 0.  0.
        -11    1    5    5    0    0  0.62388856490E+02  0.93363501773E+01  0.16525504455E+04  0.16537540662E+04  0.00000000000E+00 0.  1.
         12    1    5    5    0    0 -0.12540920871E+02 -0.29963677230E+02  0.55704056374E+03  0.55798681553E+03  0.00000000000E+00 0. -1.
         11    1    3    3    0    0  0.15224487719E+02 -0.48888123374E+02 -0.24034006393E+03  0.24573396176E+03  0.00000000000E+00 0. -1.
        -12    1    3    3    0    0  0.13409127530E+02  0.18777176048E+02 -0.42842766523E+03  0.42904854198E+03  0.00000000000E+00 0.  1.
          5    1    4    4  501    0 -0.15402262303E+02 -0.17103494099E+02 -0.32260126490E+01  0.23614375962E+02  0.41800000000E+01 0. -1.
         -5    1    4    4    0  501 -0.63079288566E+02  0.67841768478E+02  0.27019484820E+03  0.28566454206E+03  0.41800000000E+01 0. -1.
</event>
<event>
11    1  0.6455215E-009  0.1544846E+03  0.7561462E-02  0.1092383E+00
         22   -1    0    0    0    0  0.00000000000E+00  0.00000000000E+00  0.71241732374E+03  0.71241732374E+03  0.00000000000E+00 0. -1.
         22   -1    0    0    0    0 -0.00000000000E+00 -0.00000000000E+00 -0.53470493522E+03  0.53470493522E+03  0.00000000000E+00 0.  1.
         24    2    1    2    0    0  0.17032331001E+02 -0.41558861574E+02 -0.38762516737E+03  0.39834310668E+03  0.80041995138E+02 0.  0.
         25    2    1    2    0    0 -0.55882305839E+02  0.12150057458E+03 -0.74709876326E+02  0.19779217928E+03  0.12511977795E+03 0.  0.
        -24    2    1    2    0    0  0.38849974838E+02 -0.79941713004E+02  0.64004743222E+03  0.65098697299E+03  0.78888056683E+02 0.  0.
        -13    1    3    3    0    0  0.42677390884E+02 -0.13665587420E+02 -0.29310945256E+03  0.29651519211E+03  0.00000000000E+00 0.  1.
         14    1    3    3    0    0 -0.25645059883E+02 -0.27893274154E+02 -0.94515714814E+02  0.10182791457E+03  0.00000000000E+00 0. -1.
         13    1    5    5    0    0  0.52843218820E+02 -0.45279604956E+02  0.26158854181E+03  0.27068655971E+03  0.00000000000E+00 0. -1.
        -14    1    5    5    0    0 -0.13993243982E+02 -0.34662108047E+02  0.37845889042E+03  0.38030041329E+03  0.00000000000E+00 0.  1.
          5    1    4    4  501    0  0.26813172874E+02  0.63476677434E+02  0.47498725253E+01  0.69197315748E+02  0.41800000000E+01 0.  1.
         -5    1    4    4    0  501 -0.82695478713E+02  0.58023897143E+02 -0.79459748851E+02  0.12859486353E+03  0.41800000000E+01 0.  1.
</event>
<event>
11    1  0.6455215E-009  0.2285473E+03  0.7561462E-02  0.1035992E+00
         22   -1    0    0    0    0  0.00000000000E+00  0.00000000000E+00  0.31063965910E+04  0.31063965910E+04  0.00000000000E+00 0. -1.
         22   -1    0    0    0    0 -0.00000000000E+00 -0.00000000000E+00 -0.42905257346E+03  0.42905257346E+03  0.00000000000E+00 0.  1.
         24    2    1    2    0    0 -0.18886972647E+03  0.11927664346E+02 -0.35846663429E+03  0.41324290861E+03  0.80357518991E+02 0.  0.
         25    2    1    2    0    0  0.21630083410E+03 -0.75963200729E+02  0.36292226022E+03  0.44712004126E+03  0.12508919071E+03 0.  0.
        -24    2    1    2    0    0 -0.27431107627E+02  0.64035536383E+02  0.26728883916E+04  0.26750862146E+04  0.83071571111E+02 0.  0.
        -13    1    3    3    0    0 -0.14457378494E+03 -0.16972562395E+02 -0.30541299676E+03  0.33832934510E+03  0.00000000000E+00 0.  1.
         14    1    3    3    0    0 -0.44295941528E+02  0.28900226742E+02 -0.53053637534E+02  0.74913563506E+02  0.00000000000E+00 0. -1.
         13    1    5    5    0    0 -0.33243075488E+02 -0.68681208634E+01  0.12009361683E+04  0.12014158121E+04  0.00000000000E+00 0. -1.
        -14    1    5    5    0    0  0.58119678603E+01  0.70903657246E+02  0.14719522233E+04  0.14736704025E+04  0.00000000000E+00 0.  1.
          5    1    4    4  501    0  0.20185387349E+03 -0.96156621000E+02  0.26865621240E+03  0.34954930248E+03  0.41800000000E+01 0.  1.
         -5    1    4    4    0  501  0.14446960607E+02  0.20193420270E+02  0.94266047823E+02  0.97570738775E+02  0.41800000000E+01 0.  1.
</event>
<event>
11    1  0.6455215E-009  0.1408180E+03  0.7561462E-02  0.1106648E+00
         22   -1    0    0    0    0  0.00000000000E+00  0.00000000000E+00  0.83788673094E+03  0.83788673094E+03  0.00000000000E+00 0.  1.
         22   -1    0    0    0    0 -0.00000000000E+00 -0.00000000000E+00 -0.44772306284E+03  0.44772306284E+03  0.00000000000E+00 0.  1.
         24    2    1    2    0    0  0.50799791564E+02  0.44859800179E+02 -0.33600608316E+03  0.35198043362E+03  0.79981980669E+02 0.  0.
         25    2    1    2    0    0 -0.27590239131E+02 -0.40156775712E+02 -0.57096639065E+02  0.14588134961E+03  0.12509018363E+03 0.  0.
        -24    2    1    2    0    0 -0.23209552433E+02 -0.47030244667E+01  0.78326639033E+03  0.78774801055E+03  0.80497752398E+02 0.  0.
        -13    1    3    3    0    0  0.36799072233E+02  0.66421373706E+02 -0.28386878805E+03  0.29384938222E+03  0.00000000000E+00 0.  1.
         14    1    3    3    0    0  0.14000719331E+02 -0.21561573528E+02 -0.52137295111E+02  0.58131051395E+02  0.00000000000E+00 0. -1.
         13    1    5    5    0    0 -0.45301752864E+02 -0.26712247709E+02  0.51286317752E+03  0.51555255003E+03  0.00000000000E+00 0. -1.
        -14    1    5    5    0    0  0.22092200431E+02  0.22009223243E+02  0.27040321281E+03  0.27219546052E+03  0.00000000000E+00 0.  1.
          5    1    4    4  501    0 -0.29113166746E+02 -0.76968489552E+02 -0.58188863651E+01  0.82601795988E+02  0.41800000000E+01 0.  1.
         -5    1    4    4    0  501  0.15229276145E+01  0.36811713840E+02 -0.51277752700E+02  0.63279553620E+02  0.41800000000E+01 0.  1.
</event>
<event>
11    1  0.6455215E-009  0.1357720E+03  0.7561462E-02  0.1112374E+00
         22   -1    0    0    0    0  0.00000000000E+00  0.00000000000E+00  0.17689230761E+03  0.17689230761E+03  0.00000000000E+00 0.  1.
         22   -1    0    0    0    0 -0.00000000000E+00 -0.00000000000E+00 -0.50060419807E+03  0.50060419807E+03  0.00000000000E+00 0. -1.
         24    2    1    2    0    0 -0.43563484983E+02  0.30407476967E+02 -0.26930946904E+03  0.28597709819E+03  0.80205477964E+02 0.  0.
         25    2    1    2    0    0  0.38794598247E+02 -0.34924374546E+02 -0.19004824900E+03  0.23343192919E+03  0.12508955124E+03 0.  0.
        -24    2    1    2    0    0  0.47688867360E+01  0.45168975793E+01  0.13564582757E+03  0.15808747830E+03  0.80924134913E+02 0.  0.
        -11    1    3    3    0    0  0.19199802697E+02  0.24462411332E+02 -0.11867992944E+03  0.12268646072E+03  0.00000000000E+00 0.  1.
         12    1    3    3    0    0 -0.62763287679E+02  0.59450656348E+01 -0.15062953959E+03  0.16329063746E+03  0.00000000000E+00 0. -1.
         11    1    5    5    0    0 -0.46298982460E+01 -0.98270162703E+01 -0.79562481697E+01  0.13465069309E+02  0.00000000000E+00 0. -1.
        -12    1    5    5    0    0  0.93987849820E+01  0.14343913850E+02  0.14360207574E+03  0.14462240899E+03  0.00000000000E+00 0.  1.
          5    1    4    4  501    0 -0.37798288831E+02 -0.44153906249E+02 -0.80266714282E+02  0.99189192442E+02  0.41800000000E+01 0.  1.
         -5    1    4    4    0  501  0.76592887078E+02  0.92295317028E+01 -0.10978153472E+03  0.13424273675E+03  0.41800000000E+01 0.  1.
</event>
<event>
11    1  0.6455215E-009  0.1509375E+03  0.7561462E-02  0.1095925E+00
         22   -1    0    0    0    0  0.00000000000E+00  0.00000000000E+00  0.68855061691E+03  0.68855061691E+03  0.00000000000E+00 0.  1.
         22   -1    0    0    0    0 -0.00000000000E+00 -0.00000000000E+00 -0.17150450276E+04  0.17150450276E+04  0.00000000000E+00 0.  1.
        -24    2    1    2    0    0 -0.42720464400E+02  0.58305499443E+02 -0.16460870940E+04  0.16495176967E+04  0.77982955173E+02 0.  0.
         25    2    1    2    0    0  0.11747895104E+03 -0.21965049057E+02  0.60406158352E+02  0.18324869537E+03  0.12508962016E+03 0.  0.
         24    2    1    2    0    0 -0.74758486641E+02 -0.36340450386E+02  0.55918652497E+03  0.57082925243E+03  0.79038003886E+02 0.  0.
        -13    1    5    5    0    0 -0.87222113200E+02 -0.46248362214E+02  0.47523203255E+03  0.48537829865E+03  0.00000000000E+00 0.  1.
         14    1    5    5    0    0  0.12463626558E+02  0.99079118287E+01  0.83954492424E+02  0.85450953780E+02  0.00000000000E+00 0. -1.
         13    1    3    3    0    0 -0.28547674559E+02 -0.67685903822E+01 -0.89586035183E+03  0.89634064591E+03  0.00000000000E+00 0. -1.
        -14    1    3    3    0    0 -0.14172789842E+02  0.65074089825E+02 -0.75022674217E+03  0.75317705076E+03  0.00000000000E+00 0.  1.
          5    1    4    4  501    0 -0.10909431118E+02 -0.11302886063E+01  0.51487453262E+02  0.52808365654E+02  0.41800000000E+01 0. -1.
         -5    1    4    4    0  501  0.12838838216E+03 -0.20834760451E+02  0.89187050906E+01  0.13044032972E+03  0.41800000000E+01 0. -1.
</event>
<event>
11    1  0.6455215E-009  0.1487474E+03  0.7561462E-02  0.1098166E+00
         22   -1    0    0    0    0  0.00000000000E+00  0.00000000000E+00  0.12406790953E+03  0.12406790953E+03  0.00000000000E+00 0. -1.
         22   -1    0    0    0    0 -0.00000000000E+00 -0.00000000000E+00 -0.15891124734E+04  0.15891124734E+04  0.00000000000E+00 0. -1.
        -24    2    1    2    0    0 -0.44665132082E+02 -0.67550948690E+02 -0.14656027652E+04  0.14699258488E+04  0.78309840203E+02 0.  0.
         25    2    1    2    0    0  0.52964297655E+02  0.46592648517E+02 -0.41783538809E+02  0.14956427617E+03  0.12509003505E+03 0.  0.
         24    2    1    2    0    0 -0.82991655735E+01  0.20958300173E+02  0.42341740079E+02  0.93690257976E+02  0.80479282995E+02 0.  0.
        -13    1    5    5    0    0  0.31705961942E+02 -0.82162042847E+01  0.88978900087E+01  0.33940337095E+02  0.00000000000E+00 0.  1.
         14    1    5    5    0    0 -0.40005127515E+02  0.29174504457E+02  0.33443850071E+02  0.59749920882E+02  0.00000000000E+00 0. -1.
         11    1    3    3    0    0 -0.42261394542E+02 -0.84962477701E+02 -0.12044878809E+04  0.12082200558E+04  0.00000000000E+00 0. -1.
        -12    1    3    3    0    0 -0.24037375394E+01  0.17411529011E+02 -0.26111488428E+03  0.26170579300E+03  0.00000000000E+00 0.  1.
          5    1    4    4  501    0  0.44986264543E+02 -0.18508051290E+02 -0.63724019882E+02  0.80277861643E+02  0.41800000000E+01 0. -1.
         -5    1    4    4    0  501  0.79780331124E+01  0.65100699807E+02  0.21940481073E+02  0.69286414523E+02  0.41800000000E+01 0. -1.
</event>
<event>
11    1  0.6455215E-009  0.1697854E+03  0.7561462E-02  0.1078219E+00
         22   -1    0    0    0    0  0.00000000000E+00  0.00000000000E+00  0.36483540864E+03  0.36483540864E+03  0.00000000000E+00 0.  1.
         22   -1    0    0    0    0 -0.00000000000E+00 -0.00000000000E+00 -0.23744182639E+04  0.23744182639E+04  0.00000000000E+00 0.  1.
         24    2    1    2    0    0  0.71866832329E+02  0.78697268425E+02 -0.15582150614E+04  0.15638679511E+04  0.79313865110E+02 0.  0.
         25    2    1    2    0    0 -0.10738146410E+03 -0.10354947806E+03 -0.79577363193E+03  0.81924167199E+03  0.12509184868E+03 0.  0.
        -24    2    1    2    0    0  0.35514631774E+02  0.24852209639E+02  0.34440583806E+03  0.35614404947E+03  0.79650996766E+02 0.  0.
        -13    1    3    3    0    0  0.15116576157E+01  0.59440741333E+02 -0.76398251510E+03  0.76629287496E+03  0.00000000000E+00 0.  1.
         14    1    3    3    0    0  0.70355174713E+02  0.19256527092E+02 -0.79423254634E+03  0.79757507616E+03  0.00000000000E+00 0. -1.
         13    1    5    5    0    0  0.59400409361E+02  0.73479025275E+01  0.20146140263E+03  0.21016445240E+03  0.00000000000E+00 0. -1.
        -14    1    5    5    0    0 -0.23885777587E+02  0.17504307111E+02  0.14294443544E+03  0.14597959707E+03  0.00000000000E+00 0.  1.
          5    1    4    4  501    0 -0.72806210672E+02 -0.31054617579E+02 -0.63023364623E+03  0.63519843736E+03  0.41800000000E+01 0. -1.
         -5    1    4    4    0  501 -0.34575253430E+02 -0.72494860486E+02 -0.16553998570E+03  0.18404323463E+03  0.41800000000E+01 0. -1.
</event>
<event>
11    1  0.6455215E-009  0.1814863E+03  0.7561462E-02  0.1068447E+00
         22   -1    0    0    0    0  0.00000000000E+00  0.00000000000E+00  0.10367704429E+04  0.10367704429E+04  0.00000000000E+00 0.  1.
         22   -1    0    0    0    0 -0.00000000000E+00 -0.00000000000E+00 -0.17687384529E+04  0.17687384529E+04  0.00000000000E+00 0.  1.
         24    2    1    2    0    0 -0.78899199583E+02 -0.10556576940E+03 -0.16605895471E+04  0.16685391091E+04  0.95372423025E+02 0.  0.
         25    2    1    2    0    0  0.15578276913E+03  0.35753677083E+02  0.40182267262E+01  0.20300856349E+03  0.12509889736E+03 0.  0.
        -24    2    1    2    0    0 -0.76883569544E+02  0.69812092314E+02  0.92460331046E+03  0.93396122325E+03  0.81286366152E+02 0.  0.
        -13    1    3    3    0    0 -0.38075930717E+01 -0.25664466254E+02 -0.86946766570E+03  0.86985469148E+03  0.00000000000E+00 0.  1.
         14    1    3    3    0    0 -0.75091606511E+02 -0.79901303142E+02 -0.79112188145E+03  0.79868441760E+03  0.00000000000E+00 0. -1.
         11    1    5    5    0    0  0.59748242898E+00 -0.11593879798E+02  0.23276383495E+03  0.23305316538E+03  0.00000000000E+00 0. -1.
        -12    1    5    5    0    0 -0.77481051973E+02  0.81405972111E+02  0.69183947551E+03  0.70090805787E+03  0.00000000000E+00 0.  1.
          5    1    4    4  501    0  0.86859906598E+02 -0.41707521208E+02  0.18592608604E+02  0.98220762541E+02  0.41800000000E+01 0.  1.
         -5    1    4    4    0  501  0.68922862529E+02  0.77461198290E+02 -0.14574381878E+02  0.10478780094E+03  0.41800000000E+01 0.  1.
</event>
<event>
11    1  0.6455215E-009  0.1638824E+03  0.7561462E-02  0.1083482E+00
         22   -1    0    0    0    0  0.00000000000E+00  0.00000000000E+00  0.54547219838E+03  0.54547219838E+03  0.00000000000E+00 0.  1.
         22   -1    0    0    0    0 -0.00000000000E+00 -0.00000000000E+00 -0.40166099835E+03  0.40166099835E+03  0.00000000000E+00 0.  1.
        -24    2    1    2    0    0  0.87743537709E+02  0.61518444213E+02 -0.35064097889E+03  0.37531919974E+03  0.80199490219E+02 0.  0.
         25    2    1    2    0    0 -0.27857231811E+02 -0.10186740579E+03  0.19638753695E+03  0.25567190141E+03  0.12508821996E+03 0.  0.
         24    2    1    2    0    0 -0.59886305898E+02  0.40348961580E+02  0.29806464197E+03  0.31614209557E+03  0.76739073928E+02 0.  0.
        -11    1    5    5    0    0 -0.65112751719E+02  0.11736438899E+02  0.25971638480E+03  0.26801122172E+03  0.00000000000E+00 0.  1.
         12    1    5    5    0    0  0.52264458209E+01  0.28612522681E+02  0.38348257172E+02  0.48130873857E+02  0.00000000000E+00 0. -1.
         11    1    3    3    0    0 -0.14370565248E+02  0.13197011698E+01 -0.26352582134E+02  0.30045188331E+02  0.00000000000E+00 0. -1.
        -12    1    3    3    0    0  0.10211410296E+03  0.60198743043E+02 -0.32428839676E+03  0.34527401141E+03  0.00000000000E+00 0.  1.
          5    1    4    4  501    0 -0.56208902163E+02 -0.83010378789E+02  0.19730670067E+03  0.22135394778E+03  0.41800000000E+01 0. -1.
         -5    1    4    4    0  501  0.28351670352E+02 -0.18857027004E+02 -0.91916371613E+00  0.34317953627E+02  0.41800000000E+01 0. -1.
</event>
<event>
11    1  0.6455215E-009  0.1723277E+03  0.7561462E-02  0.1076024E+00
         22   -1    0    0    0    0  0.00000000000E+00  0.00000000000E+00  0.65160756780E+03  0.65160756780E+03  0.00000000000E+00 0. -1.
         22   -1    0    0    0    0 -0.00000000000E+00 -0.00000000000E+00 -0.15721475751E+04  0.15721475751E+04  0.00000000000E+00 0.  1.
         24    2    1    2    0    0 -0.11759788925E+03  0.76297207793E+01 -0.13165514251E+04  0.13239500911E+04  0.75157917324E+02 0.  0.
         25    2    1    2    0    0  0.11972245929E+03 -0.62899277258E+02 -0.21399586905E+03  0.28237045628E+03  0.12509618806E+03 0.  0.
        -24    2    1    2    0    0 -0.21245700406E+01  0.55269556479E+02  0.61000728688E+03  0.61743459552E+03  0.77828992208E+02 0.  0.
        -11    1    3    3    0    0 -0.11862254209E+03  0.21758874515E+01 -0.13100118445E+04  0.13153733594E+04  0.00000000000E+00 0.  1.
         12    1    3    3    0    0  0.10246528353E+01  0.54538333278E+01 -0.65395806319E+01  0.85767316760E+01  0.00000000000E+00 0. -1.
         11    1    5    5    0    0 -0.10083420171E+02 -0.11179287821E+02  0.29562353335E+03  0.29600663052E+03  0.00000000000E+00 0. -1.
        -12    1    5    5    0    0  0.79588501308E+01  0.66448844299E+02  0.31438375353E+03  0.32142796500E+03  0.00000000000E+00 0.  1.
          5    1    4    4  501    0  0.11735722817E+02 -0.73203028595E+02 -0.10436798684E+03  0.12808809337E+03  0.41800000000E+01 0. -1.
         -5    1    4    4    0  501  0.10798673647E+03  0.10303751337E+02 -0.10962788221E+03  0.15428236291E+03  0.41800000000E+01 0. -1.
</event>
<event>
11    1  0.6455215E-009  0.2176620E+03  0.7561462E-02  0.1042692E+00
         22   -1    0    0    0    0  0.00000000000E+00  0.00000000000E+00  0.25112220971E+04  0.25112220971E+04  0.00000000000E+00 0.  1.
         22   -1    0    0    0    0 -0.00000000000E+00 -0.00000000000E+00 -0.67127004972E+03  0.67127004972E+03  0.00000000000E+00 0. -1.
        -24    2    1    2    0    0 -0.66792886859E+02  0.89474418588E+02 -0.56842401930E+03  0.58492693176E+03  0.81035106341E+02 0.  0.
         25    2    1    2    0    0  0.12351400743E+03  0.82256223416E+02  0.13565167772E+02  0.19455951150E+03  0.12509034102E+03 0.  0.
         24    2    1    2    0    0 -0.56721120569E+02 -0.17173064200E+03  0.23948108989E+04  0.24030057036E+04  0.81292502360E+02 0.  0.
        -11    1    5    5    0    0 -0.67118592858E+02 -0.75115892510E+02  0.12931230237E+04  0.12970406537E+04  0.00000000000E+00 0.  1.
         12    1    5    5    0    0  0.10397472290E+02 -0.96614749493E+02  0.11016878752E+04  0.11059650499E+04  0.00000000000E+00 0. -1.
         13    1    3    3    0    0 -0.67447214101E+02  0.65892170548E+02 -0.53913518858E+03  0.54731860592E+03  0.00000000000E+00 0. -1.
        -14    1    3    3    0    0  0.65432724239E+00  0.23582248039E+02 -0.29288830726E+02  0.37608325834E+02  0.00000000000E+00 0.  1.
          5    1    4    4  501    0  0.16287987411E+02 -0.41630771012E+01  0.49271730322E+02  0.52228397963E+02  0.41800000000E+01 0.  1.
         -5    1    4    4    0  501  0.10722602002E+03  0.86419300517E+02 -0.35706562550E+02  0.14233111353E+03  0.41800000000E+01 0.  1.
</event>
<event>
11    1  0.6455215E-009  0.1359734E+03  0.7561462E-02  0.1112140E+00
         22   -1    0    0    0    0  0.00000000000E+00  0.00000000000E+00  0.10036615203E+04  0.10036615203E+04  0.00000000000E+00 0.  1.
         22   -1    0    0    0    0 -0.00000000000E+00 -0.00000000000E+00 -0.47911111308E+03  0.47911111308E+03  0.00000000000E+00 0. -1.
         24    2    1    2    0    0  0.28168659621E+02  0.48139913602E+02 -0.41698089710E+03  0.42800885679E+03  0.78788249627E+02 0.  0.
         25    2    1    2    0    0 -0.77070158343E+01 -0.18989637790E+02  0.19075760152E+02  0.12818505026E+03  0.12509003976E+03 0.  0.
        -24    2    1    2    0    0 -0.20461643786E+02 -0.29150275813E+02  0.92245554416E+03  0.92657872634E+03  0.79721312699E+02 0.  0.
        -11    1    3    3    0    0 -0.15061812660E+02  0.13417716640E+02 -0.27262370402E+03  0.27336893992E+03  0.00000000000E+00 0.  1.
         12    1    3    3    0    0  0.43230472280E+02  0.34722196963E+02 -0.14435719308E+03  0.15463991687E+03  0.00000000000E+00 0. -1.
         13    1    5    5    0    0 -0.15815137233E+02 -0.27409222277E+02  0.11983288257E+03  0.12394072687E+03  0.00000000000E+00 0. -1.
        -14    1    5    5    0    0 -0.46465065531E+01 -0.17410535359E+01  0.80262266159E+03  0.80263799947E+03  0.00000000000E+00 0.  1.
          5    1    4    4  501    0  0.56980142393E+02 -0.23273907995E+02  0.11866630277E+02  0.62822772421E+02  0.41800000000E+01 0.  1.
         -5    1    4    4    0  501 -0.64687158227E+02  0.42842702055E+01  0.72091298751E+01  0.65362277839E+02  0.41800000000E+01 0.  1.
</event>
<event>
11    1  0.6455215E-009  0.1632674E+03  0.7561462E-02  0.1084044E+00
         22   -1    0    0    0    0  0.00000000000E+00  0.00000000000E+00  0.94302070726E+02  0.94302070726E+02  0.00000000000E+00 0. -1.
         22   -1    0    0    0    0 -0.00000000000E+00 -0.00000000000E+00 -0.17816214221E+04  0.17816214221E+04  0.00000000000E+00 0.  1.
         24    2    1    2    0    0  0.92844802604E+02 -0.15350803099E+02 -0.93053602765E+03  0.93878145561E+03  0.80978503988E+02 0.  0.
         25    2    1    2    0    0 -0.85936602330E+02 -0.90517437486E+02 -0.78459745195E+03  0.80425071735E+03  0.12509016202E+03 0.  0.
        -24    2    1    2    0    0 -0.69082002737E+01  0.10586824059E+03  0.27814128228E+02  0.13289131987E+03  0.75037787633E+02 0.  0.
        -13    1    3    3    0    0  0.18998812284E+02 -0.82428108663E+00 -0.57746934566E+03  0.57778238073E+03  0.00000000000E+00 0.  1.
         14    1    3    3    0    0  0.73845990320E+02 -0.14526522013E+02 -0.35306668199E+03  0.36099907487E+03  0.00000000000E+00 0. -1.
         11    1    5    5    0    0  0.14181051794E+02  0.10536996009E+03  0.32705352592E+02  0.11123655338E+03  0.00000000000E+00 0. -1.
        -12    1    5    5    0    0 -0.21089252068E+02  0.49828049678E+00 -0.48912243636E+01  0.21654766496E+02  0.00000000000E+00 0.  1.
          5    1    4    4  501    0 -0.13911596585E+02  0.20552455954E+02 -0.35389627599E+02  0.43426191485E+02  0.41800000000E+01 0. -1.
         -5    1    4    4    0  501 -0.72025005745E+02 -0.11106989344E+03 -0.74920782435E+03  0.76082452586E+03  0.41800000000E+01 0. -1.
</event>
<event>
11    1  0.6455215E-009  0.3307515E+03  0.7561462E-02  0.9879558E-01
         22   -1    0    0    0    0  0.00000000000E+00  0.00000000000E+00  0.18955086866E+04  0.18955086866E+04  0.00000000000E+00 0. -1.
         22   -1    0    0    0    0 -0.00000000000E+00 -0.00000000000E+00 -0.19583468161E+03  0.19583468161E+03  0.00000000000E+00 0. -1.
        -24    2    1    2    0    0  0.11565281859E+03  0.85075442109E+02 -0.81860747882E+02  0.18293701406E+03  0.78430630318E+02 0.  0.
         25    2    1    2    0    0  0.13691316760E+03 -0.27647262150E+03  0.64569661180E+03  0.72646627549E+03  0.12508720569E+03 0.  0.
         24    2    1    2    0    0 -0.25256598619E+03  0.19139717939E+03  0.11358381410E+04  0.11819400786E+04  0.80197314117E+02 0.  0.
        -13    1    5    5    0    0 -0.15048602245E+03  0.68862057410E+02  0.51455014940E+03  0.54050891033E+03  0.00000000000E+00 0.  1.
         14    1    5    5    0    0 -0.10207996374E+03  0.12253512198E+03  0.62128799165E+03  0.64143116831E+03  0.00000000000E+00 0. -1.
         13    1    3    3    0    0  0.44733400760E+02  0.42743561891E+02 -0.78933452636E+02  0.10029246817E+03  0.00000000000E+00 0. -1.
        -14    1    3    3    0    0  0.70919417828E+02  0.42331880218E+02 -0.29272952459E+01  0.82644545889E+02  0.00000000000E+00 0.  1.
          5    1    4    4  501    0  0.12056236263E+03 -0.11902660329E+03  0.39672173414E+03  0.43140262206E+03  0.41800000000E+01 0. -1.
         -5    1    4    4    0  501  0.16350804968E+02 -0.15744601820E+03  0.24897487766E+03  0.29506365343E+03  0.41800000000E+01 0. -1.
</event>
<event>
11    1  0.6455215E-009  0.2002312E+03  0.7561462E-02  0.1054360E+00
         22   -1    0    0    0    0  0.00000000000E+00  0.00000000000E+00  0.53842177707E+03  0.53842177707E+03  0.00000000000E+00 0. -1.
         22   -1    0    0    0    0 -0.00000000000E+00 -0.00000000000E+00 -0.33762818338E+03  0.33762818338E+03  0.00000000000E+00 0. -1.
        -24    2    1    2    0    0 -0.68734759383E+02 -0.15458932526E+03 -0.13898331573E+03  0.23033186124E+03  0.71512779402E+02 0.  0.
         25    2    1    2    0    0  0.58390585163E+01  0.14503337398E+03 -0.84453471930E+02  0.20940114580E+03  0.12509067418E+03 0.  0.
         24    2    1    2    0    0  0.62895700867E+02  0.95559512787E+01  0.42423038135E+03  0.43631695341E+03  0.79711241253E+02 0.  0.
        -11    1    5    5    0    0  0.24836634279E+02  0.33139299022E+02  0.89639501768E+02  0.98743667236E+02  0.00000000000E+00 0.  1.
         12    1    5    5    0    0  0.38059066588E+02 -0.23583347744E+02  0.33459087958E+03  0.33757328617E+03  0.00000000000E+00 0. -1.
         11    1    3    3    0    0  0.29985765209E+01 -0.80276037292E+02 -0.57987453409E+02  0.99074610155E+02  0.00000000000E+00 0. -1.
        -12    1    3    3    0    0 -0.71733335904E+02 -0.74313287969E+02 -0.80995862324E+02  0.13125725108E+03  0.00000000000E+00 0.  1.
          5    1    4    4  501    0 -0.32894476093E+02  0.50049360251E+02  0.19670016986E+02  0.63177266380E+02  0.41800000000E+01 0.  1.
         -5    1    4    4    0  501  0.38733534609E+02  0.94984013731E+02 -0.10412348892E+03  0.14622387942E+03  0.41800000000E+01 0.  1.
</event>
<event>
11    1  0.6455215E-009  0.1321105E+03  0.7561462E-02  0.1116703E+00
         22   -1    0    0    0    0  0.00000000000E+00  0.00000000000E+00  0.24353319716E+04  0.24353319716E+04  0.00000000000E+00 0.  1.
         22   -1    0    0    0    0 -0.00000000000E+00 -0.00000000000E+00 -0.10220527204E+03  0.10220527204E+03  0.00000000000E+00 0.  1.
         24    2    1    2    0    0  0.16332328553E+02 -0.72814234182E+01 -0.31011862325E+02  0.89402088069E+02  0.81922119499E+02 0.  0.
         25    2    1    2    0    0 -0.43731046226E+02 -0.25074353637E+02  0.69517780933E+02  0.15172433186E+03  0.12508566424E+03 0.  0.
        -24    2    1    2    0    0  0.27398717672E+02  0.32355777055E+02  0.22946207809E+04  0.22964108237E+04  0.80128377120E+02 0.  0.
        -11    1    3    3    0    0  0.21993505659E+02 -0.37247661974E+02 -0.38601372288E+02  0.57975585863E+02  0.00000000000E+00 0.  1.
         12    1    3    3    0    0 -0.56611771053E+01  0.29966238556E+02  0.75895099625E+01  0.31426502205E+02  0.00000000000E+00 0. -1.
         11    1    5    5    0    0  0.29231716857E+02 -0.20357339724E+02  0.68439075499E+03  0.68531716750E+03  0.00000000000E+00 0. -1.
        -12    1    5    5    0    0 -0.18329991851E+01  0.52713116779E+02  0.16102300259E+04  0.16110936562E+04  0.00000000000E+00 0.  1.
          5    1    4    4  501    0 -0.25376053154E+02 -0.64002653634E+02  0.81580470069E+02  0.10683224814E+03  0.41800000000E+01 0.  1.
         -5    1    4    4    0  501 -0.18354993072E+02  0.38928299997E+02 -0.12062689136E+02  0.44892083718E+02  0.41800000000E+01 0.  1.
</event>
<event>
11    1  0.6455215E-009  0.1441478E+03  0.7561462E-02  0.1103013E+00
         22   -1    0    0    0    0  0.00000000000E+00  0.00000000000E+00  0.18246015787E+04  0.18246015787E+04  0.00000000000E+00 0. -1.
         22   -1    0    0    0    0 -0.00000000000E+00 -0.00000000000E+00 -0.41260867538E+03  0.41260867538E+03  0.00000000000E+00 0. -1.
         24    2    1    2    0    0  0.49999428247E+02 -0.36980390502E+02 -0.35989982303E+03  0.37408625265E+03  0.80902099490E+02 0.  0.
         25    2    1    2    0    0  0.22031097273E+02  0.21312128499E+02  0.50445892833E+02  0.13831754182E+03  0.12508948078E+03 0.  0.
        -24    2    1    2    0    0 -0.72030525520E+02  0.15668262003E+02  0.17214468335E+04  0.17248064596E+04  0.78385148128E+02 0.  0.
        -13    1    3    3    0    0 -0.58385198923E+01  0.63391505109E+01 -0.14539472239E+01  0.87399717541E+01  0.00000000000E+00 0.  1.
         14    1    3    3    0    0  0.55837948139E+02 -0.43319541013E+02 -0.35844587580E+03  0.36534628090E+03  0.00000000000E+00 0. -1.
         11    1    5    5    0    0 -0.21489518341E+02  0.57474236029E+01  0.13046054174E+04  0.13047950519E+04  0.00000000000E+00 0. -1.
        -12    1    5    5    0    0 -0.50541007179E+02  0.99208384002E+01  0.41684141613E+03  0.42001140776E+03  0.00000000000E+00 0.  1.
          5    1    4    4  501    0  0.52253201108E+02  0.57056366851E+02  0.13746743827E+02  0.78690986715E+02  0.41800000000E+01 0.  1.
         -5    1    4    4    0  501 -0.30222103835E+02 -0.35744238352E+02  0.36699149006E+02  0.59626555102E+02  0.41800000000E+01 0.  1.
</event>
<event>
11    1  0.6455215E-009  0.1526803E+03  0.7561462E-02  0.1094171E+00
         22   -1    0    0    0    0  0.00000000000E+00  0.00000000000E+00  0.29193567940E+03  0.29193567940E+03  0.00000000000E+00 0. -1.
         22   -1    0    0    0    0 -0.00000000000E+00 -0.00000000000E+00 -0.30344016201E+03  0.30344016201E+03  0.00000000000E+00 0.  1.
         24    2    1    2    0    0  0.38821275489E+02  0.40534113911E+02 -0.20383387161E+03  0.22526718284E+03  0.77762141353E+02 0.  0.
         25    2    1    2    0    0 -0.40800327008E+02 -0.11880319298E+03  0.42306712502E+02  0.18227865593E+03  0.12512707597E+03 0.  0.
        -24    2    1    2    0    0  0.19790515191E+01  0.78269079065E+02  0.15002267650E+03  0.18783000264E+03  0.81506693251E+02 0.  0.
        -11    1    3    3    0    0  0.56917399346E+00  0.50299660410E+02 -0.15202282513E+03  0.16012907030E+03  0.00000000000E+00 0.  1.
         12    1    3    3    0    0  0.38252101495E+02 -0.97655464989E+01 -0.51811046486E+02  0.65138112539E+02  0.00000000000E+00 0. -1.
         11    1    5    5    0    0 -0.16649753207E+02  0.28918482160E+02  0.12512821813E+03  0.12950121182E+03  0.00000000000E+00 0. -1.
        -12    1    5    5    0    0  0.18628804726E+02  0.49350596905E+02  0.24894458375E+02  0.58328790817E+02  0.00000000000E+00 0.  1.
          5    1    4    4  501    0 -0.56135708993E+02 -0.13227427833E+03  0.10345227471E+02  0.14412563500E+03  0.41800000000E+01 0. -1.
         -5    1    4    4    0  501  0.15335381985E+02  0.13471085352E+02  0.31961485031E+02  0.38153020936E+02  0.41800000000E+01 0. -1.
</event>
<event>
11    1  0.6455215E-009  0.1494785E+03  0.7561462E-02  0.1097413E+00
         22   -1    0    0    0    0  0.00000000000E+00  0.00000000000E+00  0.40749381936E+03  0.40749381936E+03  0.00000000000E+00 0.  1.
         22   -1    0    0    0    0 -0.00000000000E+00 -0.00000000000E+00 -0.62366242204E+03  0.62366242204E+03  0.00000000000E+00 0.  1.
         24    2    1    2    0    0  0.15616506364E+02 -0.19856973569E+01 -0.27997241180E+03  0.29191652296E+03  0.81134990874E+02 0.  0.
         25    2    1    2    0    0 -0.96583182434E+02 -0.64464201853E+01 -0.30928279029E+03  0.34738060009E+03  0.12509024536E+03 0.  0.
        -24    2    1    2    0    0  0.80966676070E+02  0.84321175422E+01  0.37308659941E+03  0.39185911834E+03  0.87938926108E+02 0.  0.
        -11    1    3    3    0    0  0.33203813790E+00 -0.15914132073E+02 -0.26706714581E+03  0.26754108137E+03  0.00000000000E+00 0.  1.
         12    1    3    3    0    0  0.15284468226E+02  0.13928434717E+02 -0.12905265991E+02  0.24375441594E+02  0.00000000000E+00 0. -1.
         11    1    5    5    0    0  0.28112273084E+02  0.46245553870E+02  0.14829271789E+03  0.15785968874E+03  0.00000000000E+00 0. -1.
        -12    1    5    5    0    0  0.52854402986E+02 -0.37813436328E+02  0.22479388152E+03  0.23399942960E+03  0.00000000000E+00 0.  1.
          5    1    4    4  501    0 -0.53226211921E+02 -0.35387814020E+02 -0.28043162546E+03  0.28765377796E+03  0.41800000000E+01 0. -1.
         -5    1    4    4    0  501 -0.43356970512E+02  0.28941393835E+02 -0.28851164829E+02  0.59726822124E+02  0.41800000000E+01 0. -1.
</event>
<event>
11    1  0.6455215E-009  0.1581724E+03  0.7561462E-02  0.1088809E+00
         22   -1    0    0    0    0  0.00000000000E+00  0.00000000000E+00  0.85780346913E+03  0.85780346913E+03  0.00000000000E+00 0. -1.
         22   -1    0    0    0    0 -0.00000000000E+00 -0.00000000000E+00 -0.17098945782E+03  0.17098945782E+03  0.00000000000E+00 0.  1.
         24    2    1    2    0    0 -0.86793970476E+02  0.63467389002E+02 -0.10474425927E+03  0.17603560935E+03  0.91955821629E+02 0.  0.
         25    2    1    2    0    0  0.30426828489E+02 -0.36510437227E+02  0.14165024751E+03  0.19485946390E+03  0.12508642666E+03 0.  0.
        -24    2    1    2    0    0  0.56367141987E+02 -0.26956951775E+02  0.64990802307E+03  0.65789785371E+03  0.80902506247E+02 0.  0.
        -11    1    3    3    0    0 -0.29428522078E+02 -0.21207297176E+02 -0.12680690275E+02  0.38426387693E+02  0.00000000000E+00 0.  1.
         12    1    3    3    0    0 -0.57365448397E+02  0.84674686178E+02 -0.92063568991E+02  0.13760922165E+03  0.00000000000E+00 0. -1.
         13    1    5    5    0    0  0.40453620111E+02 -0.24248508711E+02  0.63212056145E+03  0.63387766151E+03  0.00000000000E+00 0. -1.
        -14    1    5    5    0    0  0.15913521875E+02 -0.27084430641E+01  0.17787461625E+02  0.24020192201E+02  0.00000000000E+00 0.  1.
          5    1    4    4  501    0 -0.34942142094E+02  0.16209620799E+02  0.85167425454E+02  0.93566382098E+02  0.41800000000E+01 0.  1.
         -5    1    4    4    0  501  0.65368970582E+02 -0.52720058026E+02  0.56482822051E+02  0.10129308180E+03  0.41800000000E+01 0.  1.
</event>
<event>
11    1  0.6455215E-009  0.1482554E+03  0.7561462E-02  0.1098675E+00
         22   -1    0    0    0    0  0.00000000000E+00  0.00000000000E+00  0.82341127581E+03  0.82341127581E+03  0.00000000000E+00 0.  1.
         22   -1    0    0    0    0 -0.00000000000E+00 -0.00000000000E+00 -0.15838970081E+04  0.15838970081E+04  0.00000000000E+00 0.  1.
         24    2    1    2    0    0 -0.43195999152E+02 -0.14788009021E+02 -0.13198537054E+04  0.13226402483E+04  0.72655648951E+02 0.  0.
         25    2    1    2    0    0  0.15733241087E+01 -0.53681252785E+02 -0.24063473212E+03  0.27646985021E+03  0.12508537694E+03 0.  0.
        -24    2    1    2    0    0  0.41622675043E+02  0.68469261806E+02  0.80000270516E+03  0.80819818544E+03  0.82216128514E+02 0.  0.
        -11    1    3    3    0    0 -0.24462385179E+02  0.28867854939E+02 -0.51758595337E+03  0.51896722484E+03  0.00000000000E+00 0.  1.
         12    1    3    3    0    0 -0.18733613972E+02 -0.43655863960E+02 -0.80226775199E+03  0.80367302346E+03  0.00000000000E+00 0. -1.
         13    1    5    5    0    0  0.43535128840E+02  0.73390081273E+01  0.18649725478E+03  0.19165175325E+03  0.00000000000E+00 0. -1.
        -14    1    5    5    0    0 -0.19124537973E+01  0.61130253679E+02  0.61350545038E+03  0.61654643218E+03  0.00000000000E+00 0.  1.
          5    1    4    4  501    0  0.46438831067E+01 -0.89534197770E+02 -0.21225516111E+03  0.23045100138E+03  0.41800000000E+01 0.  1.
         -5    1    4    4    0  501 -0.30705589979E+01  0.35852944985E+02 -0.28379571012E+02  0.46018848828E+02  0.41800000000E+01 0.  1.
</event>
<event>
11    1  0.6455215E-009  0.1595853E+03  0.7561462E-02  0.1087468E+00
         22   -1    0    0    0    0  0.00000000000E+00  0.00000000000E+00  0.20024036542E+04  0.20024036542E+04  0.00000000000E+00 0.  1.
         22   -1    0    0    0    0 -0.00000000000E+00 -0.00000000000E+00 -0.15756410555E+04  0.15756410555E+04  0.00000000000E+00 0. -1.
        -24    2    1    2    0    0  0.62277603307E+01  0.25241274768E+01 -0.14994477888E+04  0.15016333100E+04  0.80707929896E+02 0.  0.
         25    2    1    2    0    0  0.91940162472E+02  0.12233786151E+02  0.99152094989E+01  0.15604122101E+03  0.12509153559E+03 0.  0.
         24    2    1    2    0    0 -0.98167922803E+02 -0.14757913628E+02  0.19162951780E+04  0.19203701787E+04  0.76024185352E+02 0.  0.
        -11    1    5    5    0    0 -0.77517558889E+02  0.14968412438E+02  0.90808576688E+03  0.91151126451E+03  0.00000000000E+00 0.  1.
         12    1    5    5    0    0 -0.20650363914E+02 -0.29726326066E+02  0.10082094111E+04  0.10088589142E+04  0.00000000000E+00 0. -1.
         11    1    3    3    0    0  0.26587227472E+02  0.34135661703E+02 -0.76158479883E+03  0.76281290620E+03  0.00000000000E+00 0. -1.
        -12    1    3    3    0    0 -0.20359467141E+02 -0.31611534226E+02 -0.73786299001E+03  0.73882040377E+03  0.00000000000E+00 0.  1.
          5    1    4    4  501    0  0.38183583300E+02  0.56568479663E+02  0.40891350581E+02  0.79671537435E+02  0.41800000000E+01 0. -1.
         -5    1    4    4    0  501  0.53756579172E+02 -0.44334693512E+02 -0.30976141083E+02  0.76369683576E+02  0.41800000000E+01 0. -1.
</event>
<event>
11    1  0.6455215E-009  0.1492249E+03  0.7561462E-02  0.1097673E+00
         22   -1    0    0    0    0  0.00000000000E+00  0.00000000000E+00  0.61227616403E+03  0.61227616403E+03  0.00000000000E+00 0.  1.
         22   -1    0    0    0    0 -0.00000000000E+00 -0.00000000000E+00 -0.25535079260E+03  0.25535079260E+03  0.00000000000E+00 0. -1.
         24    2    1    2    0    0 -0.32668650681E+02 -0.40565125310E+02 -0.20871029727E+03  0.22982796014E+03  0.80920534761E+02 0.  0.
         25    2    1    2    0    0  0.10171250708E+03  0.24799542865E+01  0.19770212881E+03  0.25511653654E+03  0.12508689464E+03 0.  0.
        -24    2    1    2    0    0 -0.69043856400E+02  0.38085171024E+02  0.36793353989E+03  0.38268245995E+03  0.69665206637E+02 0.  0.
        -13    1    3    3    0    0  0.21155281200E+02 -0.12429222817E+02 -0.11892881864E+03  0.12143350199E+03  0.00000000000E+00 0.  1.
         14    1    3    3    0    0 -0.53823931881E+02 -0.28135902493E+02 -0.89781478628E+02  0.10839445815E+03  0.00000000000E+00 0. -1.
         13    1    5    5    0    0  0.12535582549E+02  0.77499536167E+01  0.96963617806E+02  0.98077243991E+02  0.00000000000E+00 0. -1.
        -14    1    5    5    0    0 -0.81579438949E+02  0.30335217407E+02  0.27096992208E+03  0.28460521596E+03  0.00000000000E+00 0.  1.
          5    1    4    4  501    0  0.88705379583E+02 -0.53149857585E+02  0.11784651388E+03  0.15684012548E+03  0.41800000000E+01 0. -1.
         -5    1    4    4    0  501  0.13007127499E+02  0.55629811871E+02  0.79855614927E+02  0.98276411055E+02  0.41800000000E+01 0. -1.
</event>
<event>
11    1  0.6455215E-009  0.1501814E+03  0.7561462E-02  0.1096694E+00
         22   -1    0    0    0    0  0.00000000000E+00  0.00000000000E+00  0.10189242863E+04  0.10189242863E+04  0.00000000000E+00 0.  1.
         22   -1    0    0    0    0 -0.00000000000E+00 -0.00000000000E+00 -0.58207063184E+03  0.58207063184E+03  0.00000000000E+00 0. -1.
        -24    2    1    2    0    0  0.24835827538E+02 -0.77255722626E+02 -0.51626970907E+03  0.52873762710E+03  0.80273288215E+02 0.  0.
         25    2    1    2    0    0 -0.47258710689E+02  0.11787874166E+03  0.82047916634E+02  0.19623697210E+03  0.12509318576E+03 0.  0.
         24    2    1    2    0    0  0.22422883151E+02 -0.40623019033E+02  0.87107544690E+03  0.87602031894E+03  0.80536635359E+02 0.  0.
        -11    1    5    5    0    0  0.38609716909E+01 -0.60893896796E+02  0.46031685594E+03  0.46434317227E+03  0.00000000000E+00 0.  1.
         12    1    5    5    0    0  0.18561911460E+02  0.20270877764E+02  0.41075859097E+03  0.41167714667E+03  0.00000000000E+00 0. -1.
         13    1    3    3    0    0  0.34610992198E+02 -0.19983957744E+01 -0.10652946986E+03  0.11202875664E+03  0.00000000000E+00 0. -1.
        -14    1    3    3    0    0 -0.97751646606E+01 -0.75257326852E+02 -0.40974023921E+03  0.41670887046E+03  0.00000000000E+00 0.  1.
          5    1    4    4  501    0  0.14140328743E+01  0.11810170158E+03  0.24405568183E+02  0.12067773433E+03  0.41800000000E+01 0.  1.
         -5    1    4    4    0  501 -0.48672743563E+02 -0.22295992239E+00  0.57642348451E+02  0.75559237768E+02  0.41800000000E+01 0.  1.
</event>
<event>
11    1  0.6455215E-009  0.1728880E+03  0.7561462E-02  0.1075545E+00
         22   -1    0    0    0    0  0.00000000000E+00  0.00000000000E+00  0.35848827828E+03  0.35848827828E+03  0.00000000000E+00 0. -1.
         22   -1    0    0    0    0 -0.00000000000E+00 -0.00000000000E+00 -0.12702283763E+04  0.12702283763E+04  0.00000000000E+00 0.  1.
         24    2    1    2    0    0 -0.58309967982E+02  0.10141156123E+03 -0.11463039593E+04  0.11550284319E+04  0.79959704080E+02 0.  0.
         25    2    1    2    0    0  0.82561749311E+02 -0.15829374519E+03  0.35062779049E+00  0.21799493634E+03  0.12509323369E+03 0.  0.
        -24    2    1    2    0    0 -0.24251781329E+02  0.56882183962E+02  0.23421323351E+03  0.25569328632E+03  0.81850388942E+02 0.  0.
        -11    1    3    3    0    0 -0.55892131366E+02  0.11402108058E+03 -0.97327912702E+03  0.98152788868E+03  0.00000000000E+00 0.  1.
         12    1    3    3    0    0 -0.24178366157E+01 -0.12609519354E+02 -0.17302483226E+03  0.17350054320E+03  0.00000000000E+00 0. -1.
         13    1    5    5    0    0 -0.80284554480E+01  0.74313455144E+02  0.14219223998E+03  0.16064114922E+03  0.00000000000E+00 0. -1.
        -14    1    5    5    0    0 -0.16223325881E+02 -0.17431271182E+02  0.92020993529E+02  0.95052137103E+02  0.00000000000E+00 0.  1.
          5    1    4    4  501    0  0.33866795543E+02 -0.11346629427E+03 -0.55921028689E+02  0.13101982150E+03  0.41800000000E+01 0. -1.
         -5    1    4    4    0  501  0.48694953768E+02 -0.44827450915E+02  0.56271656480E+02  0.86975114838E+02  0.41800000000E+01 0. -1.
</event>
<event>
11    1  0.6455215E-009  0.1400392E+03  0.7561462E-02  0.1107515E+00
         22   -1    0    0    0    0  0.00000000000E+00  0.00000000000E+00  0.83345448265E+03  0.83345448265E+03  0.00000000000E+00 0. -1.
         22   -1    0    0    0    0 -0.00000000000E+00 -0.00000000000E+00 -0.89032902780E+03  0.89032902780E+03  0.00000000000E+00 0.  1.
         24    2    1    2    0    0 -0.31107122761E+02 -0.55376912482E+02 -0.84015109906E+03  0.84640377890E+03  0.80692206273E+02 0.  0.
         25    2    1    2    0    0 -0.10482202858E+02  0.12732561289E+01  0.48297692072E+02  0.13449975375E+03  0.12508404750E+03 0.  0.
        -24    2    1    2    0    0  0.41589325619E+02  0.54103656353E+02  0.73497886184E+03  0.74287997780E+03  0.83784583488E+02 0.  0.
        -11    1    3    3    0    0 -0.11445722663E+02 -0.64644980401E+02 -0.37201579848E+03  0.37776412267E+03  0.00000000000E+00 0.  1.
         12    1    3    3    0    0 -0.19661400098E+02  0.92680679190E+01 -0.46813530059E+03  0.46863965623E+03  0.00000000000E+00 0. -1.
         11    1    5    5    0    0  0.42681889463E+02  0.28138989159E+02  0.68156532871E+03  0.68347995120E+03  0.00000000000E+00 0. -1.
        -12    1    5    5    0    0 -0.10925638439E+01  0.25964667194E+02  0.53413533129E+02  0.59400026596E+02  0.00000000000E+00 0.  1.
          5    1    4    4  501    0  0.55739586665E+02  0.81331938163E+01  0.93456576996E+01  0.57252633835E+02  0.41800000000E+01 0. -1.
         -5    1    4    4    0  501 -0.66221789523E+02 -0.68599376874E+01  0.38952034372E+02  0.77247119910E+02  0.41800000000E+01 0. -1.
</event>
<event>
11    1  0.6455215E-009  0.1455288E+03  0.7561462E-02  0.1101537E+00
         22   -1    0    0    0    0  0.00000000000E+00  0.00000000000E+00  0.65197726619E+03  0.65197726619E+03  0.00000000000E+00 0. -1.
         22   -1    0    0    0    0 -0.00000000000E+00 -0.00000000000E+00 -0.55203919608E+03  0.55203919608E+03  0.00000000000E+00 0.  1.
        -24    2    1    2    0    0 -0.29003157228E+02 -0.69403967979E+02 -0.52143772860E+03  0.53285423174E+03  0.79863843972E+02 0.  0.
         25    2    1    2    0    0  0.17150341809E+02 -0.58431795003E+00  0.45254394651E+03  0.46982704614E+03  0.12508778563E+03 0.  0.
         24    2    1    2    0    0  0.11852815419E+02  0.69988285929E+02  0.16883185220E+03  0.20133518439E+03  0.83623039622E+02 0.  0.
        -11    1    5    5    0    0  0.18923197179E+02  0.78837234825E+02  0.87771769255E+02  0.11948757452E+03  0.00000000000E+00 0.  1.
         12    1    5    5    0    0 -0.70703817597E+01 -0.88489488952E+01  0.81060082941E+02  0.81847609868E+02  0.00000000000E+00 0. -1.
         11    1    3    3    0    0  0.99712292655E+00  0.52529875769E+01 -0.24212007178E+03  0.24217910168E+03  0.00000000000E+00 0. -1.
        -12    1    3    3    0    0 -0.30000280155E+02 -0.74656955556E+02 -0.27931765682E+03  0.29067513005E+03  0.00000000000E+00 0.  1.
          5    1    4    4  501    0  0.53057958172E+02 -0.42841456303E+02  0.29329333712E+03  0.30114612948E+03  0.41800000000E+01 0.  1.
         -5    1    4    4    0  501 -0.35907616363E+02  0.42257138353E+02  0.15925060939E+03  0.16868091666E+03  0.41800000000E+01 0.  1.
</event>
<event>
11    1  0.6455215E-009  0.1695052E+03  0.7561462E-02  0.1078463E+00
         22   -1    0    0    0    0  0.00000000000E+00  0.00000000000E+00  0.12458620750E+04  0.12458620750E+04  0.00000000000E+00 0.  1.
         22   -1    0    0    0    0 -0.00000000000E+00 -0.00000000000E+00 -0.18896722453E+03  0.18896722453E+03  0.00000000000E+00 0. -1.
         24    2    1    2    0    0 -0.20268015853E+02  0.10889186422E+03 -0.88665806066E+02  0.16271127274E+03  0.79656151995E+02 0.  0.
         25    2    1    2    0    0  0.10341809707E+03 -0.10702896664E+03  0.97123278256E+02  0.21732657228E+03  0.12508958925E+03 0.  0.
        -24    2    1    2    0    0 -0.83150081215E+02 -0.18628975780E+01  0.10484373783E+04  0.10547914545E+04  0.80291157337E+02 0.  0.
        -11    1    3    3    0    0 -0.25739468792E+02  0.26246016289E+02  0.56463421601E+01  0.37192133637E+02  0.00000000000E+00 0.  1.
         12    1    3    3    0    0  0.54714529383E+01  0.82645847934E+02 -0.94312148226E+02  0.12551913910E+03  0.00000000000E+00 0. -1.
         13    1    5    5    0    0  0.23918190973E+01 -0.80874202621E+01  0.11231212426E+02  0.14045187704E+02  0.00000000000E+00 0. -1.
        -14    1    5    5    0    0 -0.85541900312E+02  0.62245226841E+01  0.10372061659E+04  0.10407462668E+04  0.00000000000E+00 0.  1.
          5    1    4    4  501    0  0.11359160029E+03 -0.12748237916E+03  0.89854054468E+02  0.19299231113E+03  0.41800000000E+01 0. -1.
         -5    1    4    4    0  501 -0.10173503218E+02  0.20453412514E+02  0.72692237881E+01  0.24334261149E+02  0.41800000000E+01 0. -1.
</event>
<event>
11    1  0.6455215E-009  0.1391313E+03  0.7561462E-02  0.1108532E+00
         22   -1    0    0    0    0  0.00000000000E+00  0.00000000000E+00  0.26551977870E+03  0.26551977870E+03  0.00000000000E+00 0.  1.
         22   -1    0    0    0    0 -0.00000000000E+00 -0.00000000000E+00 -0.32056694322E+03  0.32056694322E+03  0.00000000000E+00 0. -1.
         24    2    1    2    0    0 -0.49374543758E+02 -0.39660025061E+02 -0.24838939483E+03  0.26864984102E+03  0.80403249047E+02 0.  0.
         25    2    1    2    0    0  0.31771588077E+02  0.25853855840E+02  0.31243177861E+02  0.13528555589E+03  0.12509272481E+03 0.  0.
        -24    2    1    2    0    0  0.17602955681E+02  0.13806169221E+02  0.16209905246E+03  0.18215132501E+03  0.80015798674E+02 0.  0.
        -13    1    3    3    0    0 -0.68430731844E+02 -0.21470447620E+02 -0.14247284283E+03  0.15950628868E+03  0.00000000000E+00 0.  1.
         14    1    3    3    0    0  0.19056188086E+02 -0.18189577441E+02 -0.10591655200E+03  0.10914355235E+03  0.00000000000E+00 0. -1.
         13    1    5    5    0    0  0.48687055477E+02  0.16227875595E+02  0.90086469762E+02  0.10367904972E+03  0.00000000000E+00 0. -1.
        -14    1    5    5    0    0 -0.31084099796E+02 -0.24217063739E+01  0.72012582694E+02  0.78472275283E+02  0.00000000000E+00 0.  1.
          5    1    4    4  501    0  0.47904606399E+01  0.11739370256E+02 -0.48247090704E+02  0.50060118743E+02  0.41800000000E+01 0.  1.
         -5    1    4    4    0  501  0.26981127437E+02  0.14114485584E+02  0.79490268565E+02  0.85225437151E+02  0.41800000000E+01 0.  1.
</event>
<event>
11    1  0.6455215E-009  0.3069243E+03  0.7561462E-02  0.9973026E-01
         22   -1    0    0    0    0  0.00000000000E+00  0.00000000000E+00  0.43820762992E+03  0.43820762992E+03  0.00000000000E+00 0.  1.
         22   -1    0    0    0    0 -0.00000000000E+00 -0.00000000000E+00 -0.40322673697E+03  0.40322673697E+03  0.00000000000E+00 0.  1.
         24    2    1    2    0    0 -0.26842189508E+03  0.21080690253E+02 -0.12893123691E+03  0.30816150723E+03  0.76456140575E+02 0.  0.
         25    2    1    2    0    0  0.29880163615E+03 -0.86867424699E+01 -0.25427835058E+02  0.32504241998E+03  0.12509245672E+03 0.  0.
        -24    2    1    2    0    0 -0.30379741076E+02 -0.12393947783E+02  0.18933996492E+03  0.20823043968E+03  0.80210691843E+02 0.  0.
        -13    1    3    3    0    0 -0.16037361722E+03 -0.24754630754E+02 -0.68344762143E+02  0.17607809448E+03  0.00000000000E+00 0.  1.
         14    1    3    3    0    0 -0.10804827786E+03  0.45835321006E+02 -0.60586474767E+02  0.13208341275E+03  0.00000000000E+00 0. -1.
         13    1    5    5    0    0 -0.43377635314E+02 -0.25299096742E+02  0.62975907374E+02  0.80545815850E+02  0.00000000000E+00 0. -1.
        -14    1    5    5    0    0  0.12997894239E+02  0.12905148959E+02  0.12636405754E+03  0.12768462383E+03  0.00000000000E+00 0.  1.
          5    1    4    4  501    0  0.12398739694E+03  0.24298396831E+02  0.44254504350E+02  0.13393737433E+03  0.41800000000E+01 0. -1.
         -5    1    4    4    0  501  0.17481423921E+03 -0.32985139301E+02 -0.69682339408E+02  0.19110504565E+03  0.41800000000E+01 0. -1.
</event>
<event>
11    1  0.6455215E-009  0.1496541E+03  0.7561462E-02  0.1097233E+00
         22   -1    0    0    0    0  0.00000000000E+00  0.00000000000E+00  0.38843295072E+03  0.38843295072E+03  0.00000000000E+00 0.  1.
         22   -1    0    0    0    0 -0.00000000000E+00 -0.00000000000E+00 -0.46562697557E+03  0.46562697557E+03  0.00000000000E+00 0.  1.
         24    2    1    2    0    0  0.12116141103E+02  0.63675699315E+01 -0.41399161385E+03  0.42227984532E+03  0.82121036306E+02 0.  0.
         25    2    1    2    0    0 -0.60356315827E+02  0.59120864998E+02  0.14796137401E+03  0.21137452216E+03  0.12509380032E+03 0.  0.
        -24    2    1    2    0    0  0.48240174724E+02 -0.65488434929E+02  0.18883621499E+03  0.22040555881E+03  0.79395495445E+02 0.  0.
        -13    1    3    3    0    0  0.28425089361E+02 -0.13187295976E+02 -0.37094386410E+03  0.37226501420E+03  0.00000000000E+00 0.  1.
         14    1    3    3    0    0 -0.16308948257E+02  0.19554865908E+02 -0.43047749745E+02  0.50014831121E+02  0.00000000000E+00 0. -1.
         13    1    5    5    0    0  0.23727380884E+02  0.19269013020E+01  0.68186647952E+01  0.24762789460E+02  0.00000000000E+00 0. -1.
        -14    1    5    5    0    0  0.24512793840E+02 -0.67415336231E+02  0.18201755020E+03  0.19564276935E+03  0.00000000000E+00 0.  1.
          5    1    4    4  501    0 -0.18543055732E+02  0.76993673645E+02  0.29839815787E+02  0.84733450912E+02  0.41800000000E+01 0. -1.
         -5    1    4    4    0  501 -0.41813260095E+02 -0.17872808648E+02  0.11812155823E+03  0.12664107125E+03  0.41800000000E+01 0. -1.
</event>
<event>
11    1  0.6455215E-009  0.1517411E+03  0.7561462E-02  0.1095113E+00
         22   -1    0    0    0    0  0.00000000000E+00  0.00000000000E+00  0.15046225251E+04  0.15046225251E+04  0.00000000000E+00 0.  1.
         22   -1    0    0    0    0 -0.00000000000E+00 -0.00000000000E+00 -0.19290597487E+04  0.19290597487E+04  0.00000000000E+00 0. -1.
        -24    2    1    2    0    0  0.14366233533E+02 -0.84687359268E+02 -0.19116566666E+04  0.19153205975E+04  0.81507318315E+02 0.  0.
         25    2    1    2    0    0 -0.43444603453E+02  0.78333915275E+02  0.41308940071E+03  0.44081120754E+03  0.12509209353E+03 0.  0.
         24    2    1    2    0    0  0.29078369919E+02  0.63534439936E+01  0.10741300423E+04  0.10775504687E+04  0.80459598419E+02 0.  0.
        -11    1    5    5    0    0  0.13965189694E+01 -0.29408796496E+01  0.95099034867E+03  0.95099592128E+03  0.00000000000E+00 0.  1.
         12    1    5    5    0    0  0.27681850950E+02  0.92943236432E+01  0.12313969361E+03  0.12655454739E+03  0.00000000000E+00 0. -1.
         11    1    3    3    0    0 -0.59199082795E+01 -0.94904367833E+02 -0.16139216216E+04  0.16167204103E+04  0.00000000000E+00 0. -1.
        -12    1    3    3    0    0  0.20286141813E+02  0.10217008565E+02 -0.29773504497E+03  0.29860018723E+03  0.00000000000E+00 0.  1.
          5    1    4    4  501    0 -0.68118281973E+02  0.99435551791E+02  0.30925886433E+03  0.33194283674E+03  0.41800000000E+01 0.  1.
         -5    1    4    4    0  501  0.24673678520E+02 -0.21101636517E+02  0.10383053638E+03  0.10886837080E+03  0.41800000000E+01 0.  1.
</event>
<event>
11    1  0.6455215E-009  0.1626823E+03  0.7561462E-02  0.1084581E+00
         22   -1    0    0    0    0  0.00000000000E+00  0.00000000000E+00  0.38726473734E+03  0.38726473734E+03  0.00000000000E+00 0. -1.
         22   -1    0    0    0    0 -0.00000000000E+00 -0.00000000000E+00 -0.43039247106E+03  0.43039247106E+03  0.00000000000E+00 0.  1.
        -24    2    1    2    0    0  0.47346710182E+02  0.90702206536E+02 -0.35871158843E+03  0.38172025515E+03  0.81041645325E+02 0.  0.
         25    2    1    2    0    0 -0.40381696449E+02 -0.12182650415E+03  0.10348270206E+03  0.20695182492E+03  0.12509200491E+03 0.  0.
         24    2    1    2    0    0 -0.69650137325E+01  0.31124297609E+02  0.21210115266E+03  0.22898512834E+03  0.80187634489E+02 0.  0.
        -13    1    5    5    0    0 -0.14414143113E+02 -0.25442197968E+02  0.72439367783E+02  0.78118723517E+02  0.00000000000E+00 0.  1.
         14    1    5    5    0    0  0.74491293803E+01  0.56566495577E+02  0.13966178487E+03  0.15086640482E+03  0.00000000000E+00 0. -1.
         13    1    3    3    0    0  0.31147880051E+01 -0.13317560432E+02 -0.76513482013E+02  0.77726264866E+02  0.00000000000E+00 0. -1.
        -14    1    3    3    0    0  0.44231922177E+02  0.10401976697E+03 -0.28219810642E+03  0.30399399028E+03  0.00000000000E+00 0.  1.
          5    1    4    4  501    0 -0.25147461989E+02  0.14210537309E+02 -0.81109014655E+01  0.30291803144E+02  0.41800000000E+01 0.  1.
         -5    1    4    4    0  501 -0.15234234460E+02 -0.13603704145E+03  0.11159360352E+03  0.17666002178E+03  0.41800000000E+01 0.  1.
</event>
<event>
11    1  0.6455215E-009  0.1319913E+03  0.7561462E-02  0.1116846E+00
         22   -1    0    0    0    0  0.00000000000E+00  0.00000000000E+00  0.58802353965E+02  0.58802353965E+02  0.00000000000E+00 0.  1.
         22   -1    0    0    0    0 -0.00000000000E+00 -0.00000000000E+00 -0.15327954368E+04  0.15327954368E+04  0.00000000000E+00 0.  1.
        -24    2    1    2    0    0  0.32102846395E+02 -0.18583041857E+02 -0.11817646367E+04  0.11851257829E+04  0.81114378088E+02 0.  0.
         25    2    1    2    0    0  0.12293203185E+02  0.19750389503E+01 -0.28560701966E+03  0.31204805296E+03  0.12509034357E+03 0.  0.
         24    2    1    2    0    0 -0.44396049580E+02  0.16608002906E+02 -0.66214264527E+01  0.94423954975E+02  0.81395362313E+02 0.  0.
        -13    1    5    5    0    0 -0.52422926793E+02  0.20911269751E+02  0.24844849757E+02  0.61666125349E+02  0.00000000000E+00 0.  1.
         14    1    5    5    0    0  0.80268772133E+01 -0.43032668441E+01 -0.31466276209E+02  0.32757829626E+02  0.00000000000E+00 0. -1.
         11    1    3    3    0    0 -0.10057823009E+02 -0.34743598517E+02 -0.77879002231E+03  0.77962951220E+03  0.00000000000E+00 0. -1.
        -12    1    3    3    0    0  0.42160669404E+02  0.16160556661E+02 -0.40297461444E+03  0.40549627066E+03  0.00000000000E+00 0.  1.
          5    1    4    4  501    0  0.20543207165E+02  0.60601431822E+02 -0.11888069005E+03  0.13507274991E+03  0.41800000000E+01 0.  1.
         -5    1    4    4    0  501 -0.82500039799E+01 -0.58626392872E+02 -0.16672632961E+03  0.17697530305E+03  0.41800000000E+01 0.  1.
</event>
<event>
11    1  0.6455215E-009  0.1890605E+03  0.7561462E-02  0.1062541E+00
         22   -1    0    0    0    0  0.00000000000E+00  0.00000000000E+00  0.21723150324E+04  0.21723150324E+04  0.00000000000E+00 0. -1.
         22   -1    0    0    0    0 -0.00000000000E+00 -0.00000000000E+00 -0.12565959570E+04  0.12565959570E+04  0.00000000000E+00 0.  1.
         24    2    1    2    0    0 -0.76419283113E+02 -0.10903651630E+03 -0.12250009263E+04  0.12347687599E+04  0.79358378096E+02 0.  0.
         25    2    1    2    0    0 -0.92647973392E-01  0.21818674956E+03  0.67929190840E+03  0.72435504285E+03  0.12508902830E+03 0.  0.
        -24    2    1    2    0    0  0.76511931086E+02 -0.10915023326E+03  0.14614280933E+04  0.14697871868E+04  0.82063715613E+02 0.  0.
        -11    1    3    3    0    0 -0.68640736448E+02 -0.62255287877E+02 -0.52135095261E+03  0.52952250883E+03  0.00000000000E+00 0.  1.
         12    1    3    3    0    0 -0.77785466644E+01 -0.46781228427E+02 -0.70364997370E+03  0.70524625105E+03  0.00000000000E+00 0. -1.
         13    1    5    5    0    0  0.90266478532E+02 -0.70354426607E+02  0.11412710931E+04  0.11469949828E+04  0.00000000000E+00 0. -1.
        -14    1    5    5    0    0 -0.13754547446E+02 -0.38795806654E+02  0.32015700018E+03  0.32279220399E+03  0.00000000000E+00 0.  1.
          5    1    4    4  501    0  0.61232123321E+02  0.12654988202E+03  0.35758681540E+03  0.38425258426E+03  0.41800000000E+01 0.  1.
         -5    1    4    4    0  501 -0.61324771294E+02  0.91636867544E+02  0.32170509301E+03  0.34010245858E+03  0.41800000000E+01 0.  1.
</event>
<event>
11    1  0.6455215E-009  0.1440875E+03  0.7561462E-02  0.1103078E+00
         22   -1    0    0    0    0  0.00000000000E+00  0.00000000000E+00  0.22379324403E+03  0.22379324403E+03  0.00000000000E+00 0. -1.
         22   -1    0    0    0    0 -0.00000000000E+00 -0.00000000000E+00 -0.21464610398E+04  0.21464610398E+04  0.00000000000E+00 0.  1.
        -24    2    1    2    0    0 -0.66966697927E+02  0.34017911675E+02 -0.12472764931E+04  0.12520364159E+04  0.79087164818E+02 0.  0.
         25    2    1    2    0    0  0.33270645015E+02 -0.64582115333E+02 -0.88069529808E+03  0.89249646266E+03  0.12509173579E+03 0.  0.
         24    2    1    2    0    0  0.33696052912E+02  0.30564203659E+02  0.20530399538E+03  0.22572140526E+03  0.82041622057E+02 0.  0.
        -13    1    5    5    0    0 -0.11495572478E+02 -0.13869760290E+02  0.10464129510E+02  0.20833061309E+02  0.00000000000E+00 0.  1.
         14    1    5    5    0    0  0.45191625390E+02  0.44433963949E+02  0.19483986587E+03  0.20488834395E+03  0.00000000000E+00 0. -1.
         13    1    3    3    0    0 -0.69554602523E+02 -0.51476267756E+01 -0.82022915517E+03  0.82318904742E+03  0.00000000000E+00 0. -1.
        -14    1    3    3    0    0  0.25879045960E+01  0.39165538450E+02 -0.42704733793E+03  0.42884736852E+03  0.00000000000E+00 0.  1.
          5    1    4    4  501    0  0.25299805241E+02 -0.46164581802E+02 -0.11520408387E+03  0.12673082537E+03  0.41800000000E+01 0.  1.
         -5    1    4    4    0  501  0.79708397735E+01 -0.18417533531E+02 -0.76549121421E+03  0.76576563729E+03  0.41800000000E+01 0.  1.
</event>
<event>
11    1  0.6455215E-009  0.1359516E+03  0.7561462E-02  0.1112165E+00
         22   -1    0    0    0    0  0.00000000000E+00  0.00000000000E+00  0.25604838997E+03  0.25604838997E+03  0.00000000000E+00 0. -1.
         22   -1    0    0    0    0 -0.00000000000E+00 -0.00000000000E+00 -0.35828297767E+03  0.35828297767E+03  0.00000000000E+00 0. -1.
         24    2    1    2    0    0  0.24382634408E+02  0.23797449433E+01 -0.29336652396E+03  0.30478612083E+03  0.78933427800E+02 0.  0.
         25    2    1    2    0    0  0.35606123126E+02 -0.10592499770E+02  0.62797824902E+02  0.14481292130E+03  0.12508884166E+03 0.  0.
        -24    2    1    2    0    0 -0.59988757534E+02  0.82127548265E+01  0.12833411136E+03  0.16473232550E+03  0.83671946029E+02 0.  0.
        -13    1    3    3    0    0  0.99712869181E+01  0.45613600754E+01  0.92399724864E-01  0.10965450572E+02  0.00000000000E+00 0.  1.
         14    1    3    3    0    0  0.14411347490E+02 -0.21816151321E+01 -0.29345892369E+03  0.29382067026E+03  0.00000000000E+00 0. -1.
         11    1    5    5    0    0  0.12806665904E+02  0.21315878428E+02  0.56016831684E+02  0.61288357757E+02  0.00000000000E+00 0. -1.
        -12    1    5    5    0    0 -0.72795423438E+02 -0.13103123601E+02  0.72317279677E+02  0.10344396774E+03  0.00000000000E+00 0.  1.
          5    1    4    4  501    0  0.39456607669E+02 -0.64294994316E+02  0.45075086396E+02  0.87976735541E+02  0.41800000000E+01 0.  1.
         -5    1    4    4    0  501 -0.38504845426E+01  0.53702494546E+02  0.17722738506E+02  0.56836185761E+02  0.41800000000E+01 0.  1.
</event>
<event>
11    1  0.6455215E-009  0.1795097E+03  0.7561462E-02  0.1070040E+00
         22   -1    0    0    0    0  0.00000000000E+00  0.00000000000E+00  0.10403033387E+04  0.10403033387E+04  0.00000000000E+00 0.  1.
         22   -1    0    0    0    0 -0.00000000000E+00 -0.00000000000E+00 -0.71406410555E+03  0.71406410555E+03  0.00000000000E+00 0.  1.
        -24    2    1    2    0    0 -0.25723065818E+02  0.73743097772E+02 -0.67297649438E+03  0.68222315214E+03  0.80195677892E+02 0.  0.
         25    2    1    2    0    0  0.13327310152E+03  0.38402032365E+01  0.26607399537E+03  0.32283098958E+03  0.12509200642E+03 0.  0.
         24    2    1    2    0    0 -0.10755003570E+03 -0.77583301009E+02  0.73314173210E+03  0.74931330248E+03  0.79921506114E+02 0.  0.
        -13    1    5    5    0    0 -0.84457932539E+02 -0.93108905522E+02  0.55881396032E+03  0.57277871199E+03  0.00000000000E+00 0.  1.
         14    1    5    5    0    0 -0.23092103159E+02  0.15525604514E+02  0.17432777178E+03  0.17653459049E+03  0.00000000000E+00 0. -1.
         13    1    3    3    0    0 -0.19112602759E+02 -0.81877869452E+01 -0.54910281453E+02  0.58715163701E+02  0.00000000000E+00 0. -1.
        -14    1    3    3    0    0 -0.66104630590E+01  0.81930884717E+02 -0.61806621292E+03  0.62350798844E+03  0.00000000000E+00 0.  1.
          5    1    4    4  501    0  0.10452307811E+03  0.59245499126E+02  0.17160347702E+03  0.20952405292E+03  0.41800000000E+01 0.  1.
         -5    1    4    4    0  501  0.28750023403E+02 -0.55405295890E+02  0.94470518352E+02  0.11330693666E+03  0.41800000000E+01 0.  1.
</event>
<event>
11    1  0.6455215E-009  0.2133414E+03  0.7561462E-02  0.1045471E+00
         22   -1    0    0    0    0  0.00000000000E+00  0.00000000000E+00  0.11372257925E+04  0.11372257925E+04  0.00000000000E+00 0.  1.
         22   -1    0    0    0    0 -0.00000000000E+00 -0.00000000000E+00 -0.52028079090E+03  0.52028079090E+03  0.00000000000E+00 0.  1.
        -24    2    1    2    0    0 -0.16196052945E+03 -0.82911396841E+02 -0.37009263174E+03  0.42108575629E+03  0.85083166723E+02 0.  0.
         25    2    1    2    0    0  0.16784585852E+03 -0.40749768562E+02 -0.24017187141E+02  0.21461968115E+03  0.12510797897E+03 0.  0.
         24    2    1    2    0    0 -0.58853290672E+01  0.12366116540E+03  0.10110548205E+04  0.10218011460E+04  0.80740392211E+02 0.  0.
        -13    1    5    5    0    0 -0.12898532190E+02  0.41203649913E+01  0.33150841512E+03  0.33178483816E+03  0.00000000000E+00 0.  1.
         14    1    5    5    0    0  0.70132031223E+01  0.11954080041E+03  0.67954640537E+03  0.69001630780E+03  0.00000000000E+00 0. -1.
         13    1    3    3    0    0 -0.35611801506E+01 -0.33757085214E+02 -0.80494460091E+02  0.87358920046E+02  0.00000000000E+00 0. -1.
        -14    1    3    3    0    0 -0.15839934930E+03 -0.49154311627E+02 -0.28959817165E+03  0.33372683625E+03  0.00000000000E+00 0.  1.
          5    1    4    4  501    0  0.59217774427E+02  0.44857386145E+02 -0.15386873830E+02  0.75981301556E+02  0.41800000000E+01 0.  1.
         -5    1    4    4    0  501  0.10862808409E+03 -0.85607154707E+02 -0.86303133119E+01  0.13863837960E+03  0.41800000000E+01 0.  1.
</event>
<event>
11    1  0.6455215E-009  0.1683081E+03  0.7561462E-02  0.1079513E+00
         22   -1    0    0    0    0  0.00000000000E+00  0.00000000000E+00  0.25699436020E+03  0.25699436020E+03  0.00000000000E+00 0. -1.
         22   -1    0    0    0    0 -0.00000000000E+00 -0.00000000000E+00 -0.63743600155E+03  0.63743600155E+03  0.00000000000E+00 0. -1.
         24    2    1    2    0    0  0.25190852234E+02  0.17053177315E+01 -0.45142530720E+03  0.45916745315E+03  0.80077805319E+02 0.  0.
         25    2    1    2    0    0  0.54981598866E+02 -0.83731840295E+02 -0.11821805118E+03  0.19913527774E+03  0.12508138920E+03 0.  0.
        -24    2    1    2    0    0 -0.80172451100E+02  0.82026522563E+02  0.18920171704E+03  0.23612763085E+03  0.82480276437E+02 0.  0.
        -13    1    3    3    0    0  0.38042501857E+02  0.10736522254E+02 -0.10203373092E+03  0.10942297338E+03  0.00000000000E+00 0.  1.
         14    1    3    3    0    0 -0.12851649623E+02 -0.90312045226E+01 -0.34939157628E+03  0.34974447977E+03  0.00000000000E+00 0. -1.
         11    1    5    5    0    0 -0.23054207384E+02  0.42675799107E+02  0.14732686367E+03  0.15510617353E+03  0.00000000000E+00 0. -1.
        -12    1    5    5    0    0 -0.57118243716E+02  0.39350723456E+02  0.41874853365E+02  0.81021457319E+02  0.00000000000E+00 0.  1.
          5    1    4    4  501    0  0.66337100945E+02  0.73891615078E+01 -0.36761179556E+02  0.76315577649E+02  0.41800000000E+01 0. -1.
         -5    1    4    4    0  501 -0.11355502079E+02 -0.91121001803E+02 -0.81456871623E+02  0.12281970010E+03  0.41800000000E+01 0. -1.
</event>
<event>
11    1  0.6455215E-009  0.1354795E+03  0.7561462E-02  0.1112714E+00
         22   -1    0    0    0    0  0.00000000000E+00  0.00000000000E+00  0.12736725570E+04  0.12736725570E+04  0.00000000000E+00 0. -1.
         22   -1    0    0    0    0 -0.00000000000E+00 -0.00000000000E+00 -0.54607540623E+03  0.54607540623E+03  0.00000000000E+00 0.  1.
         24    2    1    2    0    0 -0.49170723269E+02  0.22572178183E+02 -0.45874608827E+03  0.46891254764E+03  0.80645772255E+02 0.  0.
         25    2    1    2    0    0  0.30050988382E+02 -0.89000560990E+01 -0.29343862096E+02  0.13225296400E+03  0.12509001296E+03 0.  0.
        -24    2    1    2    0    0  0.19119734887E+02 -0.13672122084E+02  0.12156871012E+04  0.12185824516E+04  0.80595113224E+02 0.  0.
        -11    1    3    3    0    0 -0.39579616135E+02  0.35009218361E+02 -0.44474201967E+03  0.44787013234E+03  0.00000000000E+00 0.  1.
         12    1    3    3    0    0 -0.95911071343E+01 -0.12437040178E+02 -0.14004068596E+02  0.21042415301E+02  0.00000000000E+00 0. -1.
         13    1    5    5    0    0 -0.29353171491E+02 -0.13704518734E+02  0.65633519722E+03  0.65713416714E+03  0.00000000000E+00 0. -1.
        -14    1    5    5    0    0  0.48472906377E+02  0.32396650060E-01  0.55935190395E+03  0.56144828449E+03  0.00000000000E+00 0.  1.
          5    1    4    4  501    0 -0.15054625504E+02 -0.56564792065E+02  0.34269862944E+01  0.58782940429E+02  0.41800000000E+01 0. -1.
         -5    1    4    4    0  501  0.45105613886E+02  0.47664735966E+02 -0.32770848391E+02  0.73470023568E+02  0.41800000000E+01 0. -1.
</event>
<event>
11    1  0.6455215E-009  0.1552584E+03  0.7561462E-02  0.1091624E+00
         22   -1    0    0    0    0  0.00000000000E+00  0.00000000000E+00  0.61672618236E+03  0.61672618236E+03  0.00000000000E+00 0. -1.
         22   -1    0    0    0    0 -0.00000000000E+00 -0.00000000000E+00 -0.86909095765E+03  0.86909095765E+03  0.00000000000E+00 0.  1.
        -24    2    1    2    0    0 -0.63718911957E+02  0.70642780996E+02 -0.55054337085E+03  0.56447561207E+03  0.80524599866E+02 0.  0.
         25    2    1    2    0    0  0.94028078712E+01 -0.96585808796E+02 -0.28702956268E+03  0.32779911099E+03  0.12509618721E+03 0.  0.
         24    2    1    2    0    0  0.54316104086E+02  0.25943027800E+02  0.58520815824E+03  0.59354241695E+03  0.78744729353E+02 0.  0.
        -13    1    5    5    0    0  0.27263106561E+02 -0.98955336660E+01  0.62417192932E+02  0.68826626674E+02  0.00000000000E+00 0.  1.
         14    1    5    5    0    0  0.27052997525E+02  0.35838561466E+02  0.52279096531E+03  0.52471579028E+03  0.00000000000E+00 0. -1.
         13    1    3    3    0    0 -0.35080854065E+02  0.66782069388E+01 -0.67402307809E+02  0.76278016937E+02  0.00000000000E+00 0. -1.
        -14    1    3    3    0    0 -0.28638057892E+02  0.63964574057E+02 -0.48314106304E+03  0.48819759513E+03  0.00000000000E+00 0.  1.
          5    1    4    4  501    0 -0.41475907054E+02 -0.80638802091E+02 -0.10868502311E+03  0.14160781729E+03  0.41800000000E+01 0. -1.
         -5    1    4    4    0  501  0.50878714925E+02 -0.15947006705E+02 -0.17834453957E+03  0.18619129370E+03  0.41800000000E+01 0. -1.
</event>
<event>
11    1  0.6455215E-009  0.1939321E+03  0.7561462E-02  0.1058899E+00
         22   -1    0    0    0    0  0.00000000000E+00  0.00000000000E+00  0.48225009141E+03  0.48225009141E+03  0.00000000000E+00 0.  1.
         22   -1    0    0    0    0 -0.00000000000E+00 -0.00000000000E+00 -0.39924018082E+03  0.39924018082E+03  0.00000000000E+00 0. -1.
         24    2    1    2    0    0 -0.10512425765E+03 -0.98791032370E+02 -0.28761708609E+03  0.33109012725E+03  0.78014784063E+02 0.  0.
         25    2    1    2    0    0  0.61738446234E+02  0.21193257913E+03  0.18572012632E+03  0.31442929379E+03  0.12508701624E+03 0.  0.
        -24    2    1    2    0    0  0.43385811414E+02 -0.11314154676E+03  0.18490687037E+03  0.23597085119E+03  0.82512748507E+02 0.  0.
        -13    1    3    3    0    0 -0.42001934205E+02 -0.75411539768E+01 -0.35038389754E+02  0.55215217439E+02  0.00000000000E+00 0.  1.
         14    1    3    3    0    0 -0.63122323443E+02 -0.91249878394E+02 -0.25257869633E+03  0.27587490981E+03  0.00000000000E+00 0. -1.
         11    1    5    5    0    0  0.31588745146E+02 -0.30919077288E+02  0.14709652957E+02  0.46585534776E+02  0.00000000000E+00 0. -1.
        -12    1    5    5    0    0  0.11797066268E+02 -0.82222469474E+02  0.17019721741E+03  0.18938531641E+03  0.00000000000E+00 0.  1.
          5    1    4    4  501    0  0.67705929790E+02  0.38888920619E+02  0.78125116611E+02  0.11053256227E+03  0.41800000000E+01 0. -1.
         -5    1    4    4    0  501 -0.59674835561E+01  0.17304365851E+03  0.10759500971E+03  0.20389673152E+03  0.41800000000E+01 0. -1.
</event>
<event>
11    1  0.6455215E-009  0.1369680E+03  0.7561462E-02  0.1110992E+00
         22   -1    0    0    0    0  0.00000000000E+00  0.00000000000E+00  0.43538055432E+02  0.43538055432E+02  0.00000000000E+00 0. -1.
         22   -1    0    0    0    0 -0.00000000000E+00 -0.00000000000E+00 -0.10120408499E+04  0.10120408499E+04  0.00000000000E+00 0. -1.
         24    2    1    2    0    0 -0.22865200914E+02 -0.72877854011E+02 -0.53606809955E+03  0.54608525969E+03  0.70753830175E+02 0.  0.
         25    2    1    2    0    0  0.59011802499E+02  0.18492095547E+02 -0.34752770391E+03  0.37448962900E+03  0.12507048738E+03 0.  0.
        -24    2    1    2    0    0 -0.36146601585E+02  0.54385758464E+02 -0.84906991030E+02  0.13500401666E+03  0.82173595864E+02 0.  0.
        -13    1    3    3    0    0 -0.42626249270E+02 -0.70896662783E+02 -0.46468230035E+03  0.47198831996E+03  0.00000000000E+00 0.  1.
         14    1    3    3    0    0  0.19761048356E+02 -0.19811912279E+01 -0.71385799199E+02  0.74096939735E+02  0.00000000000E+00 0. -1.
         13    1    5    5    0    0 -0.56901523780E+02  0.31332803767E+02 -0.29148738053E+02  0.71198152577E+02  0.00000000000E+00 0. -1.
        -14    1    5    5    0    0  0.20754922194E+02  0.23052954697E+02 -0.55758252978E+02  0.63805864078E+02  0.00000000000E+00 0.  1.
          5    1    4    4  501    0  0.29211249250E+02 -0.28516922248E+02 -0.29501134633E+03  0.29785177320E+03  0.41800000000E+01 0.  1.
         -5    1    4    4    0  501  0.29800553249E+02  0.47009017795E+02 -0.52516357578E+02  0.76637855798E+02  0.41800000000E+01 0.  1.
</event>
<event>
11    1  0.6455215E-009  0.2964436E+03  0.7561462E-02  0.1001708E+00
         22   -1    0    0    0    0  0.00000000000E+00  0.00000000000E+00  0.38257163894E+03  0.38257163894E+03  0.00000000000E+00 0.  1.
         22   -1    0    0    0    0 -0.00000000000E+00 -0.00000000000E+00 -0.41310232155E+03  0.41310232155E+03  0.00000000000E+00 0. -1.
         24    2    1    2    0    0  0.28020088162E+03 -0.20428728043E+02 -0.13957135677E+03  0.32310616038E+03  0.77379327040E+02 0.  0.
         25    2    1    2    0    0 -0.24472845371E+03  0.76763781162E+02 -0.42237754632E+02  0.28847146556E+03  0.12508822633E+03 0.  0.
        -24    2    1    2    0    0 -0.35472427904E+02 -0.56335053119E+02  0.15127842880E+03  0.18409633456E+03  0.81082464357E+02 0.  0.
        -11    1    3    3    0    0  0.43824061614E+02  0.15294871109E+02 -0.26365087983E+00  0.46417140912E+02  0.00000000000E+00 0.  1.
         12    1    3    3    0    0  0.23637682000E+03 -0.35723599152E+02 -0.13930770589E+03  0.27668901947E+03  0.00000000000E+00 0. -1.
         11    1    5    5    0    0 -0.55187382599E+02 -0.63302120753E+02  0.11966321817E+03  0.14619196788E+03  0.00000000000E+00 0. -1.
        -12    1    5    5    0    0  0.19714954695E+02  0.69670676345E+01  0.31615210627E+02  0.37904366674E+02  0.00000000000E+00 0.  1.
          5    1    4    4  501    0 -0.12253481944E+03  0.90155748459E+02  0.14781316219E+02  0.15290127751E+03  0.41800000000E+01 0. -1.
         -5    1    4    4    0  501 -0.12219363428E+03 -0.13391967297E+02 -0.57019070851E+02  0.13557018805E+03  0.41800000000E+01 0. -1.
</event>
<event>
11    1  0.6455215E-009  0.1341148E+03  0.7561462E-02  0.1114314E+00
         22   -1    0    0    0    0  0.00000000000E+00  0.00000000000E+00  0.85214509976E+02  0.85214509976E+02  0.00000000000E+00 0. -1.
         22   -1    0    0    0    0 -0.00000000000E+00 -0.00000000000E+00 -0.47410039129E+03  0.47410039129E+03  0.00000000000E+00 0. -1.
        -24    2    1    2    0    0 -0.35712490307E+02 -0.26856249193E+02 -0.20872637462E+03  0.22606761624E+03  0.74452854655E+02 0.  0.
         25    2    1    2    0    0  0.28565823307E+02  0.54151772980E+02 -0.20602943736E+03  0.24868442650E+03  0.12508954451E+03 0.  0.
         24    2    1    2    0    0  0.71466670008E+01 -0.27295523787E+02  0.25869930673E+02  0.84562858519E+02  0.75402276224E+02 0.  0.
        -13    1    5    5    0    0 -0.15147348273E+02 -0.47414480160E+02  0.21486142795E+02  0.54214660570E+02  0.00000000000E+00 0.  1.
         14    1    5    5    0    0  0.22294015274E+02  0.20118956373E+02  0.43837878783E+01  0.30348197948E+02  0.00000000000E+00 0. -1.
         13    1    3    3    0    0  0.71480235003E+01  0.53703799704E+01 -0.13287333621E+03  0.13317379133E+03  0.00000000000E+00 0. -1.
        -14    1    3    3    0    0 -0.42860513808E+02 -0.32226629163E+02 -0.75853038413E+02  0.92893824916E+02  0.00000000000E+00 0.  1.
          5    1    4    4  501    0  0.43372551419E+02  0.67745710914E+02 -0.58048918465E+02  0.99286499076E+02  0.41800000000E+01 0.  1.
         -5    1    4    4    0  501 -0.14806728112E+02 -0.13593937934E+02 -0.14798051890E+03  0.14939792742E+03  0.41800000000E+01 0.  1.
</event>
<event>
11    1  0.6455215E-009  0.1891407E+03  0.7561462E-02  0.1062480E+00
         22   -1    0    0    0    0  0.00000000000E+00  0.00000000000E+00  0.59803393180E+03  0.59803393180E+03  0.00000000000E+00 0.  1.
         22   -1    0    0    0    0 -0.00000000000E+00 -0.00000000000E+00 -0.18580344676E+04  0.18580344676E+04  0.00000000000E+00 0. -1.
        -24    2    1    2    0    0 -0.36001423179E+02 -0.30648286754E+02 -0.15067025290E+04  0.15095975446E+04  0.80602826200E+02 0.  0.
         25    2    1    2    0    0  0.87520999784E+02 -0.10207897350E+03 -0.31326886951E+03  0.36313379710E+03  0.12509487503E+03 0.  0.
         24    2    1    2    0    0 -0.51519576604E+02  0.13272726025E+03  0.55997086278E+03  0.58333705771E+03  0.80274300688E+02 0.  0.
        -13    1    5    5    0    0 -0.59799534871E+02  0.80233415355E+02  0.45265438806E+03  0.46358319679E+03  0.00000000000E+00 0.  1.
         14    1    5    5    0    0  0.82799582666E+01  0.52493844897E+02  0.10731647471E+03  0.11975386092E+03  0.00000000000E+00 0. -1.
         11    1    3    3    0    0 -0.51444530926E+02 -0.23494796872E+02 -0.14259440802E+04  0.14270651930E+04  0.00000000000E+00 0. -1.
        -12    1    3    3    0    0  0.15443107747E+02 -0.71534898816E+01 -0.80758448853E+02  0.82532351570E+02  0.00000000000E+00 0.  1.
          5    1    4    4  501    0  0.95886342902E+02 -0.38748733359E+02 -0.11468066849E+03  0.15448230714E+03  0.41800000000E+01 0. -1.
         -5    1    4    4    0  501 -0.83653431188E+01 -0.63330240138E+02 -0.19858820101E+03  0.20865148996E+03  0.41800000000E+01 0. -1.
</event>
<event>
11    1  0.6455215E-009  0.1372240E+03  0.7561462E-02  0.1110698E+00
         22   -1    0    0    0    0  0.00000000000E+00  0.00000000000E+00  0.39735648573E+03  0.39735648573E+03  0.00000000000E+00 0.  1.
         22   -1    0    0    0    0 -0.00000000000E+00 -0.00000000000E+00 -0.15394066410E+04  0.15394066410E+04  0.00000000000E+00 0. -1.
         24    2    1    2    0    0  0.12848612425E+02 -0.72226558299E+01 -0.11942242975E+04  0.11970084703E+04  0.80251801098E+02 0.  0.
         25    2    1    2    0    0 -0.68838795392E+02  0.11802694184E+02 -0.32250190599E+03  0.35289286835E+03  0.12509122203E+03 0.  0.
        -24    2    1    2    0    0  0.55990182967E+02 -0.45800383539E+01  0.37467604828E+03  0.38686178804E+03  0.78256147058E+02 0.  0.
        -11    1    3    3    0    0 -0.59200591626E+01 -0.11798152867E+02 -0.31894558708E+02  0.34518203700E+02  0.00000000000E+00 0.  1.
         12    1    3    3    0    0  0.18768671587E+02  0.45754970367E+01 -0.11623297388E+04  0.11624902666E+04  0.00000000000E+00 0. -1.
         11    1    5    5    0    0 -0.27179340176E+01  0.16846249281E+02  0.21054087638E+03  0.21123125694E+03  0.00000000000E+00 0. -1.
        -12    1    5    5    0    0  0.58708116985E+02 -0.21426287635E+02  0.16413517190E+03  0.17563053110E+03  0.00000000000E+00 0.  1.
          5    1    4    4  501    0 -0.25152527973E+02  0.41691947809E+02 -0.33973012176E+02  0.59518956072E+02  0.41800000000E+01 0.  1.
         -5    1    4    4    0  501 -0.43686267418E+02 -0.29889253626E+02 -0.28852889381E+03  0.29337391228E+03  0.41800000000E+01 0.  1.
</event>
<event>
11    1  0.6455215E-009  0.2110405E+03  0.7561462E-02  0.1046980E+00
         22   -1    0    0    0    0  0.00000000000E+00  0.00000000000E+00  0.18317349655E+03  0.18317349655E+03  0.00000000000E+00 0. -1.
         22   -1    0    0    0    0 -0.00000000000E+00 -0.00000000000E+00 -0.18994526200E+04  0.18994526200E+04  0.00000000000E+00 0.  1.
         24    2    1    2    0    0  0.17528668123E+03 -0.28278590571E+02 -0.12381765695E+04  0.12532476565E+04  0.77610386157E+02 0.  0.
         25    2    1    2    0    0 -0.15332568314E+03  0.19503868058E+02 -0.62740678211E+03  0.65816120078E+03  0.12509088696E+03 0.  0.
        -24    2    1    2    0    0 -0.21960998085E+02  0.87747225122E+01  0.14930422815E+03  0.17121725926E+03  0.80400970965E+02 0.  0.
        -11    1    3    3    0    0  0.14540462200E+03 -0.94823153623E+01 -0.76484755566E+03  0.77860400834E+03  0.00000000000E+00 0.  1.
         12    1    3    3    0    0  0.29882059228E+02 -0.18796275208E+02 -0.47332901380E+03  0.47464364815E+03  0.00000000000E+00 0. -1.
         11    1    5    5    0    0  0.16421082570E+02  0.33937334842E+02  0.61335438743E+02  0.71996046383E+02  0.00000000000E+00 0. -1.
        -12    1    5    5    0    0 -0.38382080654E+02 -0.25162612330E+02  0.87968789404E+02  0.99221212873E+02  0.00000000000E+00 0.  1.
          5    1    4    4  501    0 -0.10996679419E+02  0.43852063783E+02 -0.79706378768E+02  0.91730636499E+02  0.41800000000E+01 0.  1.
         -5    1    4    4    0  501 -0.14232900372E+03 -0.24348195724E+02 -0.54770040334E+03  0.56643056428E+03  0.41800000000E+01 0.  1.
</event>
<event>
11    1  0.6455215E-009  0.1473679E+03  0.7561462E-02  0.1099599E+00
         22   -1    0    0    0    0  0.00000000000E+00  0.00000000000E+00  0.39180713842E+03  0.39180713842E+03  0.00000000000E+00 0.  1.
         22   -1    0    0    0    0 -0.00000000000E+00 -0.00000000000E+00 -0.17442688259E+04  0.17442688259E+04  0.00000000000E+00 0. -1.
         24    2    1    2    0    0 -0.66455736796E+00  0.53795567322E+02 -0.16966689673E+04  0.16994257286E+04  0.80422745022E+02 0.  0.
         25    2    1    2    0    0 -0.74747525001E+02 -0.14240190323E+02  0.15006603235E+03  0.20966126956E+03  0.12509219948E+03 0.  0.
        -24    2    1    2    0    0  0.75412082369E+02 -0.39555377000E+02  0.19414124742E+03  0.22698896616E+03  0.81126794549E+02 0.  0.
        -13    1    3    3    0    0  0.24417514676E+02 -0.55655383292E+01 -0.23368177047E+03  0.23501991424E+03  0.00000000000E+00 0.  1.
         14    1    3    3    0    0 -0.25082072044E+02  0.59361105652E+02 -0.14629871968E+04  0.14644058144E+04  0.00000000000E+00 0. -1.
         13    1    5    5    0    0  0.45465080214E+02 -0.52531537637E+02  0.69979023662E+02  0.98608821705E+02  0.00000000000E+00 0. -1.
        -14    1    5    5    0    0  0.29947002155E+02  0.12976160637E+02  0.12416222375E+03  0.12838014446E+03  0.00000000000E+00 0.  1.
          5    1    4    4  501    0 -0.93482074261E+02 -0.36342897135E+02  0.64733841172E+02  0.11944725603E+03  0.41800000000E+01 0.  1.
         -5    1    4    4    0  501  0.18734549260E+02  0.22102706813E+02  0.85332191182E+02  0.90214013525E+02  0.41800000000E+01 0.  1.
</event>
<event>
11    1  0.6455215E-009  0.1579755E+03  0.7561462E-02  0.1088997E+00
         22   -1    0    0    0    0  0.00000000000E+00  0.00000000000E+00  0.45756348667E+03  0.45756348667E+03  0.00000000000E+00 0.  1.
         22   -1    0    0    0    0 -0.00000000000E+00 -0.00000000000E+00 -0.15121098289E+03  0.15121098289E+03  0.00000000000E+00 0.  1.
        -24    2    1    2    0    0  0.10384848150E+03  0.16412206768E+02 -0.80027352848E+02  0.15535925383E+03  0.81720578231E+02 0.  0.
         25    2    1    2    0    0 -0.46291546618E+02 -0.10793039277E+02  0.19297618185E+03  0.23482784155E+03  0.12507962031E+03 0.  0.
         24    2    1    2    0    0 -0.57556934880E+02 -0.56191674911E+01  0.19340367478E+03  0.21858737419E+03  0.83851553017E+02 0.  0.
        -13    1    5    5    0    0 -0.17344745370E+02 -0.29750760960E+02  0.15255727617E+03  0.15639587744E+03  0.00000000000E+00 0.  1.
         14    1    5    5    0    0 -0.40212189510E+02  0.24131593469E+02  0.40846398608E+02  0.62191496748E+02  0.00000000000E+00 0. -1.
         11    1    3    3    0    0  0.28236278186E+02 -0.25358613137E+02 -0.52332264026E+02  0.64645282304E+02  0.00000000000E+00 0. -1.
        -12    1    3    3    0    0  0.75612203312E+02  0.41770819905E+02 -0.27695088822E+02  0.90713971527E+02  0.00000000000E+00 0.  1.
          5    1    4    4  501    0 -0.16917009077E+02  0.54454220044E+02  0.54945456779E+02  0.79296424240E+02  0.41800000000E+01 0.  1.
         -5    1    4    4    0  501 -0.29374537541E+02 -0.65247259320E+02  0.13803072507E+03  0.15553141731E+03  0.41800000000E+01 0.  1.
</event>
<event>
11    1  0.6455215E-009  0.2114446E+03  0.7561462E-02  0.1046713E+00
         22   -1    0    0    0    0  0.00000000000E+00  0.00000000000E+00  0.54047559087E+03  0.54047559087E+03  0.00000000000E+00 0. -1.
         22   -1    0    0    0    0 -0.00000000000E+00 -0.00000000000E+00 -0.75476557580E+03  0.75476557580E+03  0.00000000000E+00 0. -1.
         24    2    1    2    0    0  0.10904368318E+03 -0.12831905493E+03 -0.67335471815E+03  0.69867879542E+03  0.79932333930E+02 0.  0.
         25    2    1    2    0    0 -0.11318507710E+03  0.18257292768E+03  0.19547919431E+03  0.31623192917E+03  0.12508709773E+03 0.  0.
        -24    2    1    2    0    0  0.41413939227E+01 -0.54253872742E+02  0.26358553892E+03  0.28033044209E+03  0.78403995977E+02 0.  0.
        -11    1    3    3    0    0  0.75631019273E+02 -0.11311187277E+03 -0.39209726718E+03  0.41503567770E+03  0.00000000000E+00 0.  1.
         12    1    3    3    0    0  0.33412663908E+02 -0.15207182167E+02 -0.28125745098E+03  0.28364311772E+03  0.00000000000E+00 0. -1.
         11    1    5    5    0    0  0.24376325950E+01 -0.72551848740E+02  0.23803027844E+03  0.24885362417E+03  0.00000000000E+00 0. -1.
        -12    1    5    5    0    0  0.17037613277E+01  0.18297975998E+02  0.25555260474E+02  0.31476817917E+02  0.00000000000E+00 0.  1.
          5    1    4    4  501    0  0.50234709907E+01  0.99036226206E+02  0.10965430863E+03  0.14790182272E+03  0.41800000000E+01 0.  1.
         -5    1    4    4    0  501 -0.11820854809E+03  0.83536701470E+02  0.85824885673E+02  0.16833010645E+03  0.41800000000E+01 0.  1.
</event>
<event>
11    1  0.6455215E-009  0.1601128E+03  0.7561462E-02  0.1086971E+00
         22   -1    0    0    0    0  0.00000000000E+00  0.00000000000E+00  0.11886411011E+04  0.11886411011E+04  0.00000000000E+00 0. -1.
         22   -1    0    0    0    0 -0.00000000000E+00 -0.00000000000E+00 -0.21574704078E+03  0.21574704078E+03  0.00000000000E+00 0.  1.
        -24    2    1    2    0    0  0.19509336229E+02  0.11078273527E+02 -0.17176016400E+03  0.19440270642E+03  0.88246903517E+02 0.  0.
         25    2    1    2    0    0 -0.10213394345E+03  0.42611005582E+02  0.21783460367E+03  0.27449370690E+03  0.12509132812E+03 0.  0.
         24    2    1    2    0    0  0.82624607218E+02 -0.53689279109E+02  0.92681962063E+03  0.93549172855E+03  0.80254598521E+02 0.  0.
        -11    1    5    5    0    0  0.41751811769E+02  0.17236456117E+02  0.31666972063E+03  0.31987500867E+03  0.00000000000E+00 0.  1.
         12    1    5    5    0    0  0.40872795450E+02 -0.70925735226E+02  0.61014990000E+03  0.61561671988E+03  0.00000000000E+00 0. -1.
         13    1    3    3    0    0  0.61113749758E+01 -0.35370193018E+02 -0.38461313785E+02  0.52608669593E+02  0.00000000000E+00 0. -1.
        -14    1    3    3    0    0  0.13397961253E+02  0.46448466545E+02 -0.13329885022E+03  0.14179403683E+03  0.00000000000E+00 0.  1.
          5    1    4    4  501    0 -0.17102482230E+02 -0.40550332266E+02  0.35220980707E+02  0.56522687722E+02  0.41800000000E+01 0.  1.
         -5    1    4    4    0  501 -0.85031461217E+02  0.83161337848E+02  0.18261362296E+03  0.21797101918E+03  0.41800000000E+01 0.  1.
</event>
<event>
11    1  0.6455215E-009  0.1664297E+03  0.7561462E-02  0.1081181E+00
         22   -1    0    0    0    0  0.00000000000E+00  0.00000000000E+00  0.19407629110E+03  0.19407629110E+03  0.00000000000E+00 0.  1.
         22   -1    0    0    0    0 -0.00000000000E+00 -0.00000000000E+00 -0.41149960482E+03  0.41149960482E+03  0.00000000000E+00 0.  1.
         24    2    1    2    0    0 -0.56992367561E+02 -0.88919952352E+02 -0.27086947925E+03  0.30183234287E+03  0.81102407621E+02 0.  0.
         25    2    1    2    0    0  0.29482944346E+02  0.13939468573E+03 -0.25810725893E+01  0.18961672161E+03  0.12509083404E+03 0.  0.
        -24    2    1    2    0    0  0.27509423215E+02 -0.50474733380E+02  0.56027238128E+02  0.11412683144E+03  0.81125921665E+02 0.  0.
        -11    1    3    3    0    0  0.55677673599E+01 -0.57527927344E+02 -0.16578440819E+03  0.17557030631E+03  0.00000000000E+00 0.  1.
         12    1    3    3    0    0 -0.62560134921E+02 -0.31392025007E+02 -0.10508507107E+03  0.12626203656E+03  0.00000000000E+00 0. -1.
         11    1    5    5    0    0 -0.19118855183E+02 -0.10915900895E+02 -0.99596811920E+01  0.24163666222E+02  0.00000000000E+00 0. -1.
        -12    1    5    5    0    0  0.46628278398E+02 -0.39558832486E+02  0.65986919320E+02  0.89963165214E+02  0.00000000000E+00 0.  1.
          5    1    4    4  501    0  0.33964009557E+02  0.13349711144E+03  0.42125922843E+02  0.14410794039E+03  0.41800000000E+01 0. -1.
         -5    1    4    4    0  501 -0.44810652116E+01  0.58975742961E+01 -0.44706995432E+02  0.45508781225E+02  0.41800000000E+01 0. -1.
</event>
<event>
11    1  0.6455215E-009  0.1459980E+03  0.7561462E-02  0.1101040E+00
         22   -1    0    0    0    0  0.00000000000E+00  0.00000000000E+00  0.59767578372E+02  0.59767578372E+02  0.00000000000E+00 0. -1.
         22   -1    0    0    0    0 -0.00000000000E+00 -0.00000000000E+00 -0.28694606872E+04  0.28694606872E+04  0.00000000000E+00 0.  1.
         24    2    1    2    0    0 -0.26355334647E+02  0.22322290434E+02 -0.11964566489E+04  0.11996253334E+04  0.79997121410E+02 0.  0.
         25    2    1    2    0    0  0.85317237330E+01  0.51757827863E+02 -0.16125509644E+04  0.16182469322E+04  0.12510338798E+03 0.  0.
        -24    2    1    2    0    0  0.17823610914E+02 -0.74080118298E+02 -0.68549547694E+00  0.11135599997E+03  0.81204333585E+02 0.  0.
        -13    1    3    3    0    0 -0.48131350158E+02 -0.87265970447E+01 -0.62456022700E+03  0.62647287053E+03  0.00000000000E+00 0.  1.
         14    1    3    3    0    0  0.21776015511E+02  0.31048887479E+02 -0.57189642194E+03  0.57315246287E+03  0.00000000000E+00 0. -1.
         11    1    5    5    0    0 -0.11090257816E+02 -0.38351053523E+02  0.35058148606E+02  0.53130696480E+02  0.00000000000E+00 0. -1.
        -12    1    5    5    0    0  0.28913868730E+02 -0.35729064775E+02 -0.35743644083E+02  0.58225303494E+02  0.00000000000E+00 0.  1.
          5    1    4    4  501    0 -0.12312829406E+02 -0.39677136451E+02 -0.48126287179E+03  0.48307070403E+03  0.41800000000E+01 0.  1.
         -5    1    4    4    0  501  0.20844553139E+02  0.91434964315E+02 -0.11312880926E+04  0.11351762281E+04  0.41800000000E+01 0.  1.
</event>
<event>
11    1  0.6455215E-009  0.2107564E+03  0.7561462E-02  0.1047168E+00
         22   -1    0    0    0    0  0.00000000000E+00  0.00000000000E+00  0.22498099825E+04  0.22498099825E+04  0.00000000000E+00 0. -1.
         22   -1    0    0    0    0 -0.00000000000E+00 -0.00000000000E+00 -0.34768878684E+03  0.34768878684E+03  0.00000000000E+00 0. -1.
         24    2    1    2    0    0 -0.18736738309E+02 -0.27434588114E+02 -0.25819840203E+03  0.27325443326E+03  0.83053287099E+02 0.  0.
         25    2    1    2    0    0  0.15935295582E+03 -0.67346104099E+02  0.68868874619E+02  0.22433732617E+03  0.12512174774E+03 0.  0.
        -24    2    1    2    0    0 -0.14061621751E+03  0.94780692214E+02  0.20914507231E+04  0.20999070099E+04  0.81774219403E+02 0.  0.
        -11    1    3    3    0    0 -0.10637958777E+02 -0.29612927068E+02 -0.25761504402E+02  0.40666284875E+02  0.00000000000E+00 0.  1.
         12    1    3    3    0    0 -0.80987795323E+01  0.21783389531E+01 -0.23243689763E+03  0.23258814838E+03  0.00000000000E+00 0. -1.
         13    1    5    5    0    0 -0.87298765603E+02  0.64851967737E+02  0.17220285629E+04  0.17254591341E+04  0.00000000000E+00 0. -1.
        -14    1    5    5    0    0 -0.53317451904E+02  0.29928724476E+02  0.36942216020E+03  0.37444787577E+03  0.00000000000E+00 0.  1.
          5    1    4    4  501    0  0.13596786079E+03 -0.98555582285E+02  0.33011507108E+02  0.17119490053E+03  0.41800000000E+01 0. -1.
         -5    1    4    4    0  501  0.23385095030E+02  0.31209478186E+02  0.35857367511E+02  0.53142425641E+02  0.41800000000E+01 0. -1.
</event>
<event>
11    1  0.6455215E-009  0.2309099E+03  0.7561462E-02  0.1034591E+00
         22   -1    0    0    0    0  0.00000000000E+00  0.00000000000E+00  0.20432776132E+04  0.20432776132E+04  0.00000000000E+00 0.  1.
         22   -1    0    0    0    0 -0.00000000000E+00 -0.00000000000E+00 -0.85418229724E+03  0.85418229724E+03  0.00000000000E+00 0. -1.
        -24    2    1    2    0    0 -0.13285872015E+03 -0.13931838163E+03 -0.67302479809E+03  0.70471219133E+03  0.81214794076E+02 0.  0.
         25    2    1    2    0    0  0.18445213949E+03  0.10291380191E+03 -0.72054205894E+02  0.25583856759E+03  0.12509085375E+03 0.  0.
         24    2    1    2    0    0 -0.51593419342E+02  0.36404579715E+02  0.19341743199E+04  0.19369091515E+04  0.81237842076E+02 0.  0.
        -11    1    5    5    0    0 -0.61961511081E+01  0.19412112454E+02  0.14827122573E+04  0.14828522719E+04  0.00000000000E+00 0.  1.
         12    1    5    5    0    0 -0.45397268234E+02  0.16992467261E+02  0.45146206258E+03  0.45405687953E+03  0.00000000000E+00 0. -1.
         13    1    3    3    0    0 -0.77460546497E+02 -0.12153222361E+03 -0.55084308056E+03  0.56938415594E+03  0.00000000000E+00 0. -1.
        -14    1    3    3    0    0 -0.55398173655E+02 -0.17786158016E+02 -0.12218171754E+03  0.13532803539E+03  0.00000000000E+00 0.  1.
          5    1    4    4  501    0  0.19847413580E+03  0.11231126833E+03 -0.67426193130E+02  0.23784357779E+03  0.41800000000E+01 0.  1.
         -5    1    4    4    0  501 -0.14021996308E+02 -0.93974664239E+01 -0.46280127643E+01  0.17994989797E+02  0.41800000000E+01 0.  1.
</event>
<event>
11    1  0.6455215E-009  0.1568554E+03  0.7561462E-02  0.1090073E+00
         22   -1    0    0    0    0  0.00000000000E+00  0.00000000000E+00  0.50405074461E+02  0.50405074461E+02  0.00000000000E+00 0.  1.
         22   -1    0    0    0    0 -0.00000000000E+00 -0.00000000000E+00 -0.15093809284E+04  0.15093809284E+04  0.00000000000E+00 0.  1.
        -24    2    1    2    0    0 -0.61437478433E+02  0.53779214720E+02 -0.76204890469E+03  0.76995185707E+03  0.73760161167E+02 0.  0.
         25    2    1    2    0    0  0.11897955536E+03  0.21371032949E+02 -0.61981776277E+03  0.64376520644E+03  0.12508687515E+03 0.  0.
         24    2    1    2    0    0 -0.57542076930E+02 -0.75150247669E+02 -0.77109186431E+02  0.14606893930E+03  0.80197618756E+02 0.  0.
        -13    1    5    5    0    0  0.86916304858E+01 -0.53168277399E+02 -0.39418727097E+02  0.66755121212E+02  0.00000000000E+00 0.  1.
         14    1    5    5    0    0 -0.66233707416E+02 -0.21981970270E+02 -0.37690459334E+02  0.79313818088E+02  0.00000000000E+00 0. -1.
         11    1    3    3    0    0 -0.53720516911E+02  0.55335051816E+02 -0.37625829374E+03  0.38408093614E+03  0.00000000000E+00 0. -1.
        -12    1    3    3    0    0 -0.77169615221E+01 -0.15558370960E+01 -0.38579061095E+03  0.38587092093E+03  0.00000000000E+00 0.  1.
          5    1    4    4  501    0  0.14027105821E+03 -0.20084661692E+01 -0.46603967092E+03  0.48671393136E+03  0.41800000000E+01 0. -1.
         -5    1    4    4    0  501 -0.21291502843E+02  0.23379499119E+02 -0.15377809185E+03  0.15705127508E+03  0.41800000000E+01 0. -1.
</event>
<event>
11    1  0.6455215E-009  0.1599016E+03  0.7561462E-02  0.1087170E+00
         22   -1    0    0    0    0  0.00000000000E+00  0.00000000000E+00  0.23285162718E+04  0.23285162718E+04  0.00000000000E+00 0. -1.
         22   -1    0    0    0    0 -0.00000000000E+00 -0.00000000000E+00 -0.10917888836E+03  0.10917888836E+03  0.00000000000E+00 0.  1.
         24    2    1    2    0    0 -0.38501389671E+01  0.85614355380E+02 -0.64100748269E+02  0.13321179492E+03  0.79321087744E+02 0.  0.
         25    2    1    2    0    0  0.85838146009E+02 -0.11274996537E+03  0.12452579168E+04  0.12595216955E+04  0.12508748951E+03 0.  0.
        -24    2    1    2    0    0 -0.81988007042E+02  0.27135609991E+02  0.10381802149E+04  0.10449616698E+04  0.81660014766E+02 0.  0.
        -11    1    3    3    0    0  0.47136760793E+01  0.72342482217E+02 -0.81925476184E+02  0.10939578202E+03  0.00000000000E+00 0.  1.
         12    1    3    3    0    0 -0.85638150464E+01  0.13271873163E+02  0.17824727915E+02  0.23816012904E+02  0.00000000000E+00 0. -1.
         11    1    5    5    0    0 -0.82979994207E+02  0.14467178798E+02  0.53241406886E+03  0.53903591663E+03  0.00000000000E+00 0. -1.
        -12    1    5    5    0    0  0.99198716576E+00  0.12668431193E+02  0.50576614607E+03  0.50592575314E+03  0.00000000000E+00 0.  1.
          5    1    4    4  501    0  0.77458130976E+02 -0.14114601613E+02  0.77124439907E+03  0.77526407084E+03  0.41800000000E+01 0. -1.
         -5    1    4    4    0  501  0.83800150330E+01 -0.98635363758E+02  0.47401351771E+03  0.48425762462E+03  0.41800000000E+01 0. -1.
</event>
<event>
11    1  0.6455215E-009  0.1315692E+03  0.7561462E-02  0.1117356E+00
         22   -1    0    0    0    0  0.00000000000E+00  0.00000000000E+00  0.20393494782E+03  0.20393494782E+03  0.00000000000E+00 0.  1.
         22   -1    0    0    0    0 -0.00000000000E+00 -0.00000000000E+00 -0.10997582336E+04  0.10997582336E+04  0.00000000000E+00 0. -1.
         24    2    1    2    0    0 -0.37797022998E+02  0.67403694653E+01 -0.66659882440E+03  0.67264023385E+03  0.81343985471E+02 0.  0.
         25    2    1    2    0    0  0.40949941765E+02 -0.38879260820E+02 -0.40877791415E+03  0.43120152633E+03  0.12508748361E+03 0.  0.
        -24    2    1    2    0    0 -0.31529187666E+01  0.32138891355E+02  0.17955345274E+03  0.19985142129E+03  0.81598400513E+02 0.  0.
        -11    1    3    3    0    0  0.47429615832E+01 -0.15017695457E+02 -0.26987252556E+02  0.31246418386E+02  0.00000000000E+00 0.  1.
         12    1    3    3    0    0 -0.42539984581E+02  0.21758064922E+02 -0.63961157185E+03  0.64139381547E+03  0.00000000000E+00 0. -1.
         11    1    5    5    0    0  0.11102775540E+02 -0.46349206240E+01 -0.35533619347E+01  0.12545138299E+02  0.00000000000E+00 0. -1.
        -12    1    5    5    0    0 -0.14255694307E+02  0.36773811979E+02  0.18310681467E+03  0.18730628299E+03  0.00000000000E+00 0.  1.
          5    1    4    4  501    0  0.17998954548E+02 -0.43362014660E+02 -0.40460533661E+02  0.62118868827E+02  0.41800000000E+01 0. -1.
         -5    1    4    4    0  501  0.22950987217E+02  0.44827538401E+01 -0.36831738049E+03  0.36908265750E+03  0.41800000000E+01 0. -1.
</event>
<event>
11    1  0.6455215E-009  0.1801927E+03  0.7561462E-02  0.1069487E+00
         22   -1    0    0    0    0  0.00000000000E+00  0.00000000000E+00  0.11333651028E+04  0.11333651028E+04  0.00000000000E+00 0. -1.
         22   -1    0    0    0    0 -0.00000000000E+00 -0.00000000000E+00 -0.15002084141E+03  0.15002084141E+03  0.00000000000E+00 0.  1.
        -24    2    1    2    0    0  0.48956084770E+01 -0.11627885154E+03 -0.33540200449E+02  0.14460403362E+03  0.78997741693E+02 0.  0.
         25    2    1    2    0    0  0.20023739516E+02  0.18066768850E+03  0.15332324858E+03  0.26869803414E+03  0.12509536837E+03 0.  0.
         24    2    1    2    0    0 -0.24919347993E+02 -0.64388836953E+02  0.86356121330E+03  0.87008387648E+03  0.80876985464E+02 0.  0.
        -11    1    5    5    0    0  0.98690851503E+00 -0.82041340067E+01  0.58032657826E+01  0.10097509443E+02  0.00000000000E+00 0.  1.
         12    1    5    5    0    0 -0.25906256508E+02 -0.56184702946E+02  0.85775794751E+03  0.85998636704E+03  0.00000000000E+00 0. -1.
         13    1    3    3    0    0 -0.12171778982E+02 -0.70440122418E+02 -0.55974495687E+02  0.90791559174E+02  0.00000000000E+00 0. -1.
        -14    1    3    3    0    0  0.17067387459E+02 -0.45838729127E+02  0.22434295238E+02  0.53812474441E+02  0.00000000000E+00 0.  1.
          5    1    4    4  501    0  0.59443087927E+02  0.16900381078E+03  0.12083778156E+03  0.21613655548E+03  0.41800000000E+01 0. -1.
         -5    1    4    4    0  501 -0.39419348411E+02  0.11663877718E+02  0.32485467011E+02  0.52561478665E+02  0.41800000000E+01 0. -1.
</event>
<event>
11    1  0.6455215E-009  0.1297935E+03  0.7561462E-02  0.1119523E+00
         22   -1    0    0    0    0  0.00000000000E+00  0.00000000000E+00  0.16229501726E+03  0.16229501726E+03  0.00000000000E+00 0. -1.
         22   -1    0    0    0    0 -0.00000000000E+00 -0.00000000000E+00 -0.43347916347E+04  0.43347916347E+04  0.00000000000E+00 0.  1.
         24    2    1    2    0    0  0.10693322777E+02  0.18036375081E+02 -0.39185254065E+04  0.39191987938E+04  0.69556931251E+02 0.  0.
         25    2    1    2    0    0  0.11192340383E+02  0.96172855986E+01 -0.39329355801E+03  0.41297083206E+03  0.12508926692E+03 0.  0.
        -24    2    1    2    0    0 -0.21885663159E+02 -0.27653660680E+02  0.13932234701E+03  0.16491702607E+03  0.80890060633E+02 0.  0.
        -11    1    3    3    0    0 -0.31112951479E+01  0.23112367478E+02 -0.37387446482E+04  0.37388173807E+04  0.00000000000E+00 0.  1.
         12    1    3    3    0    0  0.13804617924E+02 -0.50759923967E+01 -0.17978075827E+03  0.18038141317E+03  0.00000000000E+00 0. -1.
         13    1    5    5    0    0 -0.53542913276E+01  0.18463322857E+02  0.10074018292E+03  0.10255801861E+03  0.00000000000E+00 0. -1.
        -14    1    5    5    0    0 -0.16531371832E+02 -0.46116983537E+02  0.38582164095E+02  0.62359007460E+02  0.00000000000E+00 0.  1.
          5    1    4    4  501    0 -0.33549127645E+02  0.33770541442E+02 -0.32071916062E+03  0.32425953467E+03  0.41800000000E+01 0. -1.
         -5    1    4    4    0  501  0.44741468028E+02 -0.24153255843E+02 -0.72574397388E+02  0.88711297394E+02  0.41800000000E+01 0. -1.
</event>
<event>
11    1  0.6455215E-009  0.1354415E+03  0.7561462E-02  0.1112758E+00
         22   -1    0    0    0    0  0.00000000000E+00  0.00000000000E+00  0.11097952869E+04  0.11097952869E+04  0.00000000000E+00 0. -1.
         22   -1    0    0    0    0 -0.00000000000E+00 -0.00000000000E+00 -0.58663462894E+03  0.58663462894E+03  0.00000000000E+00 0.  1.
        -24    2    1    2    0    0  0.35486439245E+02  0.34475625054E+02 -0.18249989319E+03  0.20659439309E+03  0.83229659077E+02 0.  0.
         25    2    1    2    0    0 -0.57211362050E+02 -0.12506494136E+02 -0.37813758960E+03  0.40257345531E+03  0.12509115842E+03 0.  0.
         24    2    1    2    0    0  0.21724922804E+02 -0.21969130917E+02  0.10837981408E+04  0.10872620675E+04  0.81029491203E+02 0.  0.
        -11    1    5    5    0    0  0.35853410097E+02  0.52899103855E+01  0.22375111565E+03  0.22666718316E+03  0.00000000000E+00 0.  1.
         12    1    5    5    0    0 -0.14128487293E+02 -0.27259041303E+02  0.86004702513E+03  0.86059488432E+03  0.00000000000E+00 0. -1.
         13    1    3    3    0    0  0.25808808182E+02  0.35811914403E+02 -0.29072745738E+02  0.52856525971E+02  0.00000000000E+00 0. -1.
        -14    1    3    3    0    0  0.96776310628E+01 -0.13362893489E+01 -0.15342714745E+03  0.15373786712E+03  0.00000000000E+00 0.  1.
          5    1    4    4  501    0  0.34091565520E+02  0.58117835881E+01 -0.46603204383E+02  0.58183698119E+02  0.41800000000E+01 0. -1.
         -5    1    4    4    0  501 -0.91302927569E+02 -0.18318277724E+02 -0.33153438521E+03  0.34438975720E+03  0.41800000000E+01 0. -1.
</event>
<event>
11    1  0.6455215E-009  0.1342996E+03  0.7561462E-02  0.1114096E+00
         22   -1    0    0    0    0  0.00000000000E+00  0.00000000000E+00  0.10800375608E+03  0.10800375608E+03  0.00000000000E+00 0. -1.
         22   -1    0    0    0    0 -0.00000000000E+00 -0.00000000000E+00 -0.48650185704E+03  0.48650185704E+03  0.00000000000E+00 0.  1.
        -24    2    1    2    0    0 -0.19573152526E+02  0.25129086126E+02 -0.34514408442E+03  0.35380787464E+03  0.70999956903E+02 0.  0.
         25    2    1    2    0    0 -0.34520718992E+02 -0.15067119819E+02 -0.57115648614E+02  0.14257280397E+03  0.12508440740E+03 0.  0.
         24    2    1    2    0    0  0.54093871518E+02 -0.10061966307E+02  0.23761632079E+02  0.98124934511E+02  0.77694900167E+02 0.  0.
        -13    1    5    5    0    0 -0.80477464645E+00 -0.26352800222E+00 -0.24415540542E+02  0.24430221636E+02  0.00000000000E+00 0.  1.
         14    1    5    5    0    0  0.54898646165E+02 -0.97984383047E+01  0.48177172621E+02  0.73694712875E+02  0.00000000000E+00 0. -1.
         11    1    3    3    0    0 -0.45240665294E+00 -0.24445652618E+02 -0.96423967559E+02  0.99475505143E+02  0.00000000000E+00 0. -1.
        -12    1    3    3    0    0 -0.19120745873E+02  0.49574738744E+02 -0.24872011686E+03  0.25433236950E+03  0.00000000000E+00 0.  1.
          5    1    4    4  501    0  0.44803237017E+02 -0.11939909337E+02 -0.39718752593E+02  0.61195940958E+02  0.41800000000E+01 0. -1.
         -5    1    4    4    0  501 -0.79323956009E+02 -0.31272104819E+01 -0.17396896022E+02  0.81376863011E+02  0.41800000000E+01 0. -1.
</event>
<event>
11    1  0.6455215E-009  0.1427013E+03  0.7561462E-02  0.1104579E+00
         22   -1    0    0    0    0  0.00000000000E+00  0.00000000000E+00  0.73232924959E+03  0.73232924959E+03  0.00000000000E+00 0. -1.
         22   -1    0    0    0    0 -0.00000000000E+00 -0.00000000000E+00 -0.40843136985E+03  0.40843136985E+03  0.00000000000E+00 0.  1.
        -24    2    1    2    0    0 -0.25660269025E+02  0.64418974581E+02 -0.37735267356E+03  0.39202223215E+03  0.80486871983E+02 0.  0.
         25    2    1    2    0    0  0.23236741193E+02 -0.42753815905E+02  0.20237083135E+03  0.24283683371E+03  0.12509172438E+03 0.  0.
         24    2    1    2    0    0  0.24235278320E+01 -0.21665158676E+02  0.49887972194E+03  0.50590155358E+03  0.81118138307E+02 0.  0.
        -11    1    5    5    0    0 -0.35358586860E+02  0.63828384017E+01  0.17801105056E+03  0.18160094827E+03  0.00000000000E+00 0.  1.
         12    1    5    5    0    0  0.37782114692E+02 -0.28047997078E+02  0.32086867138E+03  0.32430060531E+03  0.00000000000E+00 0. -1.
         11    1    3    3    0    0  0.25019851540E+02  0.22854461383E+02 -0.20194812903E+03  0.20477149751E+03  0.00000000000E+00 0. -1.
        -12    1    3    3    0    0 -0.50680120565E+02  0.41564513198E+02 -0.17540454453E+03  0.18725073463E+03  0.00000000000E+00 0.  1.
          5    1    4    4  501    0  0.70813292234E+02 -0.19541785344E+01  0.97444721904E+02  0.12054578963E+03  0.41800000000E+01 0. -1.
         -5    1    4    4    0  501 -0.47576551041E+02 -0.40799637371E+02  0.10492610945E+03  0.12229104408E+03  0.41800000000E+01 0. -1.
</event>
<event>
11    1  0.6455215E-009  0.1377920E+03  0.7561462E-02  0.1110049E+00
         22   -1    0    0    0    0  0.00000000000E+00  0.00000000000E+00  0.83253008094E+03  0.83253008094E+03  0.00000000000E+00 0.  1.
         22   -1    0    0    0    0 -0.00000000000E+00 -0.00000000000E+00 -0.20609058987E+03  0.20609058987E+03  0.00000000000E+00 0. -1.
         24    2    1    2    0    0  0.15277856181E+02 -0.58626453203E+02 -0.15812966451E+03  0.18673216203E+03  0.78698383933E+02 0.  0.
         25    2    1    2    0    0  0.12325787175E+02  0.34697816823E+02  0.10711005285E+03  0.16874723824E+03  0.12508878235E+03 0.  0.
        -24    2    1    2    0    0 -0.27603643356E+02  0.23928636380E+02  0.67745910274E+03  0.68314127054E+03  0.79978865105E+02 0.  0.
        -11    1    3    3    0    0  0.22744451622E+02 -0.69923212864E+01 -0.41499022136E+01  0.24154178209E+02  0.00000000000E+00 0.  1.
         12    1    3    3    0    0 -0.74665954416E+01 -0.51634131916E+02 -0.15397976230E+03  0.16257798382E+03  0.00000000000E+00 0. -1.
         13    1    5    5    0    0  0.99296138165E+01 -0.24593644974E+02  0.19309695702E+03  0.19490992641E+03  0.00000000000E+00 0. -1.
        -14    1    5    5    0    0 -0.37533257172E+02  0.48522281354E+02  0.48436214572E+03  0.48823134413E+03  0.00000000000E+00 0.  1.
          5    1    4    4  501    0 -0.10897419080E+02 -0.28333113953E+02  0.95697095383E+02  0.10048345910E+03  0.41800000000E+01 0. -1.
         -5    1    4    4    0  501  0.23223206255E+02  0.63030930776E+02  0.11412957463E+02  0.68263779131E+02  0.41800000000E+01 0. -1.
</event>
<event>
11    1  0.6455215E-009  0.1356785E+03  0.7561462E-02  0.1112482E+00
         22   -1    0    0    0    0  0.00000000000E+00  0.00000000000E+00  0.77141068065E+02  0.77141068065E+02  0.00000000000E+00 0. -1.
         22   -1    0    0    0    0 -0.00000000000E+00 -0.00000000000E+00 -0.88592420963E+03  0.88592420963E+03  0.00000000000E+00 0.  1.
        -24    2    1    2    0    0 -0.31455564300E+02 -0.29121549247E+02 -0.42621738879E+03  0.43551221318E+03  0.78562765730E+02 0.  0.
         25    2    1    2    0    0  0.66052850846E+02  0.45712822392E+02 -0.40856877008E+03  0.43477396796E+03  0.12508925652E+03 0.  0.
         24    2    1    2    0    0 -0.34597286546E+02 -0.16591273145E+02  0.26003017308E+02  0.92779096559E+02  0.80371395834E+02 0.  0.
        -13    1    5    5    0    0 -0.43428199674E+01 -0.26646411172E+02 -0.22222698625E+02  0.34967694345E+02  0.00000000000E+00 0.  1.
         14    1    5    5    0    0 -0.30254466578E+02  0.10055138027E+02  0.48225715933E+02  0.57811402214E+02  0.00000000000E+00 0. -1.
         13    1    3    3    0    0 -0.20278320085E+02  0.20569331011E+02 -0.70821224231E+02  0.76484988366E+02  0.00000000000E+00 0. -1.
        -14    1    3    3    0    0 -0.11177244215E+02 -0.49690880257E+02 -0.35539616456E+03  0.35902722481E+03  0.00000000000E+00 0.  1.
          5    1    4    4  501    0  0.29734369436E+02  0.52298815682E+02 -0.38730483946E+03  0.39197169530E+03  0.41800000000E+01 0.  1.
         -5    1    4    4    0  501  0.36318481410E+02 -0.65859932905E+01 -0.21263930620E+02  0.42802272661E+02  0.41800000000E+01 0.  1.
</event>
<event>
11    1  0.6455215E-009  0.1290454E+03  0.7561462E-02  0.1120447E+00
         22   -1    0    0    0    0  0.00000000000E+00  0.00000000000E+00  0.15495332697E+03  0.15495332697E+03  0.00000000000E+00 0.  1.
         22   -1    0    0    0    0 -0.00000000000E+00 -0.00000000000E+00 -0.23875533494E+03  0.23875533494E+03  0.00000000000E+00 0.  1.
        -24    2    1    2    0    0 -0.34250964013E+02  0.63149028696E+01 -0.10893248305E+03  0.13941653996E+03  0.79735056380E+02 0.  0.
         25    2    1    2    0    0  0.19771276962E+02 -0.16380332031E+02 -0.55265525550E+02  0.13914603165E+03  0.12509245037E+03 0.  0.
         24    2    1    2    0    0  0.14479687050E+02  0.10065429162E+02  0.80396000638E+02  0.11514609030E+03  0.80524101927E+02 0.  0.
        -13    1    5    5    0    0 -0.23378711542E+02  0.53802379110E+00  0.71334051758E+02  0.75069305066E+02  0.00000000000E+00 0.  1.
         14    1    5    5    0    0  0.37858398593E+02  0.95274053707E+01  0.90619488809E+01  0.40076785233E+02  0.00000000000E+00 0. -1.
         13    1    3    3    0    0 -0.10077978932E+02  0.22988857592E+02  0.15006447348E+01  0.25145678901E+02  0.00000000000E+00 0. -1.
        -14    1    3    3    0    0 -0.24172985080E+02 -0.16673954723E+02 -0.11043312779E+03  0.11427086106E+03  0.00000000000E+00 0.  1.
          5    1    4    4  501    0 -0.46697247720E+02 -0.16019489207E+02  0.43833980134E+01  0.49738753072E+02  0.41800000000E+01 0. -1.
         -5    1    4    4    0  501  0.66468524682E+02 -0.36084282491E+00 -0.59648923563E+02  0.89407278581E+02  0.41800000000E+01 0. -1.
</event>
<event>
11    1  0.6455215E-009  0.1505007E+03  0.7561462E-02  0.1096368E+00
         22   -1    0    0    0    0  0.00000000000E+00  0.00000000000E+00  0.18426688761E+03  0.18426688761E+03  0.00000000000E+00 0.  1.
         22   -1    0    0    0    0 -0.00000000000E+00 -0.00000000000E+00 -0.37493594707E+04  0.37493594707E+04  0.00000000000E+00 0.  1.
         24    2    1    2    0    0  0.69047879848E+02 -0.50011148506E+02 -0.35948559815E+04  0.35967604661E+04  0.80172304625E+02 0.  0.
         25    2    1    2    0    0 -0.47365124925E+02 -0.18974755423E+02 -0.10014071533E+03  0.16816362156E+03  0.12508934546E+03 0.  0.
        -24    2    1    2    0    0 -0.21682754924E+02  0.68985903929E+02  0.12990411376E+03  0.16870227057E+03  0.79725657862E+02 0.  0.
        -11    1    3    3    0    0  0.56916337158E+02 -0.71968888854E+02 -0.27355014159E+04  0.27370398219E+04  0.00000000000E+00 0.  1.
         12    1    3    3    0    0  0.12131542690E+02  0.21957740348E+02 -0.85935456562E+03  0.85972064424E+03  0.00000000000E+00 0. -1.
         11    1    5    5    0    0 -0.65231729493E+01  0.38591825514E+02  0.52332347930E+01  0.39487561690E+02  0.00000000000E+00 0. -1.
        -12    1    5    5    0    0 -0.15159581974E+02  0.30394078415E+02  0.12467087897E+03  0.12921470888E+03  0.00000000000E+00 0.  1.
          5    1    4    4  501    0 -0.84382271942E+02 -0.37783843354E+02 -0.77332642611E+02  0.12060595611E+03  0.41800000000E+01 0. -1.
         -5    1    4    4    0  501  0.37017147017E+02  0.18809087931E+02 -0.22808072715E+02  0.47557665450E+02  0.41800000000E+01 0. -1.
</event>
<event>
11    1  0.6455215E-009  0.1761928E+03  0.7561462E-02  0.1072765E+00
         22   -1    0    0    0    0  0.00000000000E+00  0.00000000000E+00  0.55411834704E+03  0.55411834704E+03  0.00000000000E+00 0. -1.
         22   -1    0    0    0    0 -0.00000000000E+00 -0.00000000000E+00 -0.23715177473E+03  0.23715177473E+03  0.00000000000E+00 0. -1.
        -24    2    1    2    0    0 -0.45564814547E+02  0.14783545085E+02 -0.16932152529E+03  0.19334589199E+03  0.80113354028E+02 0.  0.
         25    2    1    2    0    0  0.22345955875E+02  0.11343768688E+03  0.14787769400E+03  0.22557304353E+03  0.12509170650E+03 0.  0.
         24    2    1    2    0    0  0.23218858673E+02 -0.12822123197E+03  0.33841040360E+03  0.37235118625E+03  0.84522215509E+02 0.  0.
        -11    1    5    5    0    0 -0.46542570852E+00  0.11290042146E+01  0.10057732557E+03  0.10058473885E+03  0.00000000000E+00 0.  1.
         12    1    5    5    0    0  0.23684284381E+02 -0.12935023618E+03  0.23783307803E+03  0.27176644740E+03  0.00000000000E+00 0. -1.
         11    1    3    3    0    0 -0.50104241644E+02 -0.23035152655E+02 -0.95567594829E+02  0.11033684095E+03  0.00000000000E+00 0. -1.
        -12    1    3    3    0    0  0.45394270964E+01  0.37818697740E+02 -0.73753930459E+02  0.83009051044E+02  0.00000000000E+00 0.  1.
          5    1    4    4  501    0 -0.39772991548E+01  0.52335064130E+02  0.14990157882E+03  0.15887961977E+03  0.41800000000E+01 0. -1.
         -5    1    4    4    0  501  0.26323255030E+02  0.61102622753E+02 -0.20238848210E+01  0.66693423757E+02  0.41800000000E+01 0. -1.
</event>
<event>
11    1  0.6455215E-009  0.1454518E+03  0.7561462E-02  0.1101619E+00
         22   -1    0    0    0    0  0.00000000000E+00  0.00000000000E+00  0.19269510318E+03  0.19269510318E+03  0.00000000000E+00 0. -1.
         22   -1    0    0    0    0 -0.00000000000E+00 -0.00000000000E+00 -0.12643970468E+04  0.12643970468E+04  0.00000000000E+00 0.  1.
        -24    2    1    2    0    0  0.47836653043E+02 -0.58169066357E+02 -0.11164547188E+04  0.11218223532E+04  0.79638353557E+02 0.  0.
         25    2    1    2    0    0 -0.56785356773E+01  0.70013629844E+02 -0.93406109906E+02  0.17119143141E+03  0.12509056994E+03 0.  0.
         24    2    1    2    0    0 -0.42158117366E+02 -0.11844563487E+02  0.13815888508E+03  0.16407836538E+03  0.76917045679E+02 0.  0.
        -13    1    5    5    0    0  0.13776368026E+02 -0.24231384154E+02  0.25916292355E+02  0.38060511076E+02  0.00000000000E+00 0.  1.
         14    1    5    5    0    0 -0.55934485392E+02  0.12386820667E+02  0.11224259272E+03  0.12601785430E+03  0.00000000000E+00 0. -1.
         13    1    3    3    0    0 -0.73213206795E+01 -0.47595458208E+02 -0.34769526171E+03  0.35101413703E+03  0.00000000000E+00 0. -1.
        -14    1    3    3    0    0  0.55157973723E+02 -0.10573608149E+02 -0.76875945710E+03  0.77080821619E+03  0.00000000000E+00 0.  1.
          5    1    4    4  501    0 -0.21942253546E+02  0.65643956474E+02 -0.12049491935E+03  0.13902190295E+03  0.41800000000E+01 0. -1.
         -5    1    4    4    0  501  0.16263717869E+02  0.43696733698E+01  0.27088809440E+02  0.32169528457E+02  0.41800000000E+01 0. -1.
</event>
<event>
11    1  0.6455215E-009  0.2156610E+03  0.7561462E-02  0.1043970E+00
         22   -1    0    0    0    0  0.00000000000E+00  0.00000000000E+00  0.16721507090E+03  0.16721507090E+03  0.00000000000E+00 0.  1.
         22   -1    0    0    0    0 -0.00000000000E+00 -0.00000000000E+00 -0.21373255366E+04  0.21373255366E+04  0.00000000000E+00 0.  1.
        -24    2    1    2    0    0 -0.56788803742E+02 -0.12991652199E+02 -0.17388359254E+04  0.17416161348E+04  0.79263071686E+02 0.  0.
         25    2    1    2    0    0  0.14764874510E+03  0.15414110980E+03 -0.27695940195E+03  0.37136717942E+03  0.12508971963E+03 0.  0.
         24    2    1    2    0    0 -0.90859941357E+02 -0.14114945760E+03  0.45684861584E+02  0.19155729329E+03  0.80177251817E+02 0.  0.
        -11    1    5    5    0    0 -0.82208155435E+02 -0.78256580237E+02  0.27002332958E+00  0.11350042327E+03  0.00000000000E+00 0.  1.
         12    1    5    5    0    0 -0.86517859223E+01 -0.62892877366E+02  0.45414838254E+02  0.78056870016E+02  0.00000000000E+00 0. -1.
         11    1    3    3    0    0  0.83911673766E+01 -0.96047846862E+01 -0.52842085906E+02  0.54359448321E+02  0.00000000000E+00 0. -1.
        -12    1    3    3    0    0 -0.65179971119E+02 -0.33868675125E+01 -0.16859938395E+04  0.16872566865E+04  0.00000000000E+00 0.  1.
          5    1    4    4  501    0  0.71951524598E+02  0.81433500921E+02 -0.46837444861E+02  0.11840462662E+03  0.41800000000E+01 0.  1.
         -5    1    4    4    0  501  0.75697220501E+02  0.72707608881E+02 -0.23012195709E+03  0.25296255280E+03  0.41800000000E+01 0.  1.
</event>
<event>
11    1  0.6455215E-009  0.2969146E+03  0.7561462E-02  0.1001506E+00
         22   -1    0    0    0    0  0.00000000000E+00  0.00000000000E+00  0.26270605651E+04  0.26270605651E+04  0.00000000000E+00 0.  1.
         22   -1    0    0    0    0 -0.00000000000E+00 -0.00000000000E+00 -0.74095642060E+03  0.74095642060E+03  0.00000000000E+00 0.  1.
        -24    2    1    2    0    0 -0.14860968659E+03  0.23185089331E+03 -0.53731162194E+03  0.60918508747E+03  0.81012443746E+02 0.  0.
         25    2    1    2    0    0  0.18388666583E+03 -0.17580305988E+03 -0.46058797847E+02  0.28721038833E+03  0.12508945829E+03 0.  0.
         24    2    1    2    0    0 -0.35276979238E+02 -0.56047833433E+02  0.24694745643E+04  0.24716215099E+04  0.78882441709E+02 0.  0.
        -11    1    5    5    0    0 -0.25367622873E+02 -0.22014146235E+02  0.21367727761E+04  0.21370367418E+04  0.00000000000E+00 0.  1.
         12    1    5    5    0    0 -0.99093563650E+01 -0.34033687198E+02  0.33270178816E+03  0.33458476812E+03  0.00000000000E+00 0. -1.
         13    1    3    3    0    0 -0.38104154015E+01  0.65800353896E+02 -0.10504201806E+03  0.12400819085E+03  0.00000000000E+00 0. -1.
        -14    1    3    3    0    0 -0.14479927119E+03  0.16605053941E+03 -0.43226960388E+03  0.48517689662E+03  0.00000000000E+00 0.  1.
          5    1    4    4  501    0  0.11406590577E+03 -0.24417336957E+02 -0.18140444218E+02  0.11812614156E+03  0.41800000000E+01 0. -1.
         -5    1    4    4    0  501  0.69820760064E+02 -0.15138572292E+03 -0.27918353629E+02  0.16908424678E+03  0.41800000000E+01 0. -1.
</event>
<event>
11    1  0.6455215E-009  0.1534381E+03  0.7561462E-02  0.1093417E+00
         22   -1    0    0    0    0  0.00000000000E+00  0.00000000000E+00  0.36918325732E+04  0.36918325732E+04  0.00000000000E+00 0.  1.
         22   -1    0    0    0    0 -0.00000000000E+00 -0.00000000000E+00 -0.66202441521E+02  0.66202441521E+02  0.00000000000E+00 0.  1.
         24    2    1    2    0    0 -0.17970728303E+02  0.37220685384E+02 -0.21642492849E+02  0.91622397675E+02  0.78853914061E+02 0.  0.
         25    2    1    2    0    0  0.20430482846E+02  0.56341634242E+02  0.56927739132E+03  0.58593175597E+03  0.12508992768E+03 0.  0.
        -24    2    1    2    0    0 -0.24597545438E+01 -0.93562319626E+02  0.30779952332E+04  0.30804808611E+04  0.80917994048E+02 0.  0.
        -13    1    3    3    0    0  0.16096951559E+02  0.46609714392E+02  0.15813516024E+01  0.49336376013E+02  0.00000000000E+00 0.  1.
         14    1    3    3    0    0 -0.34067679862E+02 -0.93890290079E+01 -0.23223844452E+02  0.42286021662E+02  0.00000000000E+00 0. -1.
         11    1    5    5    0    0 -0.21473679011E+02 -0.67372499469E+01  0.22987838076E+03  0.23097744342E+03  0.00000000000E+00 0. -1.
        -12    1    5    5    0    0  0.19013924467E+02 -0.86825069679E+02  0.28481168525E+04  0.28495034177E+04  0.00000000000E+00 0.  1.
          5    1    4    4  501    0 -0.49892879021E+02  0.37820428139E+01  0.23386942160E+03  0.23919862454E+03  0.41800000000E+01 0.  1.
         -5    1    4    4    0  501  0.70323361867E+02  0.52559591428E+02  0.33540796972E+03  0.34673313143E+03  0.41800000000E+01 0.  1.
</event>
<event>
11    1  0.6455215E-009  0.1423892E+03  0.7561462E-02  0.1104919E+00
         22   -1    0    0    0    0  0.00000000000E+00  0.00000000000E+00  0.35694973917E+03  0.35694973917E+03  0.00000000000E+00 0.  1.
         22   -1    0    0    0    0 -0.00000000000E+00 -0.00000000000E+00 -0.74053949686E+03  0.74053949686E+03  0.00000000000E+00 0. -1.
        -24    2    1    2    0    0  0.13191193350E+01 -0.18079198652E+02 -0.69315097003E+03  0.69809701962E+03  0.80948032998E+02 0.  0.
         25    2    1    2    0    0 -0.41924248126E+02 -0.42402005387E+02  0.13401555911E+03  0.19277879789E+03  0.12509165516E+03 0.  0.
         24    2    1    2    0    0  0.40605128791E+02  0.60481204039E+02  0.17554565323E+03  0.20661341851E+03  0.81031326135E+02 0.  0.
        -13    1    5    5    0    0  0.34920868323E+02  0.14417222542E+02  0.14777150958E+03  0.15252456325E+03  0.00000000000E+00 0.  1.
         14    1    5    5    0    0  0.56842604687E+01  0.46063981497E+02  0.27774143651E+02  0.54088855266E+02  0.00000000000E+00 0. -1.
         13    1    3    3    0    0  0.39111550169E+02 -0.19402586829E+02 -0.43598059203E+03  0.43816121503E+03  0.00000000000E+00 0. -1.
        -14    1    3    3    0    0 -0.37792430834E+02  0.13233881768E+01 -0.25717037801E+03  0.25993580459E+03  0.00000000000E+00 0.  1.
          5    1    4    4  501    0 -0.10442103852E+02 -0.81043180373E+02  0.11053885503E+03  0.13752579936E+03  0.41800000000E+01 0.  1.
         -5    1    4    4    0  501 -0.31482144274E+02  0.38641174986E+02  0.23476704086E+02  0.55252998535E+02  0.41800000000E+01 0.  1.
</event>
<event>
11    1  0.6455215E-009  0.1646324E+03  0.7561462E-02  0.1082799E+00
         22   -1    0    0    0    0  0.00000000000E+00  0.00000000000E+00  0.89255635010E+03  0.89255635010E+03  0.00000000000E+00 0.  1.
         22   -1    0    0    0    0 -0.00000000000E+00 -0.00000000000E+00 -0.83273806222E+03  0.83273806222E+03  0.00000000000E+00 0. -1.
        -24    2    1    2    0    0  0.15486744509E+02  0.10569924685E+03 -0.78580338518E+03  0.79713060340E+03  0.80734556862E+02 0.  0.
         25    2    1    2    0    0  0.10659038194E+02 -0.11661594972E+03  0.15126944701E+03  0.22856719384E+03  0.12509045398E+03 0.  0.
         24    2    1    2    0    0 -0.26145782703E+02  0.10916702872E+02  0.69435222605E+03  0.69959661508E+03  0.80669905566E+02 0.  0.
        -13    1    5    5    0    0 -0.16084989036E+02 -0.29752433311E+02  0.15639020797E+03  0.16000572274E+03  0.00000000000E+00 0.  1.
         14    1    5    5    0    0 -0.10060793667E+02  0.40669136183E+02  0.53796201808E+03  0.53959089235E+03  0.00000000000E+00 0. -1.
         13    1    3    3    0    0  0.59857557703E+01  0.64992239427E+02 -0.68360938789E+03  0.68671800302E+03  0.00000000000E+00 0. -1.
        -14    1    3    3    0    0  0.95009887391E+01  0.40707007422E+02 -0.10219399729E+03  0.11041260038E+03  0.00000000000E+00 0.  1.
          5    1    4    4  501    0  0.37269832335E+02 -0.30699732130E+02  0.12607315412E+03  0.13506822922E+03  0.41800000000E+01 0. -1.
         -5    1    4    4    0  501 -0.26610794142E+02 -0.85916217590E+02  0.25196292892E+02  0.93498964621E+02  0.41800000000E+01 0. -1.
</event>
<event>
11    1  0.6455215E-009  0.1342990E+03  0.7561462E-02  0.1114097E+00
         22   -1    0    0    0    0  0.00000000000E+00  0.00000000000E+00  0.90901824277E+03  0.90901824277E+03  0.00000000000E+00 0. -1.
         22   -1    0    0    0    0 -0.00000000000E+00 -0.00000000000E+00 -0.21558663831E+03  0.21558663831E+03  0.00000000000E+00 0. -1.
        -24    2    1    2    0    0  0.43554495922E+02  0.18931171505E+02 -0.18373342146E+03  0.20509359970E+03  0.77781945887E+02 0.  0.
         25    2    1    2    0    0 -0.30991455175E+01  0.19695725619E+02  0.20777893458E+03  0.24334662837E+03  0.12509184455E+03 0.  0.
         24    2    1    2    0    0 -0.40455350404E+02 -0.38626897124E+02  0.66938609134E+03  0.67616465302E+03  0.77409470633E+02 0.  0.
        -11    1    5    5    0    0 -0.22543983766E+02  0.15713766113E+02  0.39072599602E+03  0.39169115080E+03  0.00000000000E+00 0.  1.
         12    1    5    5    0    0 -0.17911366638E+02 -0.54340663238E+02  0.27866009532E+03  0.28447350221E+03  0.00000000000E+00 0. -1.
         11    1    3    3    0    0  0.60658053405E+02  0.32075584380E+02 -0.15142258317E+03  0.16624392094E+03  0.00000000000E+00 0. -1.
        -12    1    3    3    0    0 -0.17103557483E+02 -0.13144412875E+02 -0.32310838288E+02  0.38849678754E+02  0.00000000000E+00 0.  1.
          5    1    4    4  501    0 -0.56170200112E+02 -0.20263629320E+02  0.10598892262E+03  0.12172440253E+03  0.41800000000E+01 0. -1.
         -5    1    4    4    0  501  0.53071054594E+02  0.39959354939E+02  0.10179001195E+03  0.12162222583E+03  0.41800000000E+01 0. -1.
</event>
<event>
11    1  0.6455215E-009  0.1978824E+03  0.7561462E-02  0.1056031E+00
         22   -1    0    0    0    0  0.00000000000E+00  0.00000000000E+00  0.19676463439E+04  0.19676463439E+04  0.00000000000E+00 0. -1.
         22   -1    0    0    0    0 -0.00000000000E+00 -0.00000000000E+00 -0.17184049116E+04  0.17184049116E+04  0.00000000000E+00 0. -1.
         24    2    1    2    0    0  0.23329170976E+01  0.45450156116E+02 -0.13280380628E+04  0.13314162365E+04  0.83144089065E+02 0.  0.
         25    2    1    2    0    0 -0.12139293394E+03 -0.14158742690E+03 -0.35203757401E+03  0.41756505278E+03  0.12508747311E+03 0.  0.
        -24    2    1    2    0    0  0.11906001684E+03  0.96137270780E+02  0.19293170691E+04  0.19370699662E+04  0.80981716814E+02 0.  0.
        -11    1    3    3    0    0 -0.11260493721E+02 -0.10635030051E+02 -0.56946085033E+02  0.59014906453E+02  0.00000000000E+00 0.  1.
         12    1    3    3    0    0  0.13593410818E+02  0.56085186166E+02 -0.12710919777E+04  0.12724013301E+04  0.00000000000E+00 0. -1.
         13    1    5    5    0    0  0.76614914457E+02  0.74140995853E+02  0.16688487246E+04  0.16722508179E+04  0.00000000000E+00 0. -1.
        -14    1    5    5    0    0  0.42445102382E+02  0.21996274928E+02  0.26046834454E+03  0.26481914835E+03  0.00000000000E+00 0.  1.
          5    1    4    4  501    0 -0.39961861183E+02 -0.20201818429E+02 -0.10706023653E+02  0.46229375504E+02  0.41800000000E+01 0. -1.
         -5    1    4    4    0  501 -0.81431072753E+02 -0.12138560847E+03 -0.34133155035E+03  0.37133567728E+03  0.41800000000E+01 0. -1.
</event>
<event>
11    1  0.6455215E-009  0.1484135E+03  0.7561462E-02  0.1098511E+00
         22   -1    0    0    0    0  0.00000000000E+00  0.00000000000E+00  0.16494145487E+04  0.16494145487E+04  0.00000000000E+00 0. -1.
         22   -1    0    0    0    0 -0.00000000000E+00 -0.00000000000E+00 -0.95132092910E+02  0.95132092910E+02  0.00000000000E+00 0. -1.
         24    2    1    2    0    0  0.85750669509E+02  0.22781937172E+02 -0.23690486100E+02  0.12205049544E+03  0.80392103614E+02 0.  0.
         25    2    1    2    0    0 -0.35974776800E+02 -0.24937903025E+02  0.19278116217E+03  0.23394149345E+03  0.12509181546E+03 0.  0.
        -24    2    1    2    0    0 -0.49775892709E+02  0.21559658530E+01  0.13851917797E+04  0.13885546527E+04  0.82737351342E+02 0.  0.
        -11    1    3    3    0    0 -0.75468555064E+01 -0.54870425558E+01  0.14589327801E+02  0.17317942999E+02  0.00000000000E+00 0.  1.
         12    1    3    3    0    0  0.93297525015E+02  0.28268979727E+02 -0.38279813901E+02  0.10473255244E+03  0.00000000000E+00 0. -1.
         11    1    5    5    0    0 -0.66540725899E+02  0.16668643391E+02  0.79750610633E+03  0.80045081143E+03  0.00000000000E+00 0. -1.
        -12    1    5    5    0    0  0.16764833190E+02 -0.14512677538E+02  0.58768567337E+03  0.58810384127E+03  0.00000000000E+00 0.  1.
          5    1    4    4  501    0 -0.30106996686E+02  0.50596898670E+01  0.19991582991E+03  0.20227665006E+03  0.41800000000E+01 0.  1.
         -5    1    4    4    0  501 -0.58677801143E+01 -0.29997592892E+02 -0.71346677420E+01  0.31664843384E+02  0.41800000000E+01 0.  1.
</event>
<event>
11    1  0.6455215E-009  0.1327085E+03  0.7561462E-02  0.1115985E+00
         22   -1    0    0    0    0  0.00000000000E+00  0.00000000000E+00  0.42023802469E+03  0.42023802469E+03  0.00000000000E+00 0. -1.
         22   -1    0    0    0    0 -0.00000000000E+00 -0.00000000000E+00 -0.23349957911E+03  0.23349957911E+03  0.00000000000E+00 0. -1.
         24    2    1    2    0    0 -0.20146883416E+02 -0.16690777697E+02 -0.16289353991E+03  0.18347386762E+03  0.80273755259E+02 0.  0.
         25    2    1    2    0    0  0.61815908928E+02  0.21256417132E+02  0.38873906119E+02  0.14639493109E+03  0.12508898196E+03 0.  0.
        -24    2    1    2    0    0 -0.41669025512E+02 -0.45656394356E+01  0.31075807936E+03  0.32386880508E+03  0.81013988085E+02 0.  0.
        -13    1    3    3    0    0 -0.16993563253E+01 -0.31581752768E+02 -0.17472210830E+02  0.36132714694E+02  0.00000000000E+00 0.  1.
         14    1    3    3    0    0 -0.18447527091E+02  0.14890975072E+02 -0.14542132908E+03  0.14734115292E+03  0.00000000000E+00 0. -1.
         11    1    5    5    0    0 -0.59269018424E+02 -0.23897424115E+02  0.24238877113E+03  0.25067153767E+03  0.00000000000E+00 0. -1.
        -12    1    5    5    0    0  0.17599992912E+02  0.19331784680E+02  0.68369308231E+02  0.73197267418E+02  0.00000000000E+00 0.  1.
          5    1    4    4  501    0 -0.36645021147E+02 -0.43306974010E+01  0.22073655391E+02  0.43201055279E+02  0.41800000000E+01 0.  1.
         -5    1    4    4    0  501  0.98460930075E+02  0.25587114533E+02  0.16800250729E+02  0.10319387582E+03  0.41800000000E+01 0.  1.
</event>
<event>
11    1  0.6455215E-009  0.1662289E+03  0.7561462E-02  0.1081361E+00
         22   -1    0    0    0    0  0.00000000000E+00  0.00000000000E+00  0.82732697754E+03  0.82732697754E+03  0.00000000000E+00 0. -1.
         22   -1    0    0    0    0 -0.00000000000E+00 -0.00000000000E+00 -0.68234975054E+03  0.68234975054E+03  0.00000000000E+00 0. -1.
        -24    2    1    2    0    0  0.29761464738E+02  0.10297340247E+03 -0.45094185136E+03  0.47051981266E+03  0.80938707670E+02 0.  0.
         25    2    1    2    0    0 -0.60232739308E+02 -0.10391902908E+03 -0.18435272181E+03  0.25311079734E+03  0.12510796218E+03 0.  0.
         24    2    1    2    0    0  0.30471274570E+02  0.94562660657E+00  0.78027180017E+03  0.78604611807E+03  0.90083432483E+02 0.  0.
        -13    1    5    5    0    0 -0.23452319565E+02 -0.17299387762E+02  0.12709434171E+03  0.13039268309E+03  0.00000000000E+00 0.  1.
         14    1    5    5    0    0  0.53923594135E+02  0.18245014369E+02  0.65317745847E+03  0.65565343498E+03  0.00000000000E+00 0. -1.
         11    1    3    3    0    0 -0.21360324162E+01  0.10214560650E+03 -0.33127041296E+03  0.34666752670E+03  0.00000000000E+00 0. -1.
        -12    1    3    3    0    0  0.31897497154E+02  0.82779597499E+00 -0.11967143840E+03  0.12385228597E+03  0.00000000000E+00 0.  1.
          5    1    4    4  501    0 -0.63603503008E+01 -0.24495865621E+02 -0.14830778456E+03  0.15050971015E+03  0.41800000000E+01 0.  1.
         -5    1    4    4    0  501 -0.53872389007E+02 -0.79423163456E+02 -0.36044937251E+02  0.10260108719E+03  0.41800000000E+01 0.  1.
</event>
<event>
11    1  0.6455215E-009  0.1413212E+03  0.7561462E-02  0.1106092E+00
         22   -1    0    0    0    0  0.00000000000E+00  0.00000000000E+00  0.71203135735E+02  0.71203135735E+02  0.00000000000E+00 0.  1.
         22   -1    0    0    0    0 -0.00000000000E+00 -0.00000000000E+00 -0.19501623601E+04  0.19501623601E+04  0.00000000000E+00 0.  1.
         24    2    1    2    0    0 -0.64198833425E+02  0.40671880162E+02 -0.10063119018E+04  0.10123924308E+04  0.80616983955E+02 0.  0.
         25    2    1    2    0    0  0.10069826643E+03  0.13721876831E+02 -0.88137671120E+03  0.89599213083E+03  0.12509420725E+03 0.  0.
        -24    2    1    2    0    0 -0.36499433008E+02 -0.54393756993E+02  0.87293886466E+01  0.11298093424E+03  0.91638419160E+02 0.  0.
        -13    1    3    3    0    0 -0.78937459718E+02  0.25991641974E+02 -0.91376209548E+03  0.91753357167E+03  0.00000000000E+00 0.  1.
         14    1    3    3    0    0  0.14738626293E+02  0.14680238188E+02 -0.92549806345E+02  0.94858859116E+02  0.00000000000E+00 0. -1.
         11    1    5    5    0    0 -0.31969003848E+02  0.11080387278E+02 -0.22158668313E+02  0.40445009218E+02  0.00000000000E+00 0. -1.
        -12    1    5    5    0    0 -0.45304291603E+01 -0.65474144271E+02  0.30888056959E+02  0.72535925024E+02  0.00000000000E+00 0.  1.
          5    1    4    4  501    0 -0.26277991155E+02  0.94691220752E+01 -0.27427077070E+03  0.27572110030E+03  0.41800000000E+01 0.  1.
         -5    1    4    4    0  501  0.12697625759E+03  0.42527547554E+01 -0.60710594051E+03  0.62027103053E+03  0.41800000000E+01 0.  1.
</event>
<event>
11    1  0.6455215E-009  0.1397728E+03  0.7561462E-02  0.1107812E+00
         22   -1    0    0    0    0  0.00000000000E+00  0.00000000000E+00  0.79526297226E+03  0.79526297226E+03  0.00000000000E+00 0.  1.
         22   -1    0    0    0    0 -0.00000000000E+00 -0.00000000000E+00 -0.14379243940E+03  0.14379243940E+03  0.00000000000E+00 0.  1.
         24    2    1    2    0    0  0.35735520528E+02 -0.26981414124E+02 -0.84556009533E+02  0.12524354982E+03  0.80815864077E+02 0.  0.
         25    2    1    2    0    0 -0.92203802925E+02  0.39670794059E+02  0.15096004790E+03  0.22025386684E+03  0.12509003406E+03 0.  0.
        -24    2    1    2    0    0  0.56468282396E+02 -0.12689379934E+02  0.58506649449E+03  0.59355799501E+03  0.81600264635E+02 0.  0.
        -13    1    3    3    0    0  0.25817482856E+02  0.56342696908E+01 -0.87136941619E+02  0.91055664352E+02  0.00000000000E+00 0.  1.
         14    1    3    3    0    0  0.99180376719E+01 -0.32615683815E+02  0.25809320855E+01  0.34187885463E+02  0.00000000000E+00 0. -1.
         13    1    5    5    0    0  0.68523906639E+02 -0.80386360171E+01  0.28569519089E+03  0.29390795761E+03  0.00000000000E+00 0. -1.
        -14    1    5    5    0    0 -0.12055624243E+02 -0.46507439171E+01  0.29937130359E+03  0.29965003739E+03  0.00000000000E+00 0.  1.
          5    1    4    4  501    0  0.23362445985E+02 -0.17953917707E+02  0.17620927914E+02  0.34584917869E+02  0.41800000000E+01 0.  1.
         -5    1    4    4    0  501 -0.11556624891E+03  0.57624711766E+02  0.13333911999E+03  0.18566894897E+03  0.41800000000E+01 0.  1.
</event>
<event>
11    1  0.6455215E-009  0.1319212E+03  0.7561462E-02  0.1116931E+00
         22   -1    0    0    0    0  0.00000000000E+00  0.00000000000E+00  0.35662532134E+04  0.35662532134E+04  0.00000000000E+00 0. -1.
         22   -1    0    0    0    0 -0.00000000000E+00 -0.00000000000E+00 -0.35351928416E+04  0.35351928416E+04  0.00000000000E+00 0. -1.
        -24    2    1    2    0    0 -0.15447362065E+02  0.14293839600E+02 -0.32160974167E+04  0.32171546586E+04  0.79740633126E+02 0.  0.
         25    2    1    2    0    0  0.49812971570E+02  0.96612474480E+01 -0.30366395254E+03  0.33231633527E+03  0.12509068222E+03 0.  0.
         24    2    1    2    0    0 -0.34365609505E+02 -0.23955087048E+02  0.35508217411E+04  0.35519750611E+04  0.80230646886E+02 0.  0.
        -11    1    5    5    0    0 -0.31765067631E+02  0.24971241113E+02  0.13331855367E+04  0.13337976825E+04  0.00000000000E+00 0.  1.
         12    1    5    5    0    0 -0.26005418740E+01 -0.48926328162E+02  0.22176362044E+04  0.22181773787E+04  0.00000000000E+00 0. -1.
         13    1    3    3    0    0 -0.11063820241E+02 -0.65649244867E+01 -0.29959953214E+04  0.29960229425E+04  0.00000000000E+00 0. -1.
        -14    1    3    3    0    0 -0.43835418245E+01  0.20858764087E+02 -0.22010209535E+03  0.22113171608E+03  0.00000000000E+00 0.  1.
          5    1    4    4  501    0 -0.32476089762E+02  0.28834145706E+02 -0.58576443469E+02  0.73039554313E+02  0.41800000000E+01 0.  1.
         -5    1    4    4    0  501  0.82289061332E+02 -0.19172898258E+02 -0.24508750907E+03  0.25927678096E+03  0.41800000000E+01 0.  1.
</event>
<event>
11    1  0.6455215E-009  0.1669833E+03  0.7561462E-02  0.1080687E+00
         22   -1    0    0    0    0  0.00000000000E+00  0.00000000000E+00  0.12002709849E+04  0.12002709849E+04  0.00000000000E+00 0. -1.
         22   -1    0    0    0    0 -0.00000000000E+00 -0.00000000000E+00 -0.94722221047E+02  0.94722221047E+02  0.00000000000E+00 0. -1.
         24    2    1    2    0    0 -0.27313079793E+02  0.26749471974E+02 -0.12081744296E+02  0.88170194164E+02  0.78526912680E+02 0.  0.
         25    2    1    2    0    0 -0.85353948754E+02 -0.99276533309E+01  0.10485465503E+03  0.18446192448E+03  0.12509135875E+03 0.  0.
        -24    2    1    2    0    0  0.11266702855E+03 -0.16821818643E+02  0.10127758531E+04  0.10223610873E+04  0.80811083755E+02 0.  0.
        -13    1    3    3    0    0 -0.45971972926E+02  0.42084116650E+02 -0.14209279835E+02  0.63924946635E+02  0.00000000000E+00 0.  1.
         14    1    3    3    0    0  0.18658893133E+02 -0.15334644676E+02  0.21275355385E+01  0.24245247529E+02  0.00000000000E+00 0. -1.
         11    1    5    5    0    0  0.11907232359E+03 -0.19668925658E+01  0.78165637795E+03  0.79067615375E+03  0.00000000000E+00 0. -1.
        -12    1    5    5    0    0 -0.64052950427E+01 -0.14854926077E+02  0.23111947516E+03  0.23168493354E+03  0.00000000000E+00 0.  1.
          5    1    4    4  501    0 -0.81239375487E+01 -0.30571692479E+02 -0.18891381554E+02  0.37080769131E+02  0.41800000000E+01 0.  1.
         -5    1    4    4    0  501 -0.77230011205E+02  0.20644039149E+02  0.12374603658E+03  0.14738115535E+03  0.41800000000E+01 0.  1.
</event>
<event>
11    1  0.6455215E-009  0.2239759E+03  0.7561462E-02  0.1038755E+00
         22   -1    0    0    0    0  0.00000000000E+00  0.00000000000E+00  0.71114067257E+03  0.71114067257E+03  0.00000000000E+00 0.  1.
         22   -1    0    0    0    0 -0.00000000000E+00 -0.00000000000E+00 -0.20444242743E+03  0.20444242743E+03  0.00000000000E+00 0.  1.
        -24    2    1    2    0    0  0.79719460362E+02  0.17517706409E+03 -0.95083857921E+02  0.23145477805E+03  0.86534259696E+02 0.  0.
         25    2    1    2    0    0 -0.15997555221E+02 -0.16154883362E+03  0.28151726713E+03  0.34821372291E+03  0.12508748026E+03 0.  0.
         24    2    1    2    0    0 -0.63721905140E+02 -0.13628230469E+02  0.32026483594E+03  0.33591459904E+03  0.77606976799E+02 0.  0.
        -11    1    5    5    0    0 -0.25977331276E+02  0.14971486567E+02  0.24610314288E+03  0.24792281881E+03  0.00000000000E+00 0.  1.
         12    1    5    5    0    0 -0.37744573865E+02 -0.28599717036E+02  0.74161693056E+02  0.87991780228E+02  0.00000000000E+00 0. -1.
         13    1    3    3    0    0  0.17814000387E+02  0.26048695065E+02  0.16083576991E+02  0.35419691884E+02  0.00000000000E+00 0. -1.
        -14    1    3    3    0    0  0.61905459975E+02  0.14912836902E+03 -0.11116743491E+03  0.19603508616E+03  0.00000000000E+00 0.  1.
          5    1    4    4  501    0 -0.20866608115E+02  0.11647643547E+02  0.10316142826E+02  0.26362437999E+02  0.41800000000E+01 0. -1.
         -5    1    4    4    0  501  0.48690528940E+01 -0.17319647716E+03  0.27120112430E+03  0.32185128491E+03  0.41800000000E+01 0. -1.
</event>
<event>
11    1  0.6455215E-009  0.1379047E+03  0.7561462E-02  0.1109921E+00
         22   -1    0    0    0    0  0.00000000000E+00  0.00000000000E+00  0.79243488460E+03  0.79243488460E+03  0.00000000000E+00 0.  1.
         22   -1    0    0    0    0 -0.00000000000E+00 -0.00000000000E+00 -0.19318208026E+03  0.19318208026E+03  0.00000000000E+00 0.  1.
         24    2    1    2    0    0  0.40738814507E+02 -0.41862888252E+02 -0.16201384371E+03  0.19091564579E+03  0.82390204719E+02 0.  0.
         25    2    1    2    0    0 -0.71061438966E+01  0.58718591391E+02  0.42305087323E+03  0.44510372378E+03  0.12508762257E+03 0.  0.
        -24    2    1    2    0    0 -0.33632670611E+02 -0.16855703140E+02  0.33821577482E+03  0.34959759529E+03  0.80083063347E+02 0.  0.
        -13    1    3    3    0    0  0.49877590232E+02 -0.30257709821E+02 -0.16571821189E+03  0.17568673474E+03  0.00000000000E+00 0.  1.
         14    1    3    3    0    0 -0.91387757253E+01 -0.11605178431E+02  0.37043681812E+01  0.15228911051E+02  0.00000000000E+00 0. -1.
         11    1    5    5    0    0 -0.14542487838E+02  0.32473302139E+02  0.13769194026E+03  0.14221487165E+03  0.00000000000E+00 0. -1.
        -12    1    5    5    0    0 -0.19090182772E+02 -0.49329005279E+02  0.20052383455E+03  0.20738272364E+03  0.00000000000E+00 0.  1.
          5    1    4    4  501    0 -0.30703212346E+02  0.71999594050E+02  0.13774988741E+03  0.15849016586E+03  0.41800000000E+01 0.  1.
         -5    1    4    4    0  501  0.23597068449E+02 -0.13281002659E+02  0.28530098582E+03  0.28661355792E+03  0.41800000000E+01 0.  1.
</event>
<event>
11    1  0.6455215E-009  0.1626892E+03  0.7561462E-02  0.1084575E+00
         22   -1    0    0    0    0  0.00000000000E+00  0.00000000000E+00  0.21826469921E+04  0.21826469921E+04  0.00000000000E+00 0.  1.
         22   -1    0    0    0    0 -0.00000000000E+00 -0.00000000000E+00 -0.43735817707E+03  0.43735817707E+03  0.00000000000E+00 0.  1.
         24    2    1    2    0    0  0.73783604285E+02 -0.73849015901E+02 -0.40878986427E+03  0.42913412650E+03  0.78417140905E+02 0.  0.
         25    2    1    2    0    0 -0.96317961282E+02  0.30767596413E+02  0.35939291084E+03  0.39374533028E+03  0.12509326961E+03 0.  0.
        -24    2    1    2    0    0  0.22534356998E+02  0.43081419488E+02  0.17946857684E+04  0.17971257123E+04  0.80000078870E+02 0.  0.
        -13    1    3    3    0    0  0.48747635260E+02 -0.49666436613E+02 -0.37213163657E+03  0.37858293914E+03  0.00000000000E+00 0.  1.
         14    1    3    3    0    0  0.25035969024E+02 -0.24182579288E+02 -0.36658227705E+02  0.50551187370E+02  0.00000000000E+00 0. -1.
         13    1    5    5    0    0 -0.25683430682E+02 -0.42117016685E+01  0.52574529993E+03  0.52638911220E+03  0.00000000000E+00 0. -1.
        -14    1    5    5    0    0  0.48217787679E+02  0.47293121156E+02  0.12689404685E+04  0.12707366001E+04  0.00000000000E+00 0.  1.
          5    1    4    4  501    0 -0.31475540623E+01  0.61069392057E+02  0.16504076362E+03  0.17605483180E+03  0.41800000000E+01 0.  1.
         -5    1    4    4    0  501 -0.93170407220E+02 -0.30301795644E+02  0.19435214722E+03  0.21769049848E+03  0.41800000000E+01 0.  1.
</event>
<event>
11    1  0.6455215E-009  0.1689310E+03  0.7561462E-02  0.1078966E+00
         22   -1    0    0    0    0  0.00000000000E+00  0.00000000000E+00  0.13894601845E+04  0.13894601845E+04  0.00000000000E+00 0.  1.
         22   -1    0    0    0    0 -0.00000000000E+00 -0.00000000000E+00 -0.82177637562E+02  0.82177637562E+02  0.00000000000E+00 0.  1.
        -24    2    1    2    0    0 -0.55403785533E+02 -0.27256742558E+02  0.98143111403E+01  0.10177604420E+03  0.80308984572E+02 0.  0.
         25    2    1    2    0    0  0.38899345873E+02 -0.89228407809E+02  0.16618810872E+03  0.22965318995E+03  0.12508889760E+03 0.  0.
         24    2    1    2    0    0  0.16504439660E+02  0.11648515037E+03  0.11312801270E+04  0.11402085879E+04  0.80247811500E+02 0.  0.
        -11    1    5    5    0    0  0.93184608641E+01  0.22280571772E+02  0.60722961524E+03  0.60770968662E+03  0.00000000000E+00 0.  1.
         12    1    5    5    0    0  0.71859787963E+01  0.94204578595E+02  0.52405051180E+03  0.53249890126E+03  0.00000000000E+00 0. -1.
         13    1    3    3    0    0 -0.25610071424E+02  0.18775690790E+02  0.29669525105E+02  0.43458981154E+02  0.00000000000E+00 0. -1.
        -14    1    3    3    0    0 -0.29793714109E+02 -0.46032433349E+02 -0.19855213965E+02  0.58317063043E+02  0.00000000000E+00 0.  1.
          5    1    4    4  501    0 -0.45683753951E+01 -0.18706913329E+01  0.12248672969E+03  0.12265741270E+03  0.41800000000E+01 0.  1.
         -5    1    4    4    0  501  0.43467721268E+02 -0.87357716476E+02  0.43701379031E+02  0.10699577725E+03  0.41800000000E+01 0.  1.
</event>
<event>
11    1  0.6455215E-009  0.1703936E+03  0.7561462E-02  0.1077690E+00
         22   -1    0    0    0    0  0.00000000000E+00  0.00000000000E+00  0.14599862648E+04  0.14599862648E+04  0.00000000000E+00 0.  1.
         22   -1    0    0    0    0 -0.00000000000E+00 -0.00000000000E+00 -0.19589264754E+04  0.19589264754E+04  0.00000000000E+00 0. -1.
         24    2    1    2    0    0  0.61122810421E+02  0.66063840935E+02 -0.19210890523E+04  0.19248731413E+04  0.80330778800E+02 0.  0.
         25    2    1    2    0    0 -0.16244810579E+03 -0.96654221512E+02  0.37703323615E+03  0.43992420652E+03  0.12509124951E+03 0.  0.
        -24    2    1    2    0    0  0.10132529537E+03  0.30590380577E+02  0.10451156056E+04  0.10541153924E+04  0.87692899070E+02 0.  0.
        -11    1    3    3    0    0  0.65880743016E+01  0.17717106188E+02 -0.74974214371E+02  0.77320316834E+02  0.00000000000E+00 0.  1.
         12    1    3    3    0    0  0.54534736119E+02  0.48346734748E+02 -0.18461148379E+04  0.18475528244E+04  0.00000000000E+00 0. -1.
         13    1    5    5    0    0  0.67291510823E+01  0.41366140731E+02  0.35419992485E+03  0.35667075271E+03  0.00000000000E+00 0. -1.
        -14    1    5    5    0    0  0.94596144285E+02 -0.10775760154E+02  0.69091568077E+03  0.69744463970E+03  0.00000000000E+00 0.  1.
          5    1    4    4  501    0 -0.17164725931E+03 -0.50952610511E+02  0.28350202880E+03  0.33533538865E+03  0.41800000000E+01 0. -1.
         -5    1    4    4    0  501  0.91991535215E+01 -0.45701611002E+02  0.93531207357E+02  0.10458881787E+03  0.41800000000E+01 0. -1.
</event>
<event>
11    1  0.6455215E-009  0.1823774E+03  0.7561462E-02  0.1067736E+00
         22   -1    0    0    0    0  0.00000000000E+00  0.00000000000E+00  0.24675278854E+04  0.24675278854E+04  0.00000000000E+00 0.  1.
         22   -1    0    0    0    0 -0.00000000000E+00 -0.00000000000E+00 -0.10197206632E+04  0.10197206632E+04  0.00000000000E+00 0. -1.
        -24    2    1    2    0    0 -0.11903446712E+03 -0.58218286723E+02 -0.10006165283E+04  0.10127087400E+04  0.82383142860E+02 0.  0.
         25    2    1    2    0    0  0.13199296794E+03  0.10981543128E+03  0.97412834993E+03  0.99702307342E+03  0.12508954491E+03 0.  0.
         24    2    1    2    0    0 -0.12958500818E+02 -0.51597144561E+02  0.14742954006E+04  0.14775167351E+04  0.81722618965E+02 0.  0.
        -13    1    5    5    0    0 -0.86571646241E+01  0.21948867010E+02  0.31447762481E+03  0.31536150013E+03  0.00000000000E+00 0.  1.
         14    1    5    5    0    0 -0.43013361941E+01 -0.73546011571E+02  0.11598177757E+04  0.11621552350E+04  0.00000000000E+00 0. -1.
         13    1    3    3    0    0 -0.11674364756E+03 -0.26298390599E+02 -0.67523239538E+03  0.68575467360E+03  0.00000000000E+00 0. -1.
        -14    1    3    3    0    0 -0.22908195635E+01 -0.31919896125E+02 -0.32538413290E+03  0.32695406645E+03  0.00000000000E+00 0.  1.
          5    1    4    4  501    0  0.10411902811E+03  0.89442021902E+02  0.93348188972E+03  0.94352877971E+03  0.41800000000E+01 0.  1.
         -5    1    4    4    0  501  0.27873939834E+02  0.20373409382E+02  0.40646460212E+02  0.53494293710E+02  0.41800000000E+01 0.  1.
</event>
<event>
11    1  0.6455215E-009  0.1377554E+03  0.7561462E-02  0.1110091E+00
         22   -1    0    0    0    0  0.00000000000E+00  0.00000000000E+00  0.50798152052E+03  0.50798152052E+03  0.00000000000E+00 0.  1.
         22   -1    0    0    0    0 -0.00000000000E+00 -0.00000000000E+00 -0.13094431105E+04  0.13094431105E+04  0.00000000000E+00 0. -1.
        -24    2    1    2    0    0  0.43582946357E+02  0.41915485042E+02 -0.11424435138E+04  0.11468332199E+04  0.79955431700E+02 0.  0.
         25    2    1    2    0    0 -0.14600138586E+02 -0.21633224706E+02 -0.13531289603E+03  0.18611599458E+03  0.12509365751E+03 0.  0.
         24    2    1    2    0    0 -0.28982807771E+02 -0.20282260336E+02  0.47629481989E+03  0.48447541645E+03  0.81291453761E+02 0.  0.
        -13    1    5    5    0    0 -0.36949181102E+02 -0.42352771780E+02  0.41593443956E+03  0.41971473321E+03  0.00000000000E+00 0.  1.
         14    1    5    5    0    0  0.79663733309E+01  0.22070511444E+02  0.60360380331E+02  0.64760683235E+02  0.00000000000E+00 0. -1.
         13    1    3    3    0    0  0.49028292122E+02  0.59479775825E+02 -0.10314957571E+04  0.10343718452E+04  0.00000000000E+00 0. -1.
        -14    1    3    3    0    0 -0.54453457647E+01 -0.17564290783E+02 -0.11094775670E+03  0.11246137479E+03  0.00000000000E+00 0.  1.
          5    1    4    4  501    0  0.48095955921E+02 -0.35796961068E+02 -0.44512932493E+02  0.74789818537E+02  0.41800000000E+01 0.  1.
         -5    1    4    4    0  501 -0.62696094508E+02  0.14163736363E+02 -0.90799963536E+02  0.11132617604E+03  0.41800000000E+01 0.  1.
</event>
<event>
11    1  0.6455215E-009  0.1270010E+03  0.7561462E-02  0.1123010E+00
         22   -1    0    0    0    0  0.00000000000E+00  0.00000000000E+00  0.11279587916E+04  0.11279587916E+04  0.00000000000E+00 0. -1.
         22   -1    0    0    0    0 -0.00000000000E+00 -0.00000000000E+00 -0.66888456906E+03  0.66888456906E+03  0.00000000000E+00 0.  1.
         24    2    1    2    0    0 -0.16748577477E+02 -0.20898773339E+01 -0.64239135641E+03  0.64762579102E+03  0.80421564097E+02 0.  0.
         25    2    1    2    0    0  0.35177340435E+02  0.11396632008E+02  0.17252493458E+03  0.21628296557E+03  0.12508452999E+03 0.  0.
        -24    2    1    2    0    0 -0.18428762958E+02 -0.93067546744E+01  0.92894064435E+03  0.93293460405E+03  0.83725860440E+02 0.  0.
        -11    1    3    3    0    0 -0.15943987712E+02  0.14853969689E+02 -0.61514295502E+03  0.61552880215E+03  0.00000000000E+00 0.  1.
         12    1    3    3    0    0 -0.80458976580E+00 -0.16943847023E+02 -0.27248401389E+02  0.32096988875E+02  0.00000000000E+00 0. -1.
         11    1    5    5    0    0 -0.60140498075E+01 -0.40594127718E+02  0.73110715794E+03  0.73225796574E+03  0.00000000000E+00 0. -1.
        -12    1    5    5    0    0 -0.12414713150E+02  0.31287373043E+02  0.19783348642E+03  0.20067663831E+03  0.00000000000E+00 0.  1.
          5    1    4    4  501    0  0.37852867568E+01 -0.14168840806E+02 -0.16767097866E+02  0.22664783618E+02  0.41800000000E+01 0. -1.
         -5    1    4    4    0  501  0.31392053679E+02  0.25565472814E+02  0.18929203244E+03  0.19361818195E+03  0.41800000000E+01 0. -1.
</event>
<event>
11    1  0.6455215E-009  0.1530436E+03  0.7561462E-02  0.1093809E+00
         22   -1    0    0    0    0  0.00000000000E+00  0.00000000000E+00  0.58569717024E+03  0.58569717024E+03  0.00000000000E+00 0. -1.
         22   -1    0    0    0    0 -0.00000000000E+00 -0.00000000000E+00 -0.21370414365E+03  0.21370414365E+03  0.00000000000E+00 0. -1.
         24    2    1    2    0    0  0.45007620306E+02 -0.24956911386E+02 -0.13860047681E+03  0.16768051837E+03  0.79108348217E+02 0.  0.
         25    2    1    2    0    0  0.30241135620E+02 -0.32590304249E+02  0.30737390824E+02  0.13626476155E+03  0.12508654537E+03 0.  0.
        -24    2    1    2    0    0 -0.75248755926E+02  0.57547215635E+02  0.47985611258E+03  0.49545603397E+03  0.78998326064E+02 0.  0.
        -13    1    3    3    0    0  0.48369056770E+02 -0.23163312275E+02 -0.35066002814E+02  0.64075964618E+02  0.00000000000E+00 0.  1.
         14    1    3    3    0    0 -0.33614364638E+01 -0.17935991109E+01 -0.10353447399E+03  0.10360455375E+03  0.00000000000E+00 0. -1.
         13    1    5    5    0    0 -0.72465347400E+02  0.80912929518E+01  0.31438027071E+03  0.32272534795E+03  0.00000000000E+00 0. -1.
        -14    1    5    5    0    0 -0.27834085256E+01  0.49455922683E+02  0.16547584186E+03  0.17273068602E+03  0.00000000000E+00 0.  1.
          5    1    4    4  501    0  0.15237527476E+02  0.47753573343E+02  0.53789857396E+01  0.50586479401E+02  0.41800000000E+01 0.  1.
         -5    1    4    4    0  501  0.15003608143E+02 -0.80343877592E+02  0.25358405085E+02  0.85678282151E+02  0.41800000000E+01 0.  1.
</event>
<event>
11    1  0.6455215E-009  0.2244922E+03  0.7561462E-02  0.1038439E+00
         22   -1    0    0    0    0  0.00000000000E+00  0.00000000000E+00  0.39637939070E+03  0.39637939070E+03  0.00000000000E+00 0.  1.
         22   -1    0    0    0    0 -0.00000000000E+00 -0.00000000000E+00 -0.11598772261E+04  0.11598772261E+04  0.00000000000E+00 0.  1.
        -24    2    1    2    0    0  0.62525754689E+01  0.11479307875E+02 -0.10022428028E+04  0.10057365254E+04  0.82731213434E+02 0.  0.
         25    2    1    2    0    0  0.33089711067E+02  0.17360966245E+03 -0.23168228992E+02  0.21778710607E+03  0.12513677662E+03 0.  0.
         24    2    1    2    0    0 -0.39342286536E+02 -0.18508897032E+03  0.26191319632E+03  0.33273298532E+03  0.79416463456E+02 0.  0.
        -13    1    5    5    0    0 -0.25803185891E+02 -0.18273258818E+03  0.21251985619E+03  0.28146348335E+03  0.00000000000E+00 0.  1.
         14    1    5    5    0    0 -0.13539100645E+02 -0.23563821484E+01  0.49393340137E+02  0.51269501977E+02  0.00000000000E+00 0. -1.
         11    1    3    3    0    0 -0.26203841496E+02 -0.20319497712E+02 -0.26027435336E+03  0.26237809039E+03  0.00000000000E+00 0. -1.
        -12    1    3    3    0    0  0.32456416965E+02  0.31798805587E+02 -0.74196844939E+03  0.74335843503E+03  0.00000000000E+00 0.  1.
          5    1    4    4  501    0  0.34020392926E+02  0.17741578387E+03 -0.52287504016E+02  0.18810955047E+03  0.41800000000E+01 0.  1.
         -5    1    4    4    0  501 -0.93068185824E+00 -0.38061214200E+01  0.29119275023E+02  0.29677555608E+02  0.41800000000E+01 0.  1.
</event>
<event>
11    1  0.6455215E-009  0.2230513E+03  0.7561462E-02  0.1039323E+00
         22   -1    0    0    0    0  0.00000000000E+00  0.00000000000E+00  0.78534658874E+03  0.78534658874E+03  0.00000000000E+00 0. -1.
         22   -1    0    0    0    0 -0.00000000000E+00 -0.00000000000E+00 -0.90165674472E+02  0.90165674472E+02  0.00000000000E+00 0.  1.
        -24    2    1    2    0    0  0.55790980389E+02  0.31462371799E+02  0.11742485117E+03  0.15578594834E+03  0.79863331369E+02 0.  0.
         25    2    1    2    0    0 -0.51496859743E+02  0.16719741019E+03  0.28358892677E+03  0.35591741140E+03  0.12509046251E+03 0.  0.
         24    2    1    2    0    0 -0.42941206459E+01 -0.19865978199E+03  0.29416713632E+03  0.36380890347E+03  0.79614481695E+02 0.  0.
        -13    1    5    5    0    0  0.21917653171E+02 -0.10733768008E+03  0.10316673347E+03  0.15048300894E+03  0.00000000000E+00 0.  1.
         14    1    5    5    0    0 -0.26211773817E+02 -0.91322101909E+02  0.19100040285E+03  0.21332589452E+03  0.00000000000E+00 0. -1.
         11    1    3    3    0    0  0.23974152797E+02  0.13252250361E+02  0.11590165278E+03  0.11909481625E+03  0.00000000000E+00 0. -1.
        -12    1    3    3    0    0  0.31816827592E+02  0.18210121437E+02  0.15231983925E+01  0.36691132091E+02  0.00000000000E+00 0.  1.
          5    1    4    4  501    0 -0.12400735231E+02  0.12666465646E+03  0.94491174678E+02  0.15856786536E+03  0.41800000000E+01 0. -1.
         -5    1    4    4    0  501 -0.39096124512E+02  0.40532753726E+02  0.18909775210E+03  0.19734954605E+03  0.41800000000E+01 0. -1.
</event>
<event>
11    1  0.6455215E-009  0.1433530E+03  0.7561462E-02  0.1103871E+00
         22   -1    0    0    0    0  0.00000000000E+00  0.00000000000E+00  0.10398567290E+04  0.10398567290E+04  0.00000000000E+00 0.  1.
         22   -1    0    0    0    0 -0.00000000000E+00 -0.00000000000E+00 -0.10503385959E+03  0.10503385959E+03  0.00000000000E+00 0. -1.
        -24    2    1    2    0    0  0.82979046998E+01  0.39113679277E+02  0.11867553500E+01  0.89015227651E+02  0.79520860386E+02 0.  0.
         25    2    1    2    0    0 -0.46779116915E+01 -0.10712754750E+03  0.58753696374E+02  0.17491672611E+03  0.12508265246E+03 0.  0.
         24    2    1    2    0    0 -0.36199930083E+01  0.68013868222E+02  0.87488241765E+03  0.88095863479E+03  0.77652307596E+02 0.  0.
        -11    1    5    5    0    0  0.19406542491E+02  0.50570371386E+02  0.77743272610E+03  0.77931740643E+03  0.00000000000E+00 0.  1.
         12    1    5    5    0    0 -0.23026535499E+02  0.17443496836E+02  0.97449691546E+02  0.10164122835E+03  0.00000000000E+00 0. -1.
         11    1    3    3    0    0  0.21733101828E+02  0.50048861589E+02 -0.23042921734E+02  0.59229996653E+02  0.00000000000E+00 0. -1.
        -12    1    3    3    0    0 -0.13435197128E+02 -0.10935182312E+02  0.24229677084E+02  0.29785230999E+02  0.00000000000E+00 0.  1.
          5    1    4    4  501    0 -0.61952837200E+02 -0.31467162825E+02  0.28614873223E+02  0.75263668147E+02  0.41800000000E+01 0. -1.
         -5    1    4    4    0  501  0.57274925508E+02 -0.75660384674E+02  0.30138823151E+02  0.99653057966E+02  0.41800000000E+01 0. -1.
</event>
<event>
11    1  0.6455215E-009  0.1763743E+03  0.7561462E-02  0.1072614E+00
         22   -1    0    0    0    0  0.00000000000E+00  0.00000000000E+00  0.10938312251E+04  0.10938312251E+04  0.00000000000E+00 0.  1.
         22   -1    0    0    0    0 -0.00000000000E+00 -0.00000000000E+00 -0.35385118190E+04  0.35385118190E+04  0.00000000000E+00 0.  1.
        -24    2    1    2    0    0 -0.14957409262E+03 -0.54986632873E+02 -0.22488884124E+04  0.22561436084E+04  0.85375354696E+02 0.  0.
         25    2    1    2    0    0  0.86383241644E+02 -0.67537737105E+02 -0.12749402068E+04  0.12857475691E+04  0.12510343845E+03 0.  0.
         24    2    1    2    0    0  0.63190850977E+02  0.12252436998E+03  0.10791480252E+04  0.10904518666E+04  0.74293392469E+02 0.  0.
        -11    1    5    5    0    0  0.79217074970E+01  0.65431954452E+02  0.69823267668E+03  0.70133655608E+03  0.00000000000E+00 0.  1.
         12    1    5    5    0    0  0.55269143480E+02  0.57092415525E+02  0.38091534853E+03  0.38911531052E+03  0.00000000000E+00 0. -1.
         13    1    3    3    0    0 -0.10559801305E+03 -0.23750845624E+02 -0.95185060832E+03  0.95798466772E+03  0.00000000000E+00 0. -1.
        -14    1    3    3    0    0 -0.43976079571E+02 -0.31235787249E+02 -0.12970378041E+04  0.12981589406E+04  0.00000000000E+00 0.  1.
          5    1    4    4  501    0  0.98257334362E+02 -0.36768763496E+01 -0.64687110228E+03  0.65431469381E+03  0.41800000000E+01 0. -1.
         -5    1    4    4    0  501 -0.11874092717E+02 -0.63860860755E+02 -0.62806910449E+03  0.63143287532E+03  0.41800000000E+01 0. -1.
</event>
<event>
11    1  0.6455215E-009  0.1765505E+03  0.7561462E-02  0.1072468E+00
         22   -1    0    0    0    0  0.00000000000E+00  0.00000000000E+00  0.12539475929E+04  0.12539475929E+04  0.00000000000E+00 0.  1.
         22   -1    0    0    0    0 -0.00000000000E+00 -0.00000000000E+00 -0.24084747739E+03  0.24084747739E+03  0.00000000000E+00 0.  1.
         24    2    1    2    0    0  0.11887949323E+03  0.26372010383E+02 -0.14891422455E+03  0.20828296756E+03  0.79865708914E+02 0.  0.
         25    2    1    2    0    0 -0.13919525256E+03 -0.10407799463E+02  0.84634796734E+02  0.20565149106E+03  0.12508335753E+03 0.  0.
        -24    2    1    2    0    0  0.20315759334E+02 -0.15964210920E+02  0.10773795434E+04  0.10808606117E+04  0.82736904562E+02 0.  0.
        -11    1    3    3    0    0  0.24681938450E+02 -0.59468801645E+01 -0.87894776887E+02  0.91488006172E+02  0.00000000000E+00 0.  1.
         12    1    3    3    0    0  0.94197554777E+02  0.32318890547E+02 -0.61019447660E+02  0.11679496138E+03  0.00000000000E+00 0. -1.
         13    1    5    5    0    0  0.34607900109E+02  0.24653137098E+02  0.44830781186E+03  0.45031697513E+03  0.00000000000E+00 0. -1.
        -14    1    5    5    0    0 -0.14292140775E+02 -0.40617348018E+02  0.62907173150E+03  0.63054363657E+03  0.00000000000E+00 0.  1.
          5    1    4    4  501    0 -0.11467479911E+02 -0.18487367911E+00  0.76198236772E+02  0.77169818977E+02  0.41800000000E+01 0. -1.
         -5    1    4    4    0  501 -0.12772777265E+03 -0.10222925784E+02  0.84365599619E+01  0.12848167208E+03  0.41800000000E+01 0. -1.
</event>
<event>
11    1  0.6455215E-009  0.1424912E+03  0.7561462E-02  0.1104808E+00
         22   -1    0    0    0    0  0.00000000000E+00  0.00000000000E+00  0.48170692684E+03  0.48170692684E+03  0.00000000000E+00 0.  1.
         22   -1    0    0    0    0 -0.00000000000E+00 -0.00000000000E+00 -0.20221013097E+03  0.20221013097E+03  0.00000000000E+00 0.  1.
        -24    2    1    2    0    0 -0.32712091158E+02  0.66201652618E+02 -0.12722738816E+03  0.16758736365E+03  0.80286838526E+02 0.  0.
         25    2    1    2    0    0  0.31590621018E+01 -0.46457573689E+02  0.40163343222E+02  0.13937182216E+03  0.12507247837E+03 0.  0.
         24    2    1    2    0    0  0.29553029056E+02 -0.19744078929E+02  0.36656084080E+03  0.37695787200E+03  0.80418760743E+02 0.  0.
        -13    1    5    5    0    0 -0.10082746336E+02 -0.25327693998E+02  0.28294514184E+03  0.28425535553E+03  0.00000000000E+00 0.  1.
         14    1    5    5    0    0  0.39635775392E+02  0.55836150688E+01  0.83615698959E+02  0.92702516474E+02  0.00000000000E+00 0. -1.
         11    1    3    3    0    0  0.77208311199E+01 -0.22351271057E+01 -0.67965300513E+02  0.68438944324E+02  0.00000000000E+00 0. -1.
        -12    1    3    3    0    0 -0.40432922278E+02  0.68436779724E+02 -0.59262087643E+02  0.99148419325E+02  0.00000000000E+00 0.  1.
          5    1    4    4  501    0 -0.66917350007E+01 -0.77118866603E+02 -0.11479565784E+02  0.78366776978E+02  0.41800000000E+01 0.  1.
         -5    1    4    4    0  501  0.98507971025E+01  0.30661292914E+02  0.51642909006E+02  0.61005045179E+02  0.41800000000E+01 0.  1.
</event>
<event>
11    1  0.6455215E-009  0.1399005E+03  0.7561462E-02  0.1107670E+00
         22   -1    0    0    0    0  0.00000000000E+00  0.00000000000E+00  0.96574722113E+03  0.96574722113E+03  0.00000000000E+00 0. -1.
         22   -1    0    0    0    0 -0.00000000000E+00 -0.00000000000E+00 -0.39732674258E+04  0.39732674258E+04  0.00000000000E+00 0.  1.
        -24    2    1    2    0    0  0.29558188555E+02 -0.74443586057E+01 -0.38687716541E+04  0.38697268890E+04  0.80392653414E+02 0.  0.
         25    2    1    2    0    0 -0.90929933613E+02 -0.31149601059E+00 -0.42050268688E+02  0.16026473488E+03  0.12509280672E+03 0.  0.
         24    2    1    2    0    0  0.61371745058E+02  0.77558546163E+01  0.90330171814E+03  0.90902302305E+03  0.80883979102E+02 0.  0.
        -13    1    5    5    0    0 -0.55185620230E+01 -0.26224398057E+02  0.24048343501E+03  0.24197201511E+03  0.00000000000E+00 0.  1.
         14    1    5    5    0    0  0.66890307081E+02  0.33980252673E+02  0.66281828312E+03  0.66705100794E+03  0.00000000000E+00 0. -1.
         11    1    3    3    0    0  0.44814439491E+02 -0.26371473284E+01 -0.11081955478E+04  0.11091044409E+04  0.00000000000E+00 0. -1.
        -12    1    3    3    0    0 -0.15256250936E+02 -0.48072112772E+01 -0.27605761063E+04  0.27606224481E+04  0.00000000000E+00 0.  1.
          5    1    4    4  501    0 -0.50836412386E+00 -0.38674197038E+02  0.20267549379E+02  0.43865680303E+02  0.41800000000E+01 0. -1.
         -5    1    4    4    0  501 -0.90421569490E+02  0.38362701027E+02 -0.62317818066E+02  0.11639905458E+03  0.41800000000E+01 0. -1.
</event>
<event>
11    1  0.6455215E-009  0.1747843E+03  0.7561462E-02  0.1073942E+00
         22   -1    0    0    0    0  0.00000000000E+00  0.00000000000E+00  0.49307100078E+03  0.49307100078E+03  0.00000000000E+00 0.  1.
         22   -1    0    0    0    0 -0.00000000000E+00 -0.00000000000E+00 -0.40871485980E+03  0.40871485980E+03  0.00000000000E+00 0.  1.
        -24    2    1    2    0    0 -0.52098205145E+02  0.11263361926E+03 -0.28441229516E+03  0.32078689504E+03  0.81322341492E+02 0.  0.
         25    2    1    2    0    0  0.86211477632E+02 -0.83798934926E+02 -0.25609704566E+02  0.17537974582E+03  0.12509003920E+03 0.  0.
         24    2    1    2    0    0 -0.34113272486E+02 -0.28834684333E+02  0.39437814071E+03  0.40561921971E+03  0.83652131762E+02 0.  0.
        -11    1    5    5    0    0 -0.51100241951E+02  0.77070388179E+01  0.17110660785E+03  0.17874032680E+03  0.00000000000E+00 0.  1.
         12    1    5    5    0    0  0.16986969465E+02 -0.36541723151E+02  0.22327153286E+03  0.22687889291E+03  0.00000000000E+00 0. -1.
         13    1    3    3    0    0  0.15254329398E+02  0.62201213600E+02 -0.13089813236E+03  0.14572579248E+03  0.00000000000E+00 0. -1.
        -14    1    3    3    0    0 -0.67352534543E+02  0.50432405659E+02 -0.15351416280E+03  0.17506110256E+03  0.00000000000E+00 0.  1.
          5    1    4    4  501    0  0.10840971621E+03 -0.27214461722E+02 -0.89089947772E+01  0.11220577562E+03  0.41800000000E+01 0.  1.
         -5    1    4    4    0  501 -0.22198238574E+02 -0.56584473204E+02 -0.16700709789E+02  0.63173970202E+02  0.41800000000E+01 0.  1.
</event>
<event>
11    1  0.6455215E-009  0.1562299E+03  0.7561462E-02  0.1090678E+00
         22   -1    0    0    0    0  0.00000000000E+00  0.00000000000E+00  0.23369505564E+03  0.23369505564E+03  0.00000000000E+00 0.  1.
         22   -1    0    0    0    0 -0.00000000000E+00 -0.00000000000E+00 -0.23665706346E+03  0.23665706346E+03  0.00000000000E+00 0. -1.
         24    2    1    2    0    0 -0.32972339350E+02 -0.23336099323E+02 -0.58699339765E+02  0.10759958236E+03  0.80624493435E+02 0.  0.
         25    2    1    2    0    0 -0.35441451301E+02 -0.50393034744E+02 -0.87887482974E+02  0.16482328199E+03  0.12508776999E+03 0.  0.
        -24    2    1    2    0    0  0.68413790651E+02  0.73729134067E+02  0.14362481492E+03  0.19792925475E+03  0.91823038856E+02 0.  0.
        -13    1    3    3    0    0 -0.74213525368E+01  0.30069069884E+02 -0.20631579809E+02  0.37214076941E+02  0.00000000000E+00 0.  1.
         14    1    3    3    0    0 -0.25550986813E+02 -0.53405169207E+02 -0.38067759956E+02  0.70385505420E+02  0.00000000000E+00 0. -1.
         11    1    5    5    0    0  0.84231879562E+01  0.75694098301E+02  0.81288400450E+02  0.11139277652E+03  0.00000000000E+00 0. -1.
        -12    1    5    5    0    0  0.59990602694E+02 -0.19649642341E+01  0.62336414465E+02  0.86536478230E+02  0.00000000000E+00 0.  1.
          5    1    4    4  501    0  0.33220977786E+02 -0.75303463471E+01 -0.75364654912E+02  0.82810887516E+02  0.41800000000E+01 0. -1.
         -5    1    4    4    0  501 -0.68662429087E+02 -0.42862688396E+02 -0.12522828062E+02  0.82012394474E+02  0.41800000000E+01 0. -1.
</event>
<event>
11    1  0.6455215E-009  0.1305250E+03  0.7561462E-02  0.1118626E+00
         22   -1    0    0    0    0  0.00000000000E+00  0.00000000000E+00  0.10053672602E+04  0.10053672602E+04  0.00000000000E+00 0.  1.
         22   -1    0    0    0    0 -0.00000000000E+00 -0.00000000000E+00 -0.82115129098E+03  0.82115129098E+03  0.00000000000E+00 0.  1.
        -24    2    1    2    0    0  0.29817924339E+02 -0.56964815661E+02 -0.37021735192E+03  0.38429373029E+03  0.80539956815E+02 0.  0.
         25    2    1    2    0    0  0.10199088720E+02  0.76069191207E+01 -0.43236597231E+03  0.45027535075E+03  0.12508265606E+03 0.  0.
         24    2    1    2    0    0 -0.40017013059E+02  0.49357896541E+02  0.98679929345E+03  0.99194947014E+03  0.78443243619E+02 0.  0.
        -13    1    5    5    0    0 -0.44536274542E+02  0.16179182749E+01  0.67653830972E+03  0.67800455893E+03  0.00000000000E+00 0.  1.
         14    1    5    5    0    0  0.45192614837E+01  0.47739978266E+02  0.31026098372E+03  0.31394491120E+03  0.00000000000E+00 0. -1.
         11    1    3    3    0    0 -0.25835764809E+02 -0.24048847045E+02 -0.17880279346E+03  0.18225332024E+03  0.00000000000E+00 0. -1.
        -12    1    3    3    0    0  0.55653689148E+02 -0.32915968617E+02 -0.19141455846E+03  0.20204041006E+03  0.00000000000E+00 0.  1.
          5    1    4    4  501    0 -0.11685786778E+02  0.50700918955E+02 -0.86540423701E+02  0.10106363406E+03  0.41800000000E+01 0.  1.
         -5    1    4    4    0  501  0.21884875498E+02 -0.43093999834E+02 -0.34582554861E+03  0.34921171668E+03  0.41800000000E+01 0.  1.
</event>
<event>
11    1  0.6455215E-009  0.1759563E+03  0.7561462E-02  0.1072962E+00
         22   -1    0    0    0    0  0.00000000000E+00  0.00000000000E+00  0.22339566934E+03  0.22339566934E+03  0.00000000000E+00 0. -1.
         22   -1    0    0    0    0 -0.00000000000E+00 -0.00000000000E+00 -0.75905381939E+03  0.75905381939E+03  0.00000000000E+00 0.  1.
         24    2    1    2    0    0  0.28015108640E+02  0.28381437549E+01 -0.60517907560E+03  0.61125599378E+03  0.81235921991E+02 0.  0.
         25    2    1    2    0    0 -0.17907115843E+02 -0.12586831154E+03 -0.46031920809E+02  0.18419750260E+03  0.12508511335E+03 0.  0.
        -24    2    1    2    0    0 -0.10107992796E+02  0.12303016779E+03  0.11555284636E+03  0.18699599235E+03  0.79852659000E+02 0.  0.
        -13    1    3    3    0    0  0.42565368100E+02 -0.28596290089E+02 -0.34991974619E+03  0.35365716046E+03  0.00000000000E+00 0.  1.
         14    1    3    3    0    0 -0.14550259460E+02  0.31434433844E+02 -0.25525932940E+03  0.25759883332E+03  0.00000000000E+00 0. -1.
         11    1    5    5    0    0  0.51351752585E+01  0.79194943672E+02  0.11604099143E+03  0.14058350124E+03  0.00000000000E+00 0. -1.
        -12    1    5    5    0    0 -0.15243168055E+02  0.43835224115E+02 -0.48814507342E+00  0.46412491111E+02  0.00000000000E+00 0.  1.
          5    1    4    4  501    0  0.46146277578E+02 -0.95939539554E+02 -0.18123677111E+02  0.10807318935E+03  0.41800000000E+01 0. -1.
         -5    1    4    4    0  501 -0.64053393421E+02 -0.29928771988E+02 -0.27908243698E+02  0.76124313250E+02  0.41800000000E+01 0. -1.
</event>
<event>
11    1  0.6455215E-009  0.1359840E+03  0.7561462E-02  0.1112128E+00
         22   -1    0    0    0    0  0.00000000000E+00  0.00000000000E+00  0.28827312581E+03  0.28827312581E+03  0.00000000000E+00 0.  1.
         22   -1    0    0    0    0 -0.00000000000E+00 -0.00000000000E+00 -0.79463708628E+03  0.79463708628E+03  0.00000000000E+00 0.  1.
         24    2    1    2    0    0  0.47988696497E+01 -0.53268260388E+02 -0.68073561283E+03  0.68900394360E+03  0.92005016164E+02 0.  0.
         25    2    1    2    0    0  0.33222904965E+02  0.53651441766E+02 -0.52999392648E+02  0.14979601652E+03  0.12509065643E+03 0.  0.
        -24    2    1    2    0    0 -0.38021774615E+02 -0.38318137746E+00  0.22737104501E+03  0.24411025198E+03  0.80289606050E+02 0.  0.
        -13    1    3    3    0    0 -0.30094474924E+02 -0.62986241235E+02 -0.47546627320E+03  0.48056333709E+03  0.00000000000E+00 0.  1.
         14    1    3    3    0    0  0.34893344574E+02  0.97179808464E+01 -0.20526933964E+03  0.20844060651E+03  0.00000000000E+00 0. -1.
         13    1    5    5    0    0 -0.13924365635E+02  0.32164403509E+01 -0.11097233441E+01  0.14334048025E+02  0.00000000000E+00 0. -1.
        -14    1    5    5    0    0 -0.24097408980E+02 -0.35996217283E+01  0.22848076835E+03  0.22977620395E+03  0.00000000000E+00 0.  1.
          5    1    4    4  501    0  0.60226046955E+02  0.80992905062E+02 -0.43536932825E+02  0.10999983783E+03  0.41800000000E+01 0.  1.
         -5    1    4    4    0  501 -0.27003141990E+02 -0.27341463296E+02 -0.94624598230E+01  0.39796178691E+02  0.41800000000E+01 0.  1.
</event>
<event>
11    1  0.6455215E-009  0.1374417E+03  0.7561462E-02  0.1110449E+00
         22   -1    0    0    0    0  0.00000000000E+00  0.00000000000E+00  0.82749564302E+03  0.82749564302E+03  0.00000000000E+00 0. -1.
         22   -1    0    0    0    0 -0.00000000000E+00 -0.00000000000E+00 -0.44430622539E+03  0.44430622539E+03  0.00000000000E+00 0. -1.
        -24    2    1    2    0    0 -0.14882947427E+02 -0.57063582852E+02 -0.38362592012E+03  0.39670751279E+03  0.82038097869E+02 0.  0.
         25    2    1    2    0    0  0.86685145925E+01  0.30748993590E+02  0.29070942999E+02  0.13233726943E+03  0.12508952554E+03 0.  0.
         24    2    1    2    0    0  0.62144328345E+01  0.26314589262E+02  0.73774439475E+03  0.74275708619E+03  0.81793767010E+02 0.  0.
        -11    1    5    5    0    0  0.16475983964E+02 -0.23070383776E+02  0.13720785137E+03  0.14010601390E+03  0.00000000000E+00 0.  1.
         12    1    5    5    0    0 -0.10261551130E+02  0.49384973037E+02  0.60053654339E+03  0.60265107229E+03  0.00000000000E+00 0. -1.
         11    1    3    3    0    0 -0.82129658251E+01 -0.78272705630E+02 -0.29163246014E+03  0.30206549135E+03  0.00000000000E+00 0. -1.
        -12    1    3    3    0    0 -0.66699816019E+01  0.21209122778E+02 -0.91993459979E+02  0.94642021441E+02  0.00000000000E+00 0.  1.
          5    1    4    4  501    0  0.46199188761E+02  0.27049631423E+02 -0.30464764711E+02  0.61738334050E+02  0.41800000000E+01 0.  1.
         -5    1    4    4    0  501 -0.37530674169E+02  0.36993621674E+01  0.59535707710E+02  0.70598935378E+02  0.41800000000E+01 0.  1.
</event>
<event>
11    1  0.6455215E-009  0.1428315E+03  0.7561462E-02  0.1104437E+00
         22   -1    0    0    0    0  0.00000000000E+00  0.00000000000E+00  0.66600928498E+03  0.66600928498E+03  0.00000000000E+00 0.  1.
         22   -1    0    0    0    0 -0.00000000000E+00 -0.00000000000E+00 -0.27205562539E+04  0.27205562539E+04  0.00000000000E+00 0. -1.
        -24    2    1    2    0    0 -0.64648110624E+02  0.34357034937E+02 -0.23446685542E+04  0.23471886852E+04  0.80400937289E+02 0.  0.
         25    2    1    2    0    0  0.31645531118E+02 -0.62976605842E+01 -0.36011816140E+03  0.38258715972E+03  0.12508694755E+03 0.  0.
         24    2    1    2    0    0  0.33002579506E+02 -0.28059374353E+02  0.65023974666E+03  0.65678969400E+03  0.81758640322E+02 0.  0.
        -13    1    5    5    0    0  0.29626820741E+02 -0.32991137912E+02  0.64921321287E+03  0.65072571753E+03  0.00000000000E+00 0.  1.
         14    1    5    5    0    0  0.33757587648E+01  0.49317635596E+01  0.10265337900E+01  0.60639764732E+01  0.00000000000E+00 0. -1.
         13    1    3    3    0    0 -0.81384374948E+02  0.36155233738E+02 -0.17309237776E+04  0.17332131264E+04  0.00000000000E+00 0. -1.
        -14    1    3    3    0    0  0.16736264323E+02 -0.17981988009E+01 -0.61374477655E+03  0.61397555881E+03  0.00000000000E+00 0.  1.
          5    1    4    4  501    0  0.53677232178E+02  0.43143438592E+02 -0.25639465197E+03  0.26551514365E+03  0.41800000000E+01 0. -1.
         -5    1    4    4    0  501 -0.22031701060E+02 -0.49441099176E+02 -0.10372350943E+03  0.11707201608E+03  0.41800000000E+01 0. -1.
</event>
<event>
11    1  0.6455215E-009  0.2246263E+03  0.7561462E-02  0.1038358E+00
         22   -1    0    0    0    0  0.00000000000E+00  0.00000000000E+00  0.64353365023E+03  0.64353365023E+03  0.00000000000E+00 0. -1.
         22   -1    0    0    0    0 -0.00000000000E+00 -0.00000000000E+00 -0.94762104217E+03  0.94762104217E+03  0.00000000000E+00 0. -1.
         24    2    1    2    0    0 -0.32285891572E+02  0.17268059975E+03 -0.53027095910E+03  0.56466550677E+03  0.82455297847E+02 0.  0.
         25    2    1    2    0    0  0.30638499726E+02 -0.20836319218E+03 -0.35910623325E+03  0.43469757887E+03  0.12510300074E+03 0.  0.
        -24    2    1    2    0    0  0.16473918464E+01  0.35682592431E+02  0.58528980041E+03  0.59179160675E+03  0.79857335647E+02 0.  0.
        -11    1    3    3    0    0 -0.55038270122E+02  0.14666267174E+03 -0.39202272861E+03  0.42216225578E+03  0.00000000000E+00 0.  1.
         12    1    3    3    0    0  0.22752378550E+02  0.26017928009E+02 -0.13824823050E+03  0.14250325099E+03  0.00000000000E+00 0. -1.
         11    1    5    5    0    0  0.44451810171E+01  0.53344598502E+02  0.54607092026E+03  0.54868830476E+03  0.00000000000E+00 0. -1.
        -12    1    5    5    0    0 -0.27977891707E+01 -0.17662006072E+02  0.39218880151E+02  0.43103301996E+02  0.00000000000E+00 0.  1.
          5    1    4    4  501    0 -0.45976469913E+01 -0.16523289646E+03 -0.16850242387E+03  0.23607962149E+03  0.41800000000E+01 0.  1.
         -5    1    4    4    0  501  0.35236146717E+02 -0.43130295716E+02 -0.19060380938E+03  0.19861795738E+03  0.41800000000E+01 0.  1.
</event>
<event>
11    1  0.6455215E-009  0.2449948E+03  0.7561462E-02  0.1026600E+00
         22   -1    0    0    0    0  0.00000000000E+00  0.00000000000E+00  0.76699907906E+03  0.76699907906E+03  0.00000000000E+00 0.  1.
         22   -1    0    0    0    0 -0.00000000000E+00 -0.00000000000E+00 -0.10144548305E+04  0.10144548305E+04  0.00000000000E+00 0.  1.
         24    2    1    2    0    0 -0.19000446760E+03  0.86984497910E+02 -0.92985057384E+03  0.95632403641E+03  0.79155368460E+02 0.  0.
         25    2    1    2    0    0  0.22513499100E+03 -0.10182600900E+03  0.21938585716E+03  0.35331594156E+03  0.12509076690E+03 0.  0.
        -24    2    1    2    0    0 -0.35130523396E+02  0.14841511087E+02  0.46300896528E+03  0.47181393156E+03  0.82320471057E+02 0.  0.
        -11    1    3    3    0    0 -0.13666063009E+03  0.89361480331E+02 -0.58485604917E+03  0.60722170600E+03  0.00000000000E+00 0.  1.
         12    1    3    3    0    0 -0.53343837509E+02 -0.23769824210E+01 -0.34499452467E+03  0.34910233041E+03  0.00000000000E+00 0. -1.
         13    1    5    5    0    0 -0.45271366313E+02  0.93721305109E+01  0.11978994051E+03  0.12840157042E+03  0.00000000000E+00 0. -1.
        -14    1    5    5    0    0  0.10140842917E+02  0.54693805757E+01  0.34321902477E+03  0.34341236114E+03  0.00000000000E+00 0.  1.
          5    1    4    4  501    0  0.87442958811E+02  0.23281970425E+02  0.79331578178E+02  0.12041300963E+03  0.41800000000E+01 0. -1.
         -5    1    4    4    0  501  0.13769203219E+03 -0.12510797942E+03  0.14005427898E+03  0.23290293193E+03  0.41800000000E+01 0. -1.
</event>
<event>
11    1  0.6455215E-009  0.1617738E+03  0.7561462E-02  0.1085421E+00
         22   -1    0    0    0    0  0.00000000000E+00  0.00000000000E+00  0.73499981223E+03  0.73499981223E+03  0.00000000000E+00 0. -1.
         22   -1    0    0    0    0 -0.00000000000E+00 -0.00000000000E+00 -0.13875627122E+04  0.13875627122E+04  0.00000000000E+00 0. -1.
         24    2    1    2    0    0  0.31047080572E+02 -0.73262379839E+02 -0.13190967518E+04  0.13239301685E+04  0.80271744307E+02 0.  0.
         25    2    1    2    0    0  0.53484948284E+02  0.14156962939E+01  0.21303351559E+02  0.13771072112E+03  0.12509103100E+03 0.  0.
        -24    2    1    2    0    0 -0.84532028856E+02  0.71846683545E+02  0.64523050026E+03  0.66092163482E+03  0.90484247639E+02 0.  0.
        -13    1    3    3    0    0  0.25941987580E+02 -0.20712175422E+02 -0.14945062973E+03  0.15309301636E+03  0.00000000000E+00 0.  1.
         14    1    3    3    0    0  0.51050929924E+01 -0.52550204417E+02 -0.11696461221E+04  0.11708371522E+04  0.00000000000E+00 0. -1.
         13    1    5    5    0    0 -0.41277464609E+02  0.77215960843E+02  0.53951130195E+03  0.54656982960E+03  0.00000000000E+00 0. -1.
        -14    1    5    5    0    0 -0.43254564247E+02 -0.53692772985E+01  0.10571919831E+03  0.11435180522E+03  0.00000000000E+00 0.  1.
          5    1    4    4  501    0 -0.42652312601E+01 -0.53170946656E+02 -0.53933115540E+01  0.53776407238E+02  0.41800000000E+01 0. -1.
         -5    1    4    4    0  501  0.57750179544E+02  0.54586642949E+02  0.26696663113E+02  0.83934313884E+02  0.41800000000E+01 0. -1.
</event>
<event>
11    1  0.6455215E-009  0.1316791E+03  0.7561462E-02  0.1117223E+00
         22   -1    0    0    0    0  0.00000000000E+00  0.00000000000E+00  0.25507619090E+04  0.25507619090E+04  0.00000000000E+00 0. -1.
         22   -1    0    0    0    0 -0.00000000000E+00 -0.00000000000E+00 -0.28503884316E+03  0.28503884316E+03  0.00000000000E+00 0.  1.
         24    2    1    2    0    0 -0.12284089054E+02  0.16107669657E+02 -0.24621560070E+03  0.25944533058E+03  0.79242675797E+02 0.  0.
         25    2    1    2    0    0 -0.26158375803E+02 -0.30421781774E+00  0.98572636968E+02  0.16139532263E+03  0.12509009647E+03 0.  0.
        -24    2    1    2    0    0  0.38442464858E+02 -0.15803451840E+02  0.24133660296E+04  0.24149600990E+04  0.77260045925E+02 0.  0.
        -11    1    3    3    0    0 -0.22971728907E+02  0.42860147614E+02 -0.11083337683E+03  0.12103193794E+03  0.00000000000E+00 0.  1.
         12    1    3    3    0    0  0.10687639852E+02 -0.26752477956E+02 -0.13538222387E+03  0.13841339264E+03  0.00000000000E+00 0. -1.
         13    1    5    5    0    0  0.49956408799E+02  0.15684636434E+02  0.17007357172E+04  0.17015415453E+04  0.00000000000E+00 0. -1.
        -14    1    5    5    0    0 -0.11513943941E+02 -0.31488088273E+02  0.71263031235E+03  0.71341855365E+03  0.00000000000E+00 0.  1.
          5    1    4    4  501    0  0.10547632867E+02 -0.50776822537E+02  0.10027793107E+02  0.52986482245E+02  0.41800000000E+01 0.  1.
         -5    1    4    4    0  501 -0.36706008671E+02  0.50472604719E+02  0.88544843861E+02  0.10840884039E+03  0.41800000000E+01 0.  1.
</event>
<event>
11    1  0.6455215E-009  0.1352712E+03  0.7561462E-02  0.1112957E+00
         22   -1    0    0    0    0  0.00000000000E+00  0.00000000000E+00  0.22843047208E+04  0.22843047208E+04  0.00000000000E+00 0. -1.
         22   -1    0    0    0    0 -0.00000000000E+00 -0.00000000000E+00 -0.26436811027E+03  0.26436811027E+03  0.00000000000E+00 0.  1.
         24    2    1    2    0    0  0.14311115427E+02 -0.34000967261E+00 -0.22880385414E+03  0.24344137991E+03  0.81899805570E+02 0.  0.
         25    2    1    2    0    0  0.36267506315E+02 -0.11794836481E+02  0.13018331978E+03  0.18452653561E+03  0.12509154813E+03 0.  0.
        -24    2    1    2    0    0 -0.50578621742E+02  0.12134846154E+02  0.21185571449E+04  0.21207049155E+04  0.79996944861E+02 0.  0.
        -11    1    3    3    0    0 -0.33838730952E+02 -0.49306107789E+01 -0.80928137004E+02  0.87856325862E+02  0.00000000000E+00 0.  1.
         12    1    3    3    0    0  0.48149846379E+02  0.45906011063E+01 -0.14787571714E+03  0.15558505405E+03  0.00000000000E+00 0. -1.
         13    1    5    5    0    0 -0.49877874434E+02  0.40906775401E+01  0.20983148675E+04  0.20989115797E+04  0.00000000000E+00 0. -1.
        -14    1    5    5    0    0 -0.70074730835E+00  0.80441686139E+01  0.20242277317E+02  0.21793335826E+02  0.00000000000E+00 0.  1.
          5    1    4    4  501    0 -0.22628487252E+01 -0.43804352554E+02  0.12669674056E+03  0.13413977134E+03  0.41800000000E+01 0. -1.
         -5    1    4    4    0  501  0.38530355041E+02  0.32009516073E+02  0.34865792195E+01  0.50386764268E+02  0.41800000000E+01 0. -1.
</event>
<event>
11    1  0.6455215E-009  0.1438977E+03  0.7561462E-02  0.1103282E+00
         22   -1    0    0    0    0  0.00000000000E+00  0.00000000000E+00  0.11749168565E+04  0.11749168565E+04  0.00000000000E+00 0. -1.
         22   -1    0    0    0    0 -0.00000000000E+00 -0.00000000000E+00 -0.19085249489E+03  0.19085249489E+03  0.00000000000E+00 0.  1.
        -24    2    1    2    0    0 -0.72230332963E+02  0.19477179364E+02 -0.14855939533E+03  0.18502257687E+03  0.81036278880E+02 0.  0.
         25    2    1    2    0    0  0.32538241191E+02 -0.35824048513E+01  0.16881669815E+03  0.21265224567E+03  0.12510127596E+03 0.  0.
         24    2    1    2    0    0  0.39692091772E+02 -0.15894774512E+02  0.96380705880E+03  0.96809452888E+03  0.80342169715E+02 0.  0.
        -13    1    5    5    0    0  0.14005802489E+02 -0.42252439458E+01  0.25766870651E+02  0.29630167278E+02  0.00000000000E+00 0.  1.
         14    1    5    5    0    0  0.25686289282E+02 -0.11669530567E+02  0.93804018815E+03  0.93846436160E+03  0.00000000000E+00 0. -1.
         11    1    3    3    0    0 -0.14298106353E+01  0.36246771331E+02 -0.36860390754E+02  0.51716159920E+02  0.00000000000E+00 0. -1.
        -12    1    3    3    0    0 -0.70800522328E+02 -0.16769591967E+02 -0.11169900457E+03  0.13330641695E+03  0.00000000000E+00 0.  1.
          5    1    4    4  501    0  0.26777272666E+02 -0.59421760245E+02  0.53863686442E+02  0.84656582964E+02  0.41800000000E+01 0. -1.
         -5    1    4    4    0  501  0.57609685253E+01  0.55839355394E+02  0.11495301171E+03  0.12799566270E+03  0.41800000000E+01 0. -1.
</event>
<event>
11    1  0.6455215E-009  0.1333698E+03  0.7561462E-02  0.1115197E+00
         22   -1    0    0    0    0  0.00000000000E+00  0.00000000000E+00  0.29919290334E+03  0.29919290334E+03  0.00000000000E+00 0.  1.
         22   -1    0    0    0    0 -0.00000000000E+00 -0.00000000000E+00 -0.25241107091E+03  0.25241107091E+03  0.00000000000E+00 0. -1.
         24    2    1    2    0    0 -0.27612804551E+02 -0.49327452650E+02 -0.16053545657E+03  0.18888773645E+03  0.81922399899E+02 0.  0.
         25    2    1    2    0    0  0.17226338064E+02 -0.70425243729E+01 -0.69806263775E+01  0.12665467288E+03  0.12508530347E+03 0.  0.
        -24    2    1    2    0    0  0.10386466487E+02  0.56369977023E+02  0.21429791537E+03  0.23606156493E+03  0.80721824240E+02 0.  0.
        -13    1    3    3    0    0 -0.34984086804E+02 -0.26609283117E+02 -0.23607643635E+02  0.49892495583E+02  0.00000000000E+00 0.  1.
         14    1    3    3    0    0  0.73712822529E+01 -0.22718169533E+02 -0.13692781293E+03  0.13899524086E+03  0.00000000000E+00 0. -1.
         11    1    5    5    0    0  0.32325579318E+02  0.67163009957E+02  0.16310905204E+03  0.17933314206E+03  0.00000000000E+00 0. -1.
        -12    1    5    5    0    0 -0.21939112831E+02 -0.10793032934E+02  0.51188863331E+02  0.56728422866E+02  0.00000000000E+00 0.  1.
          5    1    4    4  501    0  0.35900597779E+01  0.28420390094E+02 -0.56864866067E+02  0.63809815037E+02  0.41800000000E+01 0. -1.
         -5    1    4    4    0  501  0.13636278286E+02 -0.35462914467E+02  0.49884239689E+02  0.62844857843E+02  0.41800000000E+01 0. -1.
</event>
<event>
11    1  0.6455215E-009  0.1759106E+03  0.7561462E-02  0.1073000E+00
         22   -1    0    0    0    0  0.00000000000E+00  0.00000000000E+00  0.60659334513E+03  0.60659334513E+03  0.00000000000E+00 0. -1.
         22   -1    0    0    0    0 -0.00000000000E+00 -0.00000000000E+00 -0.10248142754E+04  0.10248142754E+04  0.00000000000E+00 0. -1.
        -24    2    1    2    0    0  0.12473061746E+03  0.19989041258E+02 -0.93535857680E+03  0.94728536525E+03  0.80601534186E+02 0.  0.
         25    2    1    2    0    0 -0.91286873603E+02  0.75010139310E+02  0.24154677488E+02  0.17374644585E+03  0.12507823435E+03 0.  0.
         24    2    1    2    0    0 -0.33443743860E+02 -0.94999180569E+02  0.49298296905E+03  0.51037580943E+03  0.85486436137E+02 0.  0.
        -11    1    5    5    0    0 -0.21045717214E+02 -0.91858226817E+02  0.25184921317E+03  0.26890310936E+03  0.00000000000E+00 0.  1.
         12    1    5    5    0    0 -0.12398026646E+02 -0.31409537516E+01  0.24113375587E+03  0.24147270007E+03  0.00000000000E+00 0. -1.
         11    1    3    3    0    0  0.84685272971E+02  0.47000403336E+02 -0.72568260480E+03  0.73211739242E+03  0.00000000000E+00 0. -1.
        -12    1    3    3    0    0  0.40045344492E+02 -0.27011362078E+02 -0.20967597200E+03  0.21516797283E+03  0.00000000000E+00 0.  1.
          5    1    4    4  501    0 -0.39256095389E+02  0.16953017521E+02  0.70788668161E+02  0.82806725381E+02  0.41800000000E+01 0. -1.
         -5    1    4    4    0  501 -0.52030778214E+02  0.58057121789E+02 -0.46633990673E+02  0.90939720464E+02  0.41800000000E+01 0. -1.
</event>
<event>
11    1  0.6455215E-009  0.1683037E+03  0.7561462E-02  0.1079517E+00
         22   -1    0    0    0    0  0.00000000000E+00  0.00000000000E+00  0.28328844112E+03  0.28328844112E+03  0.00000000000E+00 0.  1.
         22   -1    0    0    0    0 -0.00000000000E+00 -0.00000000000E+00 -0.10868216945E+04  0.10868216945E+04  0.00000000000E+00 0.  1.
        -24    2    1    2    0    0 -0.44877016965E+02  0.97562133314E+02 -0.87315200600E+03  0.88341187940E+03  0.80559335687E+02 0.  0.
         25    2    1    2    0    0 -0.66410028623E+02 -0.52206449080E+02 -0.15741779143E+03  0.21809044921E+03  0.12508907926E+03 0.  0.
         24    2    1    2    0    0  0.11128704559E+03 -0.45355684234E+02  0.22703654408E+03  0.26860780698E+03  0.78502337623E+02 0.  0.
        -13    1    5    5    0    0  0.49169005424E+02  0.95664522472E+01  0.13863018586E+03  0.14740229488E+03  0.00000000000E+00 0.  1.
         14    1    5    5    0    0  0.62118040164E+02 -0.54922136481E+02  0.88406358218E+02  0.12120551210E+03  0.00000000000E+00 0. -1.
         13    1    3    3    0    0  0.10407782366E+02 -0.92825943010E+01 -0.91052400361E+02  0.92114212271E+02  0.00000000000E+00 0. -1.
        -14    1    3    3    0    0 -0.55284799331E+02  0.10684472762E+03 -0.78209960564E+03  0.79129766713E+03  0.00000000000E+00 0.  1.
          5    1    4    4  501    0  0.23582638244E+02 -0.53652807294E+02 -0.80251661183E+02  0.99461379840E+02  0.41800000000E+01 0. -1.
         -5    1    4    4    0  501 -0.89992666867E+02  0.14463582138E+01 -0.77166130246E+02  0.11862906937E+03  0.41800000000E+01 0. -1.
</event>
<event>
11    1  0.6455215E-009  0.1352589E+03  0.7561462E-02  0.1112971E+00
         22   -1    0    0    0    0  0.00000000000E+00  0.00000000000E+00  0.18092855593E+04  0.18092855593E+04  0.00000000000E+00 0.  1.
         22   -1    0    0    0    0 -0.00000000000E+00 -0.00000000000E+00 -0.29407170406E+02  0.29407170406E+02  0.00000000000E+00 0. -1.
         24    2    1    2    0    0 -0.48448821511E+02 -0.20346774043E+02  0.10204983932E+03  0.13924091487E+03  0.78819941308E+02 0.  0.
         25    2    1    2    0    0  0.29608278434E+02  0.45978056954E+02  0.49159637477E+03  0.51020104391E+03  0.12508987826E+03 0.  0.
        -24    2    1    2    0    0  0.18840543076E+02 -0.25631282911E+02  0.11862321748E+04  0.11892507709E+04  0.78477352776E+02 0.  0.
        -11    1    3    3    0    0 -0.10854222220E+02 -0.37807216696E+02  0.86402156638E+02  0.94934358617E+02  0.00000000000E+00 0.  1.
         12    1    3    3    0    0 -0.37594599291E+02  0.17460442654E+02  0.15647682686E+02  0.44306556252E+02  0.00000000000E+00 0. -1.
         11    1    5    5    0    0 -0.17523535113E+02 -0.22556002493E+02  0.17147840967E+03  0.17384099780E+03  0.00000000000E+00 0. -1.
        -12    1    5    5    0    0  0.36364078189E+02 -0.30752804181E+01  0.10147537651E+04  0.10154097731E+04  0.00000000000E+00 0.  1.
          5    1    4    4  501    0  0.43268295816E+02  0.10807710538E+02  0.50616679725E+02  0.67590477852E+02  0.41800000000E+01 0. -1.
         -5    1    4    4    0  501 -0.13660017382E+02  0.35170346416E+02  0.44097969504E+03  0.44261056605E+03  0.41800000000E+01 0. -1.
</event>
<event>
11    1  0.6688139E-009  0.1413776E+03  0.7561462E-02  0.1106030E+00
         22   -1    0    0    0    0  0.00000000000E+00  0.00000000000E+00  0.29598907561E+03  0.29598907561E+03  0.00000000000E+00 0.  1.
         22   -1    0    0    0    0 -0.00000000000E+00 -0.00000000000E+00 -0.56557079913E+03  0.56557079913E+03  0.00000000000E+00 0.  1.
        -24    2    1    2    0    0 -0.60224794741E+02  0.29877258143E+01 -0.26527295430E+03  0.28333980954E+03  0.79219662848E+02 0.  0.
         25    2    1    2    0    0  0.12043779303E+03 -0.24361579683E+02 -0.25394018928E+03  0.30859678449E+03  0.12509039576E+03 0.  0.
         24    2    1    2    0    0 -0.60212998286E+02  0.21373853868E+02  0.24963142006E+03  0.26962328071E+03  0.79362590847E+02 0.  0.
        -13    1    5    5    0    0 -0.56767927566E+02  0.48255110351E+02  0.19156047877E+03  0.20553970492E+03  0.00000000000E+00 0.  1.
         14    1    5    5    0    0 -0.34450707204E+01 -0.26881256483E+02  0.58070941298E+02  0.64083575786E+02  0.00000000000E+00 0. -1.
         13    1    3    3    0    0 -0.19883012031E+02 -0.25653398873E+02 -0.34679054244E+02  0.47498082534E+02  0.00000000000E+00 0. -1.
        -14    1    3    3    0    0 -0.40341782710E+02  0.28641124687E+02 -0.23059390006E+03  0.23584172701E+03  0.00000000000E+00 0.  1.
          5    1    4    4  501    0 -0.20083467931E+02 -0.27946670283E+02 -0.47334739395E+02  0.58672071871E+02  0.41800000000E+01 0.  1.
         -5    1    4    4    0  501  0.14052126096E+03  0.35850906003E+01 -0.20660544988E+03  0.24992471262E+03  0.41800000000E+01 0.  1.
</event>
<event>
11    1  0.6455215E-009  0.1367913E+03  0.7561462E-02  0.1111195E+00
         22   -1    0    0    0    0  0.00000000000E+00  0.00000000000E+00  0.48169151998E+03  0.48169151998E+03  0.00000000000E+00 0. -1.
         22   -1    0    0    0    0 -0.00000000000E+00 -0.00000000000E+00 -0.49194559527E+03  0.49194559527E+03  0.00000000000E+00 0. -1.
        -24    2    1    2    0    0 -0.34866209022E+02  0.53799287396E+02 -0.14341952264E+03  0.17693379602E+03  0.81402658716E+02 0.  0.
         25    2    1    2    0    0  0.70226350063E+02 -0.94766827960E+02 -0.30256271278E+03  0.34799984599E+03  0.12508879133E+03 0.  0.
         24    2    1    2    0    0 -0.35360141041E+02  0.40967540564E+02  0.43572816013E+03  0.44870347323E+03  0.92450518718E+02 0.  0.
        -11    1    5    5    0    0  0.21091034692E+02  0.15313837124E+02  0.37449375055E+02  0.45626757981E+02  0.00000000000E+00 0.  1.
         12    1    5    5    0    0 -0.56451175733E+02  0.25653703440E+02  0.39827878507E+03  0.40307671525E+03  0.00000000000E+00 0. -1.
         13    1    3    3    0    0 -0.34944683274E+02  0.28426141207E+01 -0.11131744785E+03  0.11670812114E+03  0.00000000000E+00 0. -1.
        -14    1    3    3    0    0  0.78474251932E-01  0.50956673275E+02 -0.32102074785E+02  0.60225674882E+02  0.00000000000E+00 0.  1.
          5    1    4    4  501    0 -0.14253327659E+02 -0.85104838807E+02 -0.14045141791E+03  0.16489409975E+03  0.41800000000E+01 0.  1.
         -5    1    4    4    0  501  0.84479677722E+02 -0.96619891526E+01 -0.16211129487E+03  0.18310574624E+03  0.41800000000E+01 0.  1.
</event>
<event>
11    1  0.6455215E-009  0.1578276E+03  0.7561462E-02  0.1089139E+00
         22   -1    0    0    0    0  0.00000000000E+00  0.00000000000E+00  0.20989762291E+03  0.20989762291E+03  0.00000000000E+00 0.  1.
         22   -1    0    0    0    0 -0.00000000000E+00 -0.00000000000E+00 -0.17039074883E+04  0.17039074883E+04  0.00000000000E+00 0. -1.
        -24    2    1    2    0    0  0.65160918636E+02 -0.73600681401E+02 -0.13969196564E+04  0.14028397288E+04  0.83137071735E+02 0.  0.
         25    2    1    2    0    0 -0.38103352070E+02  0.76331924768E+02 -0.27484982039E+03  0.31379413329E+03  0.12508359660E+03 0.  0.
         24    2    1    2    0    0 -0.27057566565E+02 -0.27312433666E+01  0.17775961139E+03  0.19717124911E+03  0.80860685356E+02 0.  0.
        -13    1    5    5    0    0 -0.28622871654E+02  0.35495219632E+02  0.78334376272E+02  0.90639141128E+02  0.00000000000E+00 0.  1.
         14    1    5    5    0    0  0.15653050891E+01 -0.38226462998E+02  0.99425235114E+02  0.10653210798E+03  0.00000000000E+00 0. -1.
         11    1    3    3    0    0 -0.52180421168E+01 -0.47626952932E+02 -0.35433427035E+03  0.35755884796E+03  0.00000000000E+00 0. -1.
        -12    1    3    3    0    0  0.70378960753E+02 -0.25973728469E+02 -0.10425853861E+04  0.10452808809E+04  0.00000000000E+00 0.  1.
          5    1    4    4  501    0  0.37700452420E+02  0.23939882917E+02 -0.35238418552E+02  0.57040868233E+02  0.41800000000E+01 0.  1.
         -5    1    4    4    0  501 -0.75803804491E+02  0.52392041851E+02 -0.23961140184E+03  0.25675326506E+03  0.41800000000E+01 0.  1.
</event>
<event>
11    1  0.6455215E-009  0.1758422E+03  0.7561462E-02  0.1073057E+00
         22   -1    0    0    0    0  0.00000000000E+00  0.00000000000E+00  0.13082473508E+04  0.13082473508E+04  0.00000000000E+00 0. -1.
         22   -1    0    0    0    0 -0.00000000000E+00 -0.00000000000E+00 -0.21249685876E+03  0.21249685876E+03  0.00000000000E+00 0. -1.
         24    2    1    2    0    0 -0.27764401245E+02  0.52415645890E+02 -0.17380017619E+03  0.19945869272E+03  0.77839623265E+02 0.  0.
         25    2    1    2    0    0  0.62025201061E+02  0.76523531292E+02  0.30008836272E+03  0.33971114021E+03  0.12509059491E+03 0.  0.
        -24    2    1    2    0    0 -0.34260799815E+02 -0.12893917718E+03  0.96946230554E+03  0.98157437667E+03  0.76367409649E+02 0.  0.
        -11    1    3    3    0    0 -0.22281547351E+02  0.38682400535E+02 -0.27538788060E+02  0.52451695028E+02  0.00000000000E+00 0.  1.
         12    1    3    3    0    0 -0.54828538945E+01  0.13733245355E+02 -0.14626138813E+03  0.14700699769E+03  0.00000000000E+00 0. -1.
         11    1    5    5    0    0 -0.73110502592E+01 -0.10394650535E+03  0.85571424972E+03  0.86203550078E+03  0.00000000000E+00 0. -1.
        -12    1    5    5    0    0 -0.26949749556E+02 -0.24992671832E+02  0.11374805582E+03  0.11953887589E+03  0.00000000000E+00 0.  1.
          5    1    4    4  501    0  0.76342555546E+02  0.52322720593E+01  0.94902551108E+02  0.12198167512E+03  0.41800000000E+01 0. -1.
         -5    1    4    4    0  501 -0.14317354485E+02  0.71291259232E+02  0.20518581161E+03  0.21772946509E+03  0.41800000000E+01 0. -1.
</event>
<event>
11    1  0.6455215E-009  0.1502931E+03  0.7561462E-02  0.1096580E+00
         22   -1    0    0    0    0  0.00000000000E+00  0.00000000000E+00  0.24515424537E+04  0.24515424537E+04  0.00000000000E+00 0. -1.
         22   -1    0    0    0    0 -0.00000000000E+00 -0.00000000000E+00 -0.13939300686E+03  0.13939300686E+03  0.00000000000E+00 0.  1.
         24    2    1    2    0    0  0.73795199327E+02 -0.34937829751E+02 -0.97056720160E+02  0.14952629566E+03  0.79194209225E+02 0.  0.
         25    2    1    2    0    0 -0.10592018502E+03  0.40773447353E+02  0.45575224726E+03  0.48604382533E+03  0.12508768787E+03 0.  0.
        -24    2    1    2    0    0  0.32124985694E+02 -0.58356176022E+01  0.19534539197E+04  0.19553653395E+04  0.80033277433E+02 0.  0.
        -11    1    3    3    0    0  0.79702135015E+02 -0.43150537366E+02 -0.54442778297E+02  0.10572802519E+03  0.00000000000E+00 0.  1.
         12    1    3    3    0    0 -0.59069356885E+01  0.82127076156E+01 -0.42613941863E+02  0.43798270476E+02  0.00000000000E+00 0. -1.
         13    1    5    5    0    0  0.16856662896E+02 -0.97936288877E+01  0.18856579023E+04  0.18857586767E+04  0.00000000000E+00 0. -1.
        -14    1    5    5    0    0  0.15268322798E+02  0.39580112855E+01  0.67796017392E+02  0.69606662818E+02  0.00000000000E+00 0.  1.
          5    1    4    4  501    0 -0.13141252289E+03  0.15923504671E+02  0.34066387030E+03  0.36550260478E+03  0.41800000000E+01 0. -1.
         -5    1    4    4    0  501  0.25492337865E+02  0.24849942682E+02  0.11508837696E+03  0.12054122055E+03  0.41800000000E+01 0. -1.
</event>
<event>
11    1  0.6455215E-009  0.1891681E+03  0.7561462E-02  0.1062459E+00
         22   -1    0    0    0    0  0.00000000000E+00  0.00000000000E+00  0.34575634659E+04  0.34575634659E+04  0.00000000000E+00 0.  1.
         22   -1    0    0    0    0 -0.00000000000E+00 -0.00000000000E+00 -0.53185696029E+02  0.53185696029E+02  0.00000000000E+00 0. -1.
         24    2    1    2    0    0 -0.63363978626E-01 -0.13586890910E+03  0.13138397347E+03  0.20766927879E+03  0.86048918600E+02 0.  0.
         25    2    1    2    0    0 -0.16557806953E+02  0.16964064419E+03  0.76920249971E+03  0.79772917202E+03  0.12508891717E+03 0.  0.
        -24    2    1    2    0    0  0.16621170932E+02 -0.33771735089E+02  0.25037912967E+04  0.25053507111E+04  0.79965835775E+02 0.  0.
        -11    1    3    3    0    0  0.32661073055E+02 -0.10145190120E+03  0.11650735145E+03  0.15790249172E+03  0.00000000000E+00 0.  1.
         12    1    3    3    0    0 -0.32724437034E+02 -0.34417007907E+02  0.14876622018E+02  0.49766787069E+02  0.00000000000E+00 0. -1.
         11    1    5    5    0    0  0.94507743550E+01  0.24098325720E+02  0.11686119766E+04  0.11688986262E+04  0.00000000000E+00 0. -1.
        -12    1    5    5    0    0  0.71703965770E+01 -0.57870060809E+02  0.13351793201E+04  0.13364520849E+04  0.00000000000E+00 0.  1.
          5    1    4    4  501    0  0.30026719734E+02  0.12409377034E+03  0.64379476817E+03  0.65634597862E+03  0.41800000000E+01 0. -1.
         -5    1    4    4    0  501 -0.46584526687E+02  0.45546873852E+02  0.12540773154E+03  0.14138319339E+03  0.41800000000E+01 0. -1.
</event>
<event>
11    1  0.6455215E-009  0.1514422E+03  0.7561462E-02  0.1095414E+00
         22   -1    0    0    0    0  0.00000000000E+00  0.00000000000E+00  0.34093129937E+03  0.34093129937E+03  0.00000000000E+00 0. -1.
         22   -1    0    0    0    0 -0.00000000000E+00 -0.00000000000E+00 -0.76102611593E+03  0.76102611593E+03  0.00000000000E+00 0. -1.
         24    2    1    2    0    0 -0.54379369199E+01  0.65638327637E+01 -0.70096061855E+03  0.70552836290E+03  0.79698350283E+02 0.  0.
         25    2    1    2    0    0 -0.61871480178E+01 -0.89133305713E+02  0.11597511637E+03  0.19257206915E+03  0.12510294645E+03 0.  0.
        -24    2    1    2    0    0  0.11625084938E+02  0.82569472949E+02  0.16489068563E+03  0.20385698325E+03  0.86115451294E+02 0.  0.
        -11    1    3    3    0    0  0.35204392859E+02  0.15372839812E+02 -0.35836106702E+03  0.36041410605E+03  0.00000000000E+00 0.  1.
         12    1    3    3    0    0 -0.40642329779E+02 -0.88090070484E+01 -0.34259955153E+03  0.34511425686E+03  0.00000000000E+00 0. -1.
         13    1    5    5    0    0  0.22994807960E+02  0.52633076579E+02  0.16179185936E+03  0.17168461695E+03  0.00000000000E+00 0. -1.
        -14    1    5    5    0    0 -0.11369723022E+02  0.29936396370E+02  0.30988262698E+01  0.32172366302E+02  0.00000000000E+00 0.  1.
          5    1    4    4  501    0 -0.49727648000E+02 -0.31699781753E+02  0.38881124987E+01  0.59247826606E+02  0.41800000000E+01 0. -1.
         -5    1    4    4    0  501  0.43540499982E+02 -0.57433523959E+02  0.11208700387E+03  0.13332424254E+03  0.41800000000E+01 0. -1.
</event>
<event>
11    1  0.6455215E-009  0.1383925E+03  0.7561462E-02  0.1109367E+00
         22   -1    0    0    0    0  0.00000000000E+00  0.00000000000E+00  0.52995471500E+03  0.52995471500E+03  0.00000000000E+00 0.  1.
         22   -1    0    0    0    0 -0.00000000000E+00 -0.00000000000E+00 -0.30574370997E+03  0.30574370997E+03  0.00000000000E+00 0.  1.
         24    2    1    2    0    0  0.58960564397E+02 -0.84336135863E+01 -0.25093535020E+03  0.27026510655E+03  0.80791112436E+02 0.  0.
         25    2    1    2    0    0 -0.57758808392E+02 -0.22355802766E+02  0.79660183143E+02  0.16071888984E+03  0.12509578294E+03 0.  0.
        -24    2    1    2    0    0 -0.12017560053E+01  0.30789416352E+02  0.39548617208E+03  0.40471442857E+03  0.80218601427E+02 0.  0.
        -11    1    3    3    0    0  0.47828948666E+02 -0.35259415868E+02 -0.21978329917E+03  0.22767418240E+03  0.00000000000E+00 0.  1.
         12    1    3    3    0    0  0.11131615731E+02  0.26825802282E+02 -0.31152051029E+02  0.42590924152E+02  0.00000000000E+00 0. -1.
         13    1    5    5    0    0  0.26551677016E+02 -0.16131806831E+02  0.12645510568E+03  0.13021566917E+03  0.00000000000E+00 0. -1.
        -14    1    5    5    0    0 -0.27753433021E+02  0.46921223183E+02  0.26903106639E+03  0.27449875940E+03  0.00000000000E+00 0.  1.
          5    1    4    4  501    0 -0.59710687109E+01  0.45785290821E+02  0.54207558839E+02  0.71329365289E+02  0.41800000000E+01 0.  1.
         -5    1    4    4    0  501 -0.51787739681E+02 -0.68141093587E+02  0.25452624304E+02  0.89389524556E+02  0.41800000000E+01 0.  1.
</event>
<event>
11    1  0.6455215E-009  0.1497640E+03  0.7561462E-02  0.1097120E+00
         22   -1    0    0    0    0  0.00000000000E+00  0.00000000000E+00  0.19124295946E+03  0.19124295946E+03  0.00000000000E+00 0.  1.
         22   -1    0    0    0    0 -0.00000000000E+00 -0.00000000000E+00 -0.10728395932E+04  0.10728395932E+04  0.00000000000E+00 0.  1.
        -24    2    1    2    0    0  0.53119754676E+01  0.82256993701E+02 -0.76524409459E+03  0.77415475684E+03  0.83202362509E+02 0.  0.
         25    2    1    2    0    0 -0.22667896944E+02 -0.80368542151E+02 -0.27374769499E+03  0.31234362737E+03  0.12509118644E+03 0.  0.
         24    2    1    2    0    0  0.17355921476E+02 -0.18884515497E+01  0.15739515587E+03  0.17758416843E+03  0.80362351407E+02 0.  0.
        -13    1    5    5    0    0 -0.70525774327E+01 -0.63198693490E+01  0.15187494552E+03  0.15216990068E+03  0.00000000000E+00 0.  1.
         14    1    5    5    0    0  0.24408498909E+02  0.44314177993E+01  0.55202103561E+01  0.25414267746E+02  0.00000000000E+00 0. -1.
         11    1    3    3    0    0  0.12800071913E+02 -0.72109929689E+01 -0.29529051593E+02  0.32981891222E+02  0.00000000000E+00 0. -1.
        -12    1    3    3    0    0 -0.74880964456E+01  0.89467986670E+02 -0.73571504300E+03  0.74117286562E+03  0.00000000000E+00 0.  1.
          5    1    4    4  501    0  0.19834255199E+02 -0.99911535804E+02 -0.20681543689E+03  0.23057712376E+03  0.41800000000E+01 0. -1.
         -5    1    4    4    0  501 -0.42502152142E+02  0.19542993653E+02 -0.66932258105E+02  0.81766503610E+02  0.41800000000E+01 0. -1.
</event>
<event>
11    1  0.6455215E-009  0.1442589E+03  0.7561462E-02  0.1102894E+00
         22   -1    0    0    0    0  0.00000000000E+00  0.00000000000E+00  0.99994644827E+03  0.99994644827E+03  0.00000000000E+00 0. -1.
         22   -1    0    0    0    0 -0.00000000000E+00 -0.00000000000E+00 -0.44450160993E+03  0.44450160993E+03  0.00000000000E+00 0. -1.
        -24    2    1    2    0    0 -0.17955733879E+02  0.28893017636E+01 -0.42401223339E+03  0.43198185323E+03  0.80567927956E+02 0.  0.
         25    2    1    2    0    0 -0.20853308419E+02  0.62159221765E+02  0.45172844434E+03  0.47329089129E+03  0.12508817301E+03 0.  0.
         24    2    1    2    0    0  0.38809042298E+02 -0.65048523529E+02  0.52772862739E+03  0.53917531368E+03  0.80467773274E+02 0.  0.
        -13    1    5    5    0    0 -0.16694970901E+02 -0.17729814507E+02  0.46895194160E+02  0.52841533013E+02  0.00000000000E+00 0.  1.
         14    1    5    5    0    0  0.55504013199E+02 -0.47318709022E+02  0.48083343323E+03  0.48633378066E+03  0.00000000000E+00 0. -1.
         13    1    3    3    0    0 -0.40129405133E+02 -0.13446977374E+02 -0.35744733196E+03  0.35994414217E+03  0.00000000000E+00 0. -1.
        -14    1    3    3    0    0  0.22173671254E+02  0.16336279138E+02 -0.66564901427E+02  0.72037711062E+02  0.00000000000E+00 0.  1.
          5    1    4    4  501    0  0.15627948867E+02  0.75636228011E+02  0.40515015414E+03  0.41246720061E+03  0.41800000000E+01 0. -1.
         -5    1    4    4    0  501 -0.36481257286E+02 -0.13477006245E+02  0.46578290198E+02  0.60823690683E+02  0.41800000000E+01 0. -1.
</event>
<event>
11    1  0.6455215E-009  0.1550944E+03  0.7561462E-02  0.1091784E+00
         22   -1    0    0    0    0  0.00000000000E+00  0.00000000000E+00  0.10838655988E+04  0.10838655988E+04  0.00000000000E+00 0. -1.
         22   -1    0    0    0    0 -0.00000000000E+00 -0.00000000000E+00 -0.87782545534E+03  0.87782545534E+03  0.00000000000E+00 0. -1.
        -24    2    1    2    0    0 -0.59183950761E+01  0.64998250259E+02 -0.85417891675E+03  0.85981994254E+03  0.73545304667E+02 0.  0.
         25    2    1    2    0    0 -0.70685041286E+02 -0.99606514566E+02  0.49414465142E+03  0.52416602025E+03  0.12511293879E+03 0.  0.
         24    2    1    2    0    0  0.76603436362E+02  0.34608264307E+02  0.56607440875E+03  0.57770509132E+03  0.78975425709E+02 0.  0.
        -11    1    5    5    0    0 -0.40505431225E+01 -0.18370458529E+02  0.97226714876E+02  0.99029867877E+02  0.00000000000E+00 0.  1.
         12    1    5    5    0    0  0.80653979484E+02  0.52978722836E+02  0.46884769388E+03  0.47867522344E+03  0.00000000000E+00 0. -1.
         11    1    3    3    0    0 -0.15626610682E+02  0.44696882692E+02 -0.79650764899E+03  0.79791380310E+03  0.00000000000E+00 0. -1.
        -12    1    3    3    0    0  0.97082156057E+01  0.20301367567E+02 -0.57671267762E+02  0.61906139442E+02  0.00000000000E+00 0.  1.
          5    1    4    4  501    0  0.12245456257E+02 -0.73706180653E+02  0.13214322996E+03  0.15186131137E+03  0.41800000000E+01 0.  1.
         -5    1    4    4    0  501 -0.82930497543E+02 -0.25900333913E+02  0.36200142146E+03  0.37230470888E+03  0.41800000000E+01 0.  1.
</event>
<event>
11    1  0.6455215E-009  0.2123907E+03  0.7561462E-02  0.1046092E+00
         22   -1    0    0    0    0  0.00000000000E+00  0.00000000000E+00  0.50349392406E+03  0.50349392406E+03  0.00000000000E+00 0.  1.
         22   -1    0    0    0    0 -0.00000000000E+00 -0.00000000000E+00 -0.21073692656E+03  0.21073692656E+03  0.00000000000E+00 0. -1.
         24    2    1    2    0    0  0.29553325263E+02 -0.19298984813E+03 -0.84740512219E+02  0.22753752152E+03  0.80460479580E+02 0.  0.
         25    2    1    2    0    0  0.15884319372E+02  0.81502975953E+02  0.26170923711E+03  0.30171101813E+03  0.12507104774E+03 0.  0.
        -24    2    1    2    0    0 -0.45437644636E+02  0.11148687218E+03  0.11578827260E+03  0.18498231096E+03  0.79483514490E+02 0.  0.
        -11    1    3    3    0    0  0.65296165531E+01 -0.35446246676E+02  0.15671104618E+02  0.39302109558E+02  0.00000000000E+00 0.  1.
         12    1    3    3    0    0  0.23023708710E+02 -0.15754360146E+03 -0.10041161684E+03  0.18823541197E+03  0.00000000000E+00 0. -1.
         13    1    5    5    0    0  0.14083617604E+02  0.52702543054E+00  0.25766620809E+00  0.14095830323E+02  0.00000000000E+00 0. -1.
        -14    1    5    5    0    0 -0.59521262239E+02  0.11095984675E+03  0.11553060640E+03  0.17088648063E+03  0.00000000000E+00 0.  1.
          5    1    4    4  501    0 -0.49300118625E+02  0.64091402392E+02  0.12078301076E+03  0.14541051422E+03  0.41800000000E+01 0.  1.
         -5    1    4    4    0  501  0.65184437998E+02  0.17411573561E+02  0.14092622635E+03  0.15630050391E+03  0.41800000000E+01 0.  1.
</event>
<event>
11    1  0.6455215E-009  0.1323614E+03  0.7561462E-02  0.1116401E+00
         22   -1    0    0    0    0  0.00000000000E+00  0.00000000000E+00  0.73970757963E+03  0.73970757963E+03  0.00000000000E+00 0. -1.
         22   -1    0    0    0    0 -0.00000000000E+00 -0.00000000000E+00 -0.99075035750E+03  0.99075035750E+03  0.00000000000E+00 0. -1.
        -24    2    1    2    0    0  0.40730292457E+02  0.54747082484E+01 -0.95037825893E+03  0.95446070940E+03  0.78022314748E+02 0.  0.
         25    2    1    2    0    0 -0.57018045716E+01 -0.34861552337E+02  0.86551231538E+02  0.15616174838E+03  0.12509011780E+03 0.  0.
         24    2    1    2    0    0 -0.35028487886E+02  0.29386844088E+02  0.61278424952E+03  0.61983547935E+03  0.81245944046E+02 0.  0.
        -11    1    5    5    0    0 -0.32279630459E+02  0.86765447461E+01  0.80795514943E+02  0.87436675407E+02  0.00000000000E+00 0.  1.
         12    1    5    5    0    0 -0.27488574264E+01  0.20710299342E+02  0.53198873458E+03  0.53239880394E+03  0.00000000000E+00 0. -1.
         13    1    3    3    0    0  0.52838219517E+00  0.17541417319E+02 -0.72469007426E+03  0.72490253430E+03  0.00000000000E+00 0. -1.
        -14    1    3    3    0    0  0.40201910262E+02 -0.12066709070E+02 -0.22568818467E+03  0.22955817510E+03  0.00000000000E+00 0.  1.
          5    1    4    4  501    0  0.14704371322E+01  0.47173800131E+02  0.28043715969E+02  0.55058623389E+02  0.41800000000E+01 0.  1.
         -5    1    4    4    0  501 -0.71722417038E+01 -0.82035352468E+02  0.58507515569E+02  0.10110312499E+03  0.41800000000E+01 0.  1.
</event>
<event>
11    1  0.6455215E-009  0.2262172E+03  0.7561462E-02  0.1037391E+00
         22   -1    0    0    0    0  0.00000000000E+00  0.00000000000E+00  0.50000463209E+03  0.50000463209E+03  0.00000000000E+00 0. -1.
         22   -1    0    0    0    0 -0.00000000000E+00 -0.00000000000E+00 -0.42799356083E+03  0.42799356083E+03  0.00000000000E+00 0.  1.
         24    2    1    2    0    0 -0.78408106795E+02  0.56323495610E+02 -0.31612084323E+03  0.34008969757E+03  0.80052779445E+02 0.  0.
         25    2    1    2    0    0 -0.11632891329E+03 -0.13205320927E+03  0.16139040118E+03  0.26956506633E+03  0.12509195518E+03 0.  0.
        -24    2    1    2    0    0  0.19473702008E+03  0.75729713657E+02  0.22674151331E+03  0.31834342902E+03  0.79204345961E+02 0.  0.
        -11    1    3    3    0    0 -0.81026927711E+02  0.54164912799E+02 -0.32024553912E+03  0.33474827276E+03  0.00000000000E+00 0.  1.
         12    1    3    3    0    0  0.26188209156E+01  0.21585828106E+01  0.41246958888E+01  0.53414248019E+01  0.00000000000E+00 0. -1.
         11    1    5    5    0    0  0.15393378249E+03  0.42614880633E+02  0.12140347230E+03  0.20062512437E+03  0.00000000000E+00 0. -1.
        -12    1    5    5    0    0  0.40803237592E+02  0.33114833024E+02  0.10533804102E+03  0.11771830465E+03  0.00000000000E+00 0.  1.
          5    1    4    4  501    0 -0.10885431609E+03 -0.15290542516E+03  0.12113868098E+03  0.22343093699E+03  0.41800000000E+01 0.  1.
         -5    1    4    4    0  501 -0.74745971934E+01  0.20852215897E+02  0.40251720199E+02  0.46134129340E+02  0.41800000000E+01 0.  1.
</event>
<event>
11    1  0.6455215E-009  0.1269780E+03  0.7561462E-02  0.1123039E+00
         22   -1    0    0    0    0  0.00000000000E+00  0.00000000000E+00  0.78076964863E+02  0.78076964863E+02  0.00000000000E+00 0. -1.
         22   -1    0    0    0    0 -0.00000000000E+00 -0.00000000000E+00 -0.63521876976E+03  0.63521876976E+03  0.00000000000E+00 0. -1.
        -24    2    1    2    0    0  0.69833765575E+01  0.14573030995E+01 -0.43466364751E+03  0.44202876160E+03  0.80037793138E+02 0.  0.
         25    2    1    2    0    0  0.59236449879E+01  0.17226314039E+02 -0.13736436838E+03  0.18667753690E+03  0.12509075752E+03 0.  0.
         24    2    1    2    0    0 -0.12907021545E+02 -0.18683617138E+02  0.14886210995E+02  0.84589436123E+02  0.80113074285E+02 0.  0.
        -13    1    5    5    0    0  0.10236983397E+02  0.19785402223E+02  0.29868476157E+02  0.37261023042E+02  0.00000000000E+00 0.  1.
         14    1    5    5    0    0 -0.23144004943E+02 -0.38469019361E+02 -0.14982265162E+02  0.47328413081E+02  0.00000000000E+00 0. -1.
         13    1    3    3    0    0  0.19622844548E+01 -0.38894328058E+02 -0.24281424777E+03  0.24591742158E+03  0.00000000000E+00 0. -1.
        -14    1    3    3    0    0  0.50210921027E+01  0.40351631157E+02 -0.19184939974E+03  0.19611134002E+03  0.00000000000E+00 0.  1.
          5    1    4    4  501    0  0.18454916448E+02  0.36152851854E+02 -0.15329487990E+03  0.15863292609E+03  0.41800000000E+01 0. -1.
         -5    1    4    4    0  501 -0.12531271460E+02 -0.18926537815E+02  0.15930511519E+02  0.28044610807E+02  0.41800000000E+01 0. -1.
</event>
<event>
11    1  0.6455215E-009  0.1387964E+03  0.7561462E-02  0.1108910E+00
         22   -1    0    0    0    0  0.00000000000E+00  0.00000000000E+00  0.64282173909E+03  0.64282173909E+03  0.00000000000E+00 0.  1.
         22   -1    0    0    0    0 -0.00000000000E+00 -0.00000000000E+00 -0.98297560531E+03  0.98297560531E+03  0.00000000000E+00 0. -1.
        -24    2    1    2    0    0  0.31962193827E+02  0.50295716798E+02 -0.93941451055E+03  0.94466571062E+03  0.79639445178E+02 0.  0.
         25    2    1    2    0    0 -0.66510602414E+02 -0.71354474860E+02  0.13520208306E+03  0.20842846116E+03  0.12509076241E+03 0.  0.
         24    2    1    2    0    0  0.34548408587E+02  0.21058758062E+02  0.46405856128E+03  0.47270317262E+03  0.80379582528E+02 0.  0.
        -13    1    5    5    0    0  0.11332390789E+02  0.50901822946E+02  0.27506792455E+03  0.27996746556E+03  0.00000000000E+00 0.  1.
         14    1    5    5    0    0  0.23216017798E+02 -0.29843064884E+02  0.18899063673E+03  0.19273570706E+03  0.00000000000E+00 0. -1.
         11    1    3    3    0    0  0.86781311953E+01  0.69009318036E+02 -0.66959416578E+03  0.67319680836E+03  0.00000000000E+00 0. -1.
        -12    1    3    3    0    0  0.23284062632E+02 -0.18713601238E+02 -0.26982034476E+03  0.27146890226E+03  0.00000000000E+00 0.  1.
          5    1    4    4  501    0 -0.81849261136E+01  0.12055457861E+02  0.99255682244E+02  0.10040662298E+03  0.41800000000E+01 0.  1.
         -5    1    4    4    0  501 -0.58325676300E+02 -0.83409932721E+02  0.35946400813E+02  0.10802183818E+03  0.41800000000E+01 0.  1.
</event>
<event>
11    1  0.6455215E-009  0.1533653E+03  0.7561462E-02  0.1093489E+00
         22   -1    0    0    0    0  0.00000000000E+00  0.00000000000E+00  0.26159776728E+03  0.26159776728E+03  0.00000000000E+00 0. -1.
         22   -1    0    0    0    0 -0.00000000000E+00 -0.00000000000E+00 -0.47632198115E+03  0.47632198115E+03  0.00000000000E+00 0. -1.
         24    2    1    2    0    0 -0.22096109810E+02  0.55167195761E+02 -0.34715338123E+03  0.36136909754E+03  0.80873339228E+02 0.  0.
         25    2    1    2    0    0 -0.30801025296E+02  0.26929275942E+02 -0.61428947328E+02  0.14524268932E+03  0.12509210275E+03 0.  0.
        -24    2    1    2    0    0  0.52897135106E+02 -0.82096471702E+02  0.19385811470E+03  0.23130796157E+03  0.79902859048E+02 0.  0.
        -13    1    3    3    0    0 -0.19147931735E+02  0.25061245299E+02 -0.32581250305E+02  0.45345861742E+02  0.00000000000E+00 0.  1.
         14    1    3    3    0    0 -0.29481780749E+01  0.30105950462E+02 -0.31457213093E+03  0.31602323580E+03  0.00000000000E+00 0. -1.
         11    1    5    5    0    0  0.54827409743E+02 -0.16239496240E+02  0.11589451417E+03  0.12923352704E+03  0.00000000000E+00 0. -1.
        -12    1    5    5    0    0 -0.19302746372E+01 -0.65856975462E+02  0.77963600530E+02  0.10207443453E+03  0.00000000000E+00 0.  1.
          5    1    4    4  501    0  0.18981469441E+02 -0.41955919047E+02 -0.26188393975E+02  0.53140377344E+02  0.41800000000E+01 0.  1.
         -5    1    4    4    0  501 -0.49782494737E+02  0.68885194989E+02 -0.35240553353E+02  0.92102311977E+02  0.41800000000E+01 0.  1.
</event>
<event>
11    1  0.6455215E-009  0.1870721E+03  0.7561462E-02  0.1064062E+00
         22   -1    0    0    0    0  0.00000000000E+00  0.00000000000E+00  0.69591172791E+03  0.69591172791E+03  0.00000000000E+00 0.  1.
         22   -1    0    0    0    0 -0.00000000000E+00 -0.00000000000E+00 -0.34748904827E+03  0.34748904827E+03  0.00000000000E+00 0.  1.
        -24    2    1    2    0    0  0.22396196304E+01 -0.55644682673E+02 -0.21934845746E+03  0.24077858949E+03  0.82214577546E+02 0.  0.
         25    2    1    2    0    0 -0.16252283769E+02  0.18886377203E+03  0.14512659756E+02  0.22757027464E+03  0.12507578301E+03 0.  0.
         24    2    1    2    0    0  0.14012664138E+02 -0.13321908935E+03  0.55325847734E+03  0.57505191204E+03  0.81523482902E+02 0.  0.
        -11    1    5    5    0    0 -0.26251059113E+00 -0.13861793691E+03  0.52433490208E+03  0.54234868018E+03  0.00000000000E+00 0.  1.
         12    1    5    5    0    0  0.14275174730E+02  0.53988475606E+01  0.28923575261E+02  0.32703231865E+02  0.00000000000E+00 0. -1.
         13    1    3    3    0    0 -0.17789802738E+01 -0.44227118487E+02 -0.36063728859E+02  0.57094617257E+02  0.00000000000E+00 0. -1.
        -14    1    3    3    0    0  0.40185999042E+01 -0.11417564186E+02 -0.18328472860E+03  0.18368397223E+03  0.00000000000E+00 0.  1.
          5    1    4    4  501    0  0.19238926740E+02  0.19032508767E+03  0.12198822720E+02  0.19172912917E+03  0.41800000000E+01 0. -1.
         -5    1    4    4    0  501 -0.35491210509E+02 -0.14613156409E+01  0.23138370364E+01  0.35841145470E+02  0.41800000000E+01 0. -1.
</event>
<event>
11    1  0.6455215E-009  0.1538278E+03  0.7561462E-02  0.1093031E+00
         22   -1    0    0    0    0  0.00000000000E+00  0.00000000000E+00  0.28882078429E+03  0.28882078429E+03  0.00000000000E+00 0.  1.
         22   -1    0    0    0    0 -0.00000000000E+00 -0.00000000000E+00 -0.32331616083E+03  0.32331616083E+03  0.00000000000E+00 0.  1.
         24    2    1    2    0    0  0.15001085424E+02 -0.38913463804E+02 -0.24027723298E+03  0.25733376536E+03  0.82147598108E+02 0.  0.
         25    2    1    2    0    0 -0.44691599379E+02 -0.56225032752E+02  0.52451486119E+02  0.15348314772E+03  0.12508926763E+03 0.  0.
        -24    2    1    2    0    0  0.29690513955E+02  0.95138496557E+02  0.15333037032E+03  0.20132003203E+03  0.84182496332E+02 0.  0.
        -11    1    3    3    0    0  0.37476286374E+02 -0.40782435698E+02 -0.22046086045E+03  0.22731183448E+03  0.00000000000E+00 0.  1.
         12    1    3    3    0    0 -0.22475200950E+02  0.18689718931E+01 -0.19816372533E+02  0.30021930885E+02  0.00000000000E+00 0. -1.
         11    1    5    5    0    0  0.37797030975E+01  0.28196773781E+02 -0.36735472887E+01  0.28685173119E+02  0.00000000000E+00 0. -1.
        -12    1    5    5    0    0  0.25910810858E+02  0.66941722776E+02  0.15700391761E+03  0.17263485891E+03  0.00000000000E+00 0.  1.
          5    1    4    4  501    0  0.18364190511E+02  0.81216553003E+01 -0.26575312436E+02  0.33569694801E+02  0.41800000000E+01 0. -1.
         -5    1    4    4    0  501 -0.63055789891E+02 -0.64346688053E+02  0.79026798555E+02  0.11991345292E+03  0.41800000000E+01 0. -1.
</event>
<event>
11    1  0.6455215E-009  0.1662701E+03  0.7561462E-02  0.1081324E+00
         22   -1    0    0    0    0  0.00000000000E+00  0.00000000000E+00  0.77186481973E+03  0.77186481973E+03  0.00000000000E+00 0. -1.
         22   -1    0    0    0    0 -0.00000000000E+00 -0.00000000000E+00 -0.24592122921E+03  0.24592122921E+03  0.00000000000E+00 0. -1.
        -24    2    1    2    0    0 -0.61813857798E+01 -0.38547993731E+02 -0.94823799840E+02  0.13184240566E+03  0.82865611458E+02 0.  0.
         25    2    1    2    0    0 -0.25507236620E+02  0.14153101434E+03 -0.53734879100E+02  0.19803996077E+03  0.12510292439E+03 0.  0.
         24    2    1    2    0    0  0.31688622399E+02 -0.10298302061E+03  0.67450226946E+03  0.68790368252E+03  0.81538295230E+02 0.  0.
        -13    1    5    5    0    0 -0.24105942984E+02 -0.12270114464E+02  0.98905604894E+02  0.10253765589E+03  0.00000000000E+00 0.  1.
         14    1    5    5    0    0  0.55794565383E+02 -0.90712906142E+02  0.57559666457E+03  0.58536602663E+03  0.00000000000E+00 0. -1.
         13    1    3    3    0    0 -0.29450648086E+02 -0.45857286147E+01 -0.84207144525E+02  0.89326439360E+02  0.00000000000E+00 0. -1.
        -14    1    3    3    0    0  0.23269262306E+02 -0.33962265116E+02 -0.10616655315E+02  0.42515966297E+02  0.00000000000E+00 0.  1.
          5    1    4    4  501    0 -0.22575026957E+02  0.28091548620E+02 -0.74257217042E+02  0.82646074491E+02  0.41800000000E+01 0.  1.
         -5    1    4    4    0  501 -0.29322096629E+01  0.11343946572E+03  0.20522337942E+02  0.11539388628E+03  0.41800000000E+01 0.  1.
</event>
<event>
11    1  0.6455215E-009  0.1286071E+03  0.7561462E-02  0.1120992E+00
         22   -1    0    0    0    0  0.00000000000E+00  0.00000000000E+00  0.42914173015E+03  0.42914173015E+03  0.00000000000E+00 0. -1.
         22   -1    0    0    0    0 -0.00000000000E+00 -0.00000000000E+00 -0.72735855073E+03  0.72735855073E+03  0.00000000000E+00 0.  1.
        -24    2    1    2    0    0 -0.13177444836E+02  0.27634698943E+02 -0.61947090497E+03  0.62527036613E+03  0.79255958883E+02 0.  0.
         25    2    1    2    0    0 -0.14153538775E+01 -0.22369988982E+02 -0.60760345851E+02  0.14085887988E+03  0.12508790821E+03 0.  0.
         24    2    1    2    0    0  0.14592798713E+02 -0.52647099612E+01  0.38201443024E+03  0.39037103487E+03  0.78827996345E+02 0.  0.
        -11    1    5    5    0    0  0.30688627583E+02  0.25817160396E+02  0.13318801190E+03  0.13909480274E+03  0.00000000000E+00 0.  1.
         12    1    5    5    0    0 -0.16095828869E+02 -0.31081870357E+02  0.24882641834E+03  0.25127623213E+03  0.00000000000E+00 0. -1.
         11    1    3    3    0    0 -0.38493105588E+02 -0.80355190249E+01 -0.22833090181E+03  0.23169223005E+03  0.00000000000E+00 0. -1.
        -12    1    3    3    0    0  0.25315660752E+02  0.35670217968E+02 -0.39114000316E+03  0.39357813608E+03  0.00000000000E+00 0.  1.
          5    1    4    4  501    0  0.45600041887E+02  0.26933299736E+02 -0.62160489885E+01  0.53487177153E+02  0.41800000000E+01 0. -1.
         -5    1    4    4    0  501 -0.47015395764E+02 -0.49303288719E+02 -0.54544296863E+02  0.87371702728E+02  0.41800000000E+01 0. -1.
</event>
<event>
11    1  0.6455215E-009  0.1538484E+03  0.7561462E-02  0.1093010E+00
         22   -1    0    0    0    0  0.00000000000E+00  0.00000000000E+00  0.25406899222E+03  0.25406899222E+03  0.00000000000E+00 0. -1.
         22   -1    0    0    0    0 -0.00000000000E+00 -0.00000000000E+00 -0.10896153720E+04  0.10896153720E+04  0.00000000000E+00 0.  1.
        -24    2    1    2    0    0 -0.91652239426E+02 -0.11037384307E+02 -0.92729108308E+03  0.93529549799E+03  0.79918451905E+02 0.  0.
         25    2    1    2    0    0  0.66529142444E+02 -0.61546227644E+02 -0.10204916116E+03  0.18513611524E+03  0.12508910800E+03 0.  0.
         24    2    1    2    0    0  0.25123096981E+02  0.72583611951E+02  0.19379386443E+03  0.22325275103E+03  0.79913567209E+02 0.  0.
        -11    1    5    5    0    0 -0.27527942797E+01  0.60985226811E+02  0.58222861151E+02  0.84360401411E+02  0.00000000000E+00 0.  1.
         12    1    5    5    0    0  0.27875891261E+02  0.11598385140E+02  0.13557100328E+03  0.13889234962E+03  0.00000000000E+00 0. -1.
         11    1    3    3    0    0 -0.80264990908E+02  0.74721746451E+01 -0.42760991547E+03  0.43514197909E+03  0.00000000000E+00 0. -1.
        -12    1    3    3    0    0 -0.11387248517E+02 -0.18509558952E+02 -0.49968116762E+03  0.50015351890E+03  0.00000000000E+00 0.  1.
          5    1    4    4  501    0  0.61250350879E+02  0.51879848958E+01  0.16524866154E+01  0.61633787666E+02  0.41800000000E+01 0. -1.
         -5    1    4    4    0  501  0.52787915656E+01 -0.66734212540E+02 -0.10370164778E+03  0.12350232757E+03  0.41800000000E+01 0. -1.
</event>
<event>
11    1  0.6455215E-009  0.1358302E+03  0.7561462E-02  0.1112306E+00
         22   -1    0    0    0    0  0.00000000000E+00  0.00000000000E+00  0.16002756643E+03  0.16002756643E+03  0.00000000000E+00 0.  1.
         22   -1    0    0    0    0 -0.00000000000E+00 -0.00000000000E+00 -0.67882015085E+03  0.67882015085E+03  0.00000000000E+00 0. -1.
        -24    2    1    2    0    0 -0.23489940146E+02 -0.33867499750E+02 -0.45354849305E+03  0.46276716430E+03  0.82148816027E+02 0.  0.
         25    2    1    2    0    0 -0.22267822475E+02  0.13090089403E+01 -0.18231622916E+03  0.22222504745E+03  0.12508874799E+03 0.  0.
         24    2    1    2    0    0  0.45757762622E+02  0.32558490810E+02  0.11707213780E+03  0.15385550554E+03  0.82533647506E+02 0.  0.
        -13    1    5    5    0    0  0.51009450282E+02  0.53210814757E+02  0.10785697518E+03  0.13063874586E+03  0.00000000000E+00 0.  1.
         14    1    5    5    0    0 -0.52516876608E+01 -0.20652323947E+02  0.92151626213E+01  0.23216759676E+02  0.00000000000E+00 0. -1.
         13    1    3    3    0    0 -0.39197268543E+02 -0.33374305048E+02 -0.43671277156E+03  0.43973664271E+03  0.00000000000E+00 0. -1.
        -14    1    3    3    0    0  0.15707328397E+02 -0.49319470213E+00 -0.16835721489E+02  0.23030521584E+02  0.00000000000E+00 0.  1.
          5    1    4    4  501    0 -0.28784368041E+02 -0.45558077897E+02 -0.16160398817E+03  0.17040363757E+03  0.41800000000E+01 0. -1.
         -5    1    4    4    0  501  0.65165455662E+01  0.46867086838E+02 -0.20712240996E+02  0.51821409879E+02  0.41800000000E+01 0. -1.
</event>
<event>
11    1  0.6455215E-009  0.1651696E+03  0.7561462E-02  0.1082313E+00
         22   -1    0    0    0    0  0.00000000000E+00  0.00000000000E+00  0.65123941998E+03  0.65123941998E+03  0.00000000000E+00 0.  1.
         22   -1    0    0    0    0 -0.00000000000E+00 -0.00000000000E+00 -0.39040603889E+03  0.39040603889E+03  0.00000000000E+00 0. -1.
         24    2    1    2    0    0 -0.45197982948E+02 -0.11917943442E+03 -0.26223029811E+03  0.30221261265E+03  0.79505589408E+02 0.  0.
         25    2    1    2    0    0  0.40074197589E+02  0.49513647354E+02 -0.55407408176E+02  0.15091062157E+03  0.12508593940E+03 0.  0.
        -24    2    1    2    0    0  0.51237853591E+01  0.69665787062E+02  0.57847108738E+03  0.58852222466E+03  0.82764937751E+02 0.  0.
        -11    1    3    3    0    0 -0.25311362185E+01  0.91185582948E+01 -0.31497861940E+01  0.99737610258E+01  0.00000000000E+00 0.  1.
         12    1    3    3    0    0 -0.42666846730E+02 -0.12829799271E+03 -0.25908051191E+03  0.29223885162E+03  0.00000000000E+00 0. -1.
         11    1    5    5    0    0  0.11903616927E+02  0.72724142670E+02  0.26757450903E+03  0.27753669110E+03  0.00000000000E+00 0. -1.
        -12    1    5    5    0    0 -0.67798315682E+01 -0.30583556083E+01  0.31089657835E+03  0.31098553356E+03  0.00000000000E+00 0.  1.
          5    1    4    4  501    0  0.57924773298E+02  0.18299020080E+02 -0.84719315678E+02  0.10433105169E+03  0.41800000000E+01 0. -1.
         -5    1    4    4    0  501 -0.17850575709E+02  0.31214627274E+02  0.29311907502E+02  0.46579569882E+02  0.41800000000E+01 0. -1.
</event>
<event>
11    1  0.6455215E-009  0.1473616E+03  0.7561462E-02  0.1099606E+00
         22   -1    0    0    0    0  0.00000000000E+00  0.00000000000E+00  0.78580684531E+03  0.78580684531E+03  0.00000000000E+00 0.  1.
         22   -1    0    0    0    0 -0.00000000000E+00 -0.00000000000E+00 -0.17033605992E+03  0.17033605992E+03  0.00000000000E+00 0.  1.
        -24    2    1    2    0    0  0.63058660795E+02  0.47161496677E+02 -0.11131150768E+03  0.15824033271E+03  0.80306598012E+02 0.  0.
         25    2    1    2    0    0 -0.50849628090E+02 -0.52139770141E+02  0.12690272671E+03  0.19250359055E+03  0.12509632296E+03 0.  0.
         24    2    1    2    0    0 -0.12209032704E+02  0.49782734637E+01  0.59987956636E+03  0.60539898197E+03  0.80489686013E+02 0.  0.
        -13    1    5    5    0    0 -0.41909578704E+01 -0.69808915999E+01  0.58363545117E+03  0.58369224497E+03  0.00000000000E+00 0.  1.
         14    1    5    5    0    0 -0.80180748338E+01  0.11959165064E+02  0.16244115183E+02  0.21706736999E+02  0.00000000000E+00 0. -1.
         11    1    3    3    0    0 -0.11413601931E+02  0.19052520616E+02 -0.58864452329E+02  0.62914963235E+02  0.00000000000E+00 0. -1.
        -12    1    3    3    0    0  0.74472262725E+02  0.28108976061E+02 -0.52447055349E+02  0.95325369474E+02  0.00000000000E+00 0.  1.
          5    1    4    4  501    0  0.86205210144E+01 -0.77829707012E+02  0.82697199969E+02  0.11396524013E+03  0.41800000000E+01 0.  1.
         -5    1    4    4    0  501 -0.59470149105E+02  0.25689936871E+02  0.44205526744E+02  0.78538350414E+02  0.41800000000E+01 0.  1.
</event>
<event>
11    1  0.6455215E-009  0.1437134E+03  0.7561462E-02  0.1103481E+00
         22   -1    0    0    0    0  0.00000000000E+00  0.00000000000E+00  0.13497916943E+04  0.13497916943E+04  0.00000000000E+00 0. -1.
         22   -1    0    0    0    0 -0.00000000000E+00 -0.00000000000E+00 -0.65065965274E+03  0.65065965274E+03  0.00000000000E+00 0.  1.
        -24    2    1    2    0    0  0.60313679267E+02 -0.30878528221E+02 -0.50694192482E+03  0.51810920740E+03  0.82799832324E+02 0.  0.
         25    2    1    2    0    0 -0.62684284213E+02  0.10104498025E+03 -0.81071904704E+02  0.19068289863E+03  0.12509159275E+03 0.  0.
         24    2    1    2    0    0  0.23706049463E+01 -0.70166452027E+02  0.12871458711E+04  0.12916592410E+04  0.81915509515E+02 0.  0.
        -11    1    5    5    0    0 -0.35383580351E+02 -0.31883384037E+02  0.38893350825E+03  0.39183902533E+03  0.00000000000E+00 0.  1.
         12    1    5    5    0    0  0.37754185298E+02 -0.38283067991E+02  0.89821236280E+03  0.89982021565E+03  0.00000000000E+00 0. -1.
         11    1    3    3    0    0  0.41417763683E+01  0.84368029130E+01 -0.29915253458E+03  0.29930013849E+03  0.00000000000E+00 0. -1.
        -12    1    3    3    0    0  0.56171902899E+02 -0.39315331135E+02 -0.20778939025E+03  0.21880906891E+03  0.00000000000E+00 0.  1.
          5    1    4    4  501    0  0.17751010002E+02  0.33205808172E+01  0.21013873320E+02  0.28021061453E+02  0.41800000000E+01 0.  1.
         -5    1    4    4    0  501 -0.80435294215E+02  0.97724399432E+02 -0.10208577802E+03  0.16266183718E+03  0.41800000000E+01 0.  1.
</event>
<event>
11    1  0.6455215E-009  0.1390906E+03  0.7561462E-02  0.1108578E+00
         22   -1    0    0    0    0  0.00000000000E+00  0.00000000000E+00  0.50132182719E+03  0.50132182719E+03  0.00000000000E+00 0. -1.
         22   -1    0    0    0    0 -0.00000000000E+00 -0.00000000000E+00 -0.71449378710E+03  0.71449378710E+03  0.00000000000E+00 0. -1.
        -24    2    1    2    0    0 -0.24534117810E+02 -0.55533357366E+02 -0.53407740612E+03  0.54305050488E+03  0.77325923274E+02 0.  0.
         25    2    1    2    0    0  0.41274754755E+02  0.48601856363E+02 -0.14300141980E+03  0.20040584822E+03  0.12508937650E+03 0.  0.
         24    2    1    2    0    0 -0.16740636945E+02  0.69315010029E+01  0.46390686600E+03  0.47235926119E+03  0.87094182770E+02 0.  0.
        -13    1    5    5    0    0  0.99902638916E+01  0.31454739346E+02  0.37336442461E+03  0.37482022299E+03  0.00000000000E+00 0.  1.
         14    1    5    5    0    0 -0.26730900837E+02 -0.24523238343E+02  0.90542441397E+02  0.97539038197E+02  0.00000000000E+00 0. -1.
         11    1    3    3    0    0  0.22882479037E+01 -0.21991032606E+01 -0.33963523893E+03  0.33965006647E+03  0.00000000000E+00 0. -1.
        -12    1    3    3    0    0 -0.26822365714E+02 -0.53334254105E+02 -0.19444216719E+03  0.20340043841E+03  0.00000000000E+00 0.  1.
          5    1    4    4  501    0 -0.19294375864E+02 -0.21728435053E+02 -0.87238060068E+02  0.92045365740E+02  0.41800000000E+01 0.  1.
         -5    1    4    4    0  501  0.60569130619E+02  0.70330291416E+02 -0.55763359731E+02  0.10836048248E+03  0.41800000000E+01 0.  1.
</event>
<event>
11    1  0.6455215E-009  0.1729605E+03  0.7561462E-02  0.1075484E+00
         22   -1    0    0    0    0  0.00000000000E+00  0.00000000000E+00  0.99183871280E+03  0.99183871280E+03  0.00000000000E+00 0.  1.
         22   -1    0    0    0    0 -0.00000000000E+00 -0.00000000000E+00 -0.48132736683E+03  0.48132736683E+03  0.00000000000E+00 0.  1.
         24    2    1    2    0    0 -0.10834641371E+03  0.46835454942E+02 -0.41738773918E+03  0.44129121788E+03  0.81196729973E+02 0.  0.
         25    2    1    2    0    0  0.99380936689E+02 -0.13710008587E+03  0.18794530576E+03  0.28221435301E+03  0.12509396053E+03 0.  0.
        -24    2    1    2    0    0  0.89654770197E+01  0.90264630932E+02  0.73995377939E+03  0.74966050875E+03  0.78937946250E+02 0.  0.
        -11    1    3    3    0    0 -0.37813807159E+02  0.56390443607E+02 -0.15106566515E+03  0.16562186247E+03  0.00000000000E+00 0.  1.
         12    1    3    3    0    0 -0.70532606549E+02 -0.95549886649E+01 -0.26632207404E+03  0.27566935541E+03  0.00000000000E+00 0. -1.
         13    1    5    5    0    0 -0.49078097754E+01 -0.93689170442E+01  0.19197793745E+02  0.21918450859E+02  0.00000000000E+00 0. -1.
        -14    1    5    5    0    0  0.13873286795E+02  0.99633547977E+02  0.72075598565E+03  0.72774205789E+03  0.00000000000E+00 0.  1.
          5    1    4    4  501    0  0.82997085977E+02 -0.13493890465E+03  0.88889666530E+02  0.18170269532E+03  0.41800000000E+01 0. -1.
         -5    1    4    4    0  501  0.16383850713E+02 -0.21611812205E+01  0.99055639228E+02  0.10051165769E+03  0.41800000000E+01 0. -1.
</event>
<event>
11    1  0.6455215E-009  0.1905380E+03  0.7561462E-02  0.1061424E+00
         22   -1    0    0    0    0  0.00000000000E+00  0.00000000000E+00  0.33831440719E+03  0.33831440719E+03  0.00000000000E+00 0.  1.
         22   -1    0    0    0    0 -0.00000000000E+00 -0.00000000000E+00 -0.58629120862E+03  0.58629120862E+03  0.00000000000E+00 0.  1.
         24    2    1    2    0    0  0.15025020538E+03  0.31864770689E+02 -0.48820543512E+03  0.51782337730E+03  0.78778267117E+02 0.  0.
         25    2    1    2    0    0 -0.90928994045E+02  0.76180644581E+01  0.12842604625E+02  0.15536120018E+03  0.12508418430E+03 0.  0.
        -24    2    1    2    0    0 -0.59321211336E+02 -0.39482835147E+02  0.22738602907E+03  0.25142103834E+03  0.80188726861E+02 0.  0.
        -13    1    3    3    0    0  0.12591128127E+03  0.61430745619E+01 -0.44190205134E+03  0.45953107739E+03  0.00000000000E+00 0.  1.
         14    1    3    3    0    0  0.24338924108E+02  0.25721696127E+02 -0.46303383782E+02  0.58292299904E+02  0.00000000000E+00 0. -1.
         11    1    5    5    0    0 -0.43418330301E+02 -0.43951379467E+02  0.70797462643E+02  0.93963588053E+02  0.00000000000E+00 0. -1.
        -12    1    5    5    0    0 -0.15902881035E+02  0.44685443197E+01  0.15658856643E+03  0.15745745028E+03  0.00000000000E+00 0.  1.
          5    1    4    4  501    0 -0.74559798200E+02  0.60060295402E+02 -0.86479018170E+01  0.96221937194E+02  0.41800000000E+01 0. -1.
         -5    1    4    4    0  501 -0.16369195845E+02 -0.52442230944E+02  0.21490506442E+02  0.59139262983E+02  0.41800000000E+01 0. -1.
</event>
<event>
11    1  0.6455215E-009  0.1351483E+03  0.7561462E-02  0.1113100E+00
         22   -1    0    0    0    0  0.00000000000E+00  0.00000000000E+00  0.56287319209E+03  0.56287319209E+03  0.00000000000E+00 0. -1.
         22   -1    0    0    0    0 -0.00000000000E+00 -0.00000000000E+00 -0.67783763255E+03  0.67783763255E+03  0.00000000000E+00 0. -1.
        -24    2    1    2    0    0 -0.29278053837E+02  0.38372072280E+02 -0.64416111347E+03  0.65087911119E+03  0.79815142100E+02 0.  0.
         25    2    1    2    0    0 -0.62519805956E+01 -0.72123892662E+02  0.19534642845E+03  0.24299948885E+03  0.12509029268E+03 0.  0.
         24    2    1    2    0    0  0.35530034433E+02  0.33751820381E+02  0.33385024456E+03  0.34683222459E+03  0.80218685465E+02 0.  0.
        -13    1    5    5    0    0  0.13686397427E+02  0.39185755949E+02  0.65529900538E+02  0.77569380611E+02  0.00000000000E+00 0.  1.
         14    1    5    5    0    0  0.21843637006E+02 -0.54339355677E+01  0.26832034402E+03  0.26926284398E+03  0.00000000000E+00 0. -1.
         11    1    3    3    0    0 -0.54248974213E+01  0.33190208407E+02 -0.59540506106E+03  0.59635409463E+03  0.00000000000E+00 0. -1.
        -12    1    3    3    0    0 -0.23853156416E+02  0.51818638730E+01 -0.48756052410E+02  0.54525016560E+02  0.00000000000E+00 0.  1.
          5    1    4    4  501    0  0.50914421331E+02 -0.66698410738E+02  0.13914387581E+03  0.16254060068E+03  0.41800000000E+01 0.  1.
         -5    1    4    4    0  501 -0.57166401927E+02 -0.54254819233E+01  0.56202552633E+02  0.80458888172E+02  0.41800000000E+01 0.  1.
</event>
<event>
11    1  0.6455215E-009  0.1975547E+03  0.7561462E-02  0.1056266E+00
         22   -1    0    0    0    0  0.00000000000E+00  0.00000000000E+00  0.12269298024E+04  0.12269298024E+04  0.00000000000E+00 0.  1.
         22   -1    0    0    0    0 -0.00000000000E+00 -0.00000000000E+00 -0.33693407805E+03  0.33693407805E+03  0.00000000000E+00 0. -1.
         24    2    1    2    0    0  0.84906893536E+01 -0.14997827081E+03 -0.27149672563E+03  0.32055707793E+03  0.80503382911E+02 0.  0.
         25    2    1    2    0    0  0.17585478622E+02  0.19122480499E+03  0.30515113338E+03  0.38164084852E+03  0.12512532900E+03 0.  0.
        -24    2    1    2    0    0 -0.26076167975E+02 -0.41246534182E+02  0.85634131663E+03  0.86166595402E+03  0.82258875711E+02 0.  0.
        -11    1    3    3    0    0 -0.20815865992E+01  0.39507719082E+00  0.51150268256E+01  0.55364779584E+01  0.00000000000E+00 0.  1.
         12    1    3    3    0    0  0.10572275953E+02 -0.15037334800E+03 -0.27661175245E+03  0.31502059997E+03  0.00000000000E+00 0. -1.
         13    1    5    5    0    0 -0.15269256493E+02  0.24272564135E+02  0.21734850260E+03  0.21923202126E+03  0.00000000000E+00 0. -1.
        -14    1    5    5    0    0 -0.10806911483E+02 -0.65519098318E+02  0.63899281404E+03  0.64243393277E+03  0.00000000000E+00 0.  1.
          5    1    4    4  501    0  0.33441341252E+02  0.20437503415E+03  0.28653006878E+03  0.35355965636E+03  0.41800000000E+01 0. -1.
         -5    1    4    4    0  501 -0.15855862631E+02 -0.13150229157E+02  0.18621064597E+02  0.28081192164E+02  0.41800000000E+01 0. -1.
</event>
<event>
11    1  0.6455215E-009  0.5737743E+03  0.7561462E-02  0.9242275E-01
         22   -1    0    0    0    0  0.00000000000E+00  0.00000000000E+00  0.72493736262E+03  0.72493736262E+03  0.00000000000E+00 0. -1.
         22   -1    0    0    0    0 -0.00000000000E+00 -0.00000000000E+00 -0.15205964257E+04  0.15205964257E+04  0.00000000000E+00 0.  1.
         24    2    1    2    0    0 -0.69504452062E+02  0.53796513526E+03 -0.91143805254E+03  0.10637259774E+04  0.80970832973E+02 0.  0.
         25    2    1    2    0    0  0.15784715209E+03 -0.58486179849E+03 -0.34140275338E+03  0.70652852930E+03  0.12509067085E+03 0.  0.
        -24    2    1    2    0    0 -0.88342700030E+02  0.46896663231E+02  0.45718174287E+03  0.47527928158E+03  0.82894630802E+02 0.  0.
        -13    1    3    3    0    0 -0.51555687196E+02  0.49260753749E+03 -0.86268979130E+03  0.99476321348E+03  0.00000000000E+00 0.  1.
         14    1    3    3    0    0 -0.17948764866E+02  0.45357597768E+02 -0.48748261238E+02  0.68962763933E+02  0.00000000000E+00 0. -1.
         13    1    5    5    0    0 -0.46634483160E+02  0.65145703449E+02  0.22927157314E+03  0.24286661349E+03  0.00000000000E+00 0. -1.
        -14    1    5    5    0    0 -0.41708216870E+02 -0.18249040218E+02  0.22791016973E+03  0.23241266809E+03  0.00000000000E+00 0.  1.
          5    1    4    4  501    0 -0.94655665800E+01 -0.17779062221E+03 -0.87775962402E+02  0.19854771283E+03  0.41800000000E+01 0. -1.
         -5    1    4    4    0  501  0.16731271867E+03 -0.40707117629E+03 -0.25362679098E+03  0.50798081646E+03  0.41800000000E+01 0. -1.
</event>
<event>
11    1  0.6455215E-009  0.1337414E+03  0.7561462E-02  0.1114756E+00
         22   -1    0    0    0    0  0.00000000000E+00  0.00000000000E+00  0.15601764845E+03  0.15601764845E+03  0.00000000000E+00 0.  1.
         22   -1    0    0    0    0 -0.00000000000E+00 -0.00000000000E+00 -0.35429536764E+03  0.35429536764E+03  0.00000000000E+00 0. -1.
        -24    2    1    2    0    0  0.44365842700E+02 -0.70439314602E+01 -0.21661865731E+03  0.23484028594E+03  0.78793224557E+02 0.  0.
         25    2    1    2    0    0 -0.61907430510E+02 -0.19347792719E+02 -0.65169488988E+02  0.15522544852E+03  0.12506402575E+03 0.  0.
         24    2    1    2    0    0  0.17541587809E+02  0.26391724179E+02  0.83510427111E+02  0.12024728162E+03  0.80505819004E+02 0.  0.
        -13    1    5    5    0    0  0.28347960013E+02 -0.66306378129E+01  0.80228064449E+02  0.85347024084E+02  0.00000000000E+00 0.  1.
         14    1    5    5    0    0 -0.10806372203E+02  0.33022361992E+02  0.32823626624E+01  0.34900257540E+02  0.00000000000E+00 0. -1.
         13    1    3    3    0    0  0.29649661940E+02  0.24138839990E+02 -0.18202551277E+03  0.18599750899E+03  0.00000000000E+00 0. -1.
        -14    1    3    3    0    0  0.14716180760E+02 -0.31182771451E+02 -0.34593144543E+02  0.48842776957E+02  0.00000000000E+00 0.  1.
          5    1    4    4  501    0 -0.31377136415E+02  0.11777808835E+02  0.33315061882E+02  0.47440565118E+02  0.41800000000E+01 0.  1.
         -5    1    4    4    0  501 -0.30530294095E+02 -0.31125601554E+02 -0.98484550870E+02  0.10778488340E+03  0.41800000000E+01 0.  1.
</event>
<event>
11    1  0.6455215E-009  0.2384242E+03  0.7561462E-02  0.1030253E+00
         22   -1    0    0    0    0  0.00000000000E+00  0.00000000000E+00  0.77341781257E+03  0.77341781257E+03  0.00000000000E+00 0. -1.
         22   -1    0    0    0    0 -0.00000000000E+00 -0.00000000000E+00 -0.27343832357E+03  0.27343832357E+03  0.00000000000E+00 0.  1.
        -24    2    1    2    0    0  0.35301821829E+02  0.38159889408E+02 -0.17866558695E+03  0.20209310378E+03  0.78853248831E+02 0.  0.
         25    2    1    2    0    0  0.81560866789E+02 -0.19946449823E+03  0.21379952463E+03  0.32832449418E+03  0.12509386758E+03 0.  0.
         24    2    1    2    0    0 -0.11686268862E+03  0.16130460882E+03  0.46484555132E+03  0.51643853818E+03  0.10464851801E+03 0.  0.
        -11    1    5    5    0    0  0.17570456118E+02  0.39434689397E+01  0.39628868191E+02  0.43528370858E+02  0.00000000000E+00 0.  1.
         12    1    5    5    0    0 -0.13443314474E+03  0.15736113988E+03  0.42521668313E+03  0.47291016732E+03  0.00000000000E+00 0. -1.
         11    1    3    3    0    0 -0.39637034453E+01 -0.18163438666E+02 -0.12779700197E+02  0.22559747035E+02  0.00000000000E+00 0. -1.
        -12    1    3    3    0    0  0.39265525274E+02  0.56323328074E+02 -0.16588588675E+03  0.17953335674E+03  0.00000000000E+00 0.  1.
          5    1    4    4  501    0  0.36025637882E+02 -0.38745766046E+02 -0.46723604842E+01  0.53276489409E+02  0.41800000000E+01 0. -1.
         -5    1    4    4    0  501  0.45535228908E+02 -0.16071873218E+03  0.21847188511E+03  0.27504800478E+03  0.41800000000E+01 0. -1.
</event>
<event>
11    1  0.6455215E-009  0.1590422E+03  0.7561462E-02  0.1087982E+00
         22   -1    0    0    0    0  0.00000000000E+00  0.00000000000E+00  0.59719870602E+03  0.59719870602E+03  0.00000000000E+00 0. -1.
         22   -1    0    0    0    0 -0.00000000000E+00 -0.00000000000E+00 -0.12385745720E+03  0.12385745720E+03  0.00000000000E+00 0. -1.
        -24    2    1    2    0    0  0.46281654027E+02 -0.98379419211E+02 -0.51997858568E+01  0.13473711047E+03  0.79413786851E+02 0.  0.
         25    2    1    2    0    0 -0.55264655394E+02  0.60975469201E+02  0.64174312033E+02  0.16291234157E+03  0.12509955528E+03 0.  0.
         24    2    1    2    0    0  0.89830013665E+01  0.37403950010E+02  0.41436672265E+03  0.42340671118E+03  0.78062234410E+02 0.  0.
        -13    1    5    5    0    0  0.40840866006E+02  0.17220965954E+02  0.15156897813E+03  0.15791672848E+03  0.00000000000E+00 0.  1.
         14    1    5    5    0    0 -0.31857864640E+02  0.20182984056E+02  0.26279774452E+03  0.26548998269E+03  0.00000000000E+00 0. -1.
         13    1    3    3    0    0  0.64780624742E+02 -0.88960504321E+02 -0.16216515386E+02  0.11123612742E+03  0.00000000000E+00 0. -1.
        -14    1    3    3    0    0 -0.18498970715E+02 -0.94189148904E+01  0.11016729529E+02  0.23500983059E+02  0.00000000000E+00 0.  1.
          5    1    4    4  501    0  0.99812493120E+01  0.47044841011E+02 -0.22660533464E+02  0.53327428032E+02  0.41800000000E+01 0.  1.
         -5    1    4    4    0  501 -0.65245904706E+02  0.13930628190E+02  0.86834845497E+02  0.10958491354E+03  0.41800000000E+01 0.  1.
</event>
<event>
11    1  0.6455215E-009  0.2106066E+03  0.7561462E-02  0.1047267E+00
         22   -1    0    0    0    0  0.00000000000E+00  0.00000000000E+00  0.36161711595E+03  0.36161711595E+03  0.00000000000E+00 0.  1.
         22   -1    0    0    0    0 -0.00000000000E+00 -0.00000000000E+00 -0.16353668799E+04  0.16353668799E+04  0.00000000000E+00 0.  1.
         24    2    1    2    0    0  0.91282801383E+02  0.85041582268E+02 -0.95191263877E+03  0.96204711926E+03  0.61906116737E+02 0.  0.
         25    2    1    2    0    0  0.11333092972E+02 -0.21919205176E+03 -0.62765912266E+03  0.67659217139E+03  0.12508955819E+03 0.  0.
        -24    2    1    2    0    0 -0.10261589435E+03  0.13415046950E+03  0.30582199746E+03  0.35834470522E+03  0.79733702957E+02 0.  0.
        -13    1    3    3    0    0  0.71762588807E+02  0.92235164762E+02 -0.74771886355E+03  0.75679633567E+03  0.00000000000E+00 0.  1.
         14    1    3    3    0    0  0.19520212576E+02 -0.71935824943E+01 -0.20419377521E+03  0.20525078359E+03  0.00000000000E+00 0. -1.
         13    1    5    5    0    0  0.38875982773E+01  0.10197662745E+02 -0.74520897282E+00  0.10938970803E+02  0.00000000000E+00 0. -1.
        -14    1    5    5    0    0 -0.10650349263E+03  0.12395280675E+03  0.30656720644E+03  0.34740573442E+03  0.00000000000E+00 0.  1.
          5    1    4    4  501    0  0.52833115667E+02 -0.10432263035E+03 -0.19899748943E+03  0.23085064980E+03  0.41800000000E+01 0.  1.
         -5    1    4    4    0  501 -0.41500022695E+02 -0.11486942141E+03 -0.42866163324E+03  0.44574152159E+03  0.41800000000E+01 0.  1.
</event>
<event>
11    1  0.6455215E-009  0.4652500E+03  0.7561462E-02  0.9474710E-01
         22   -1    0    0    0    0  0.00000000000E+00  0.00000000000E+00  0.25178769824E+03  0.25178769824E+03  0.00000000000E+00 0.  1.
         22   -1    0    0    0    0 -0.00000000000E+00 -0.00000000000E+00 -0.88411576601E+03  0.88411576601E+03  0.00000000000E+00 0.  1.
        -24    2    1    2    0    0  0.16840201816E+03 -0.24099023441E+03 -0.59490072777E+03  0.66915043113E+03  0.86138787890E+02 0.  0.
         25    2    1    2    0    0 -0.11523184897E+03 -0.27483236475E+02  0.26876060712E+02  0.17433938808E+03  0.12505275803E+03 0.  0.
         24    2    1    2    0    0 -0.53170169181E+02  0.26847347089E+03 -0.64303400713E+02  0.29241364504E+03  0.80409831488E+02 0.  0.
        -13    1    5    5    0    0 -0.52463924903E+02  0.27419692638E+03 -0.64901616272E+02  0.28661583635E+03  0.00000000000E+00 0.  1.
         14    1    5    5    0    0 -0.70624427721E+00 -0.57234554908E+01  0.59821555871E+00  0.57978086885E+01  0.00000000000E+00 0. -1.
         13    1    3    3    0    0  0.40082702415E+02 -0.54228436753E+02 -0.22941662883E+03  0.23912201063E+03  0.00000000000E+00 0. -1.
        -14    1    3    3    0    0  0.12831931574E+03 -0.18676179766E+03 -0.36548409894E+03  0.43002842049E+03  0.00000000000E+00 0.  1.
          5    1    4    4  501    0 -0.41263228163E+02  0.49993235841E+02  0.13022881345E+02  0.66249871447E+02  0.41800000000E+01 0. -1.
         -5    1    4    4    0  501 -0.73968620812E+02 -0.77476472316E+02  0.13853179367E+02  0.10808951663E+03  0.41800000000E+01 0. -1.
</event>
<event>
11    1  0.6455215E-009  0.1703272E+03  0.7561462E-02  0.1077747E+00
         22   -1    0    0    0    0  0.00000000000E+00  0.00000000000E+00  0.32598924625E+03  0.32598924625E+03  0.00000000000E+00 0. -1.
         22   -1    0    0    0    0 -0.00000000000E+00 -0.00000000000E+00 -0.31482093895E+03  0.31482093895E+03  0.00000000000E+00 0. -1.
         24    2    1    2    0    0 -0.23778377717E+02  0.19463520103E+02 -0.17861968095E+03  0.19908850029E+03  0.82383254753E+02 0.  0.
         25    2    1    2    0    0  0.68568384519E+02 -0.12123832150E+03 -0.22972884487E+02  0.18861441817E+03  0.12508913368E+03 0.  0.
        -24    2    1    2    0    0 -0.44790006801E+02  0.10177480140E+03  0.21276087274E+03  0.25310726674E+03  0.80198781777E+02 0.  0.
        -11    1    3    3    0    0 -0.30119831935E+02  0.18094178710E+02 -0.20187033277E+02  0.40523078505E+02  0.00000000000E+00 0.  1.
         12    1    3    3    0    0  0.63414542180E+01  0.13693413923E+01 -0.15843264767E+03  0.15856542178E+03  0.00000000000E+00 0. -1.
         13    1    5    5    0    0 -0.24038650797E+02  0.10920942805E+03  0.19504778254E+03  0.22482925384E+03  0.00000000000E+00 0. -1.
        -14    1    5    5    0    0 -0.20751356004E+02 -0.74346266464E+01  0.17713090197E+02  0.28278012903E+02  0.00000000000E+00 0.  1.
          5    1    4    4  501    0  0.73698195854E+02 -0.13950043677E+03  0.91077834173E+00  0.15782933139E+03  0.41800000000E+01 0. -1.
         -5    1    4    4    0  501 -0.51298113356E+01  0.18262115262E+02 -0.23883662829E+02  0.30785086784E+02  0.41800000000E+01 0. -1.
</event>
<event>
11    1  0.6455215E-009  0.1734484E+03  0.7561462E-02  0.1075069E+00
         22   -1    0    0    0    0  0.00000000000E+00  0.00000000000E+00  0.28346507599E+03  0.28346507599E+03  0.00000000000E+00 0. -1.
         22   -1    0    0    0    0 -0.00000000000E+00 -0.00000000000E+00 -0.14648871838E+04  0.14648871838E+04  0.00000000000E+00 0.  1.
        -24    2    1    2    0    0  0.63502284886E+02  0.80615991242E+02 -0.81883005771E+03  0.82932956190E+03  0.82300550501E+02 0.  0.
         25    2    1    2    0    0 -0.14025862444E+03 -0.13026680171E+03 -0.60532254698E+03  0.64707441071E+03  0.12509190922E+03 0.  0.
         24    2    1    2    0    0  0.76756339555E+02  0.49650810472E+02  0.24273049688E+03  0.27194828718E+03  0.81737617673E+02 0.  0.
        -11    1    5    5    0    0  0.29781615366E+02  0.64390910692E+02  0.11580124857E+03  0.13580523983E+03  0.00000000000E+00 0.  1.
         12    1    5    5    0    0  0.46974724189E+02 -0.14740100219E+02  0.12692924831E+03  0.13614304735E+03  0.00000000000E+00 0. -1.
         11    1    3    3    0    0  0.23990836325E+02 -0.51266793455E+01 -0.62700812997E+02  0.67329302827E+02  0.00000000000E+00 0. -1.
        -12    1    3    3    0    0  0.39511448561E+02  0.85742670588E+02 -0.75612924471E+03  0.76200025907E+03  0.00000000000E+00 0.  1.
          5    1    4    4  501    0 -0.57940263354E+02  0.16385767080E+02 -0.15220883788E+03  0.16373933617E+03  0.41800000000E+01 0.  1.
         -5    1    4    4    0  501 -0.82318361086E+02 -0.14665256879E+03 -0.45311370910E+03  0.48333507454E+03  0.41800000000E+01 0.  1.
</event>
<event>
11    1  0.6455215E-009  0.2637651E+03  0.7561462E-02  0.1016812E+00
         22   -1    0    0    0    0  0.00000000000E+00  0.00000000000E+00  0.38798515598E+04  0.38798515598E+04  0.00000000000E+00 0.  1.
         22   -1    0    0    0    0 -0.00000000000E+00 -0.00000000000E+00 -0.16291461499E+03  0.16291461499E+03  0.00000000000E+00 0. -1.
        -24    2    1    2    0    0 -0.22648786529E+03 -0.81473160775E+02  0.33378350770E+02  0.25601458370E+03  0.80589848703E+02 0.  0.
         25    2    1    2    0    0  0.18689271250E+03  0.10987539659E+03  0.25650188212E+03  0.35839593149E+03  0.12511170775E+03 0.  0.
         24    2    1    2    0    0  0.39595152795E+02 -0.28402235819E+02  0.34270567120E+04  0.34283556597E+04  0.80810636362E+02 0.  0.
        -11    1    5    5    0    0  0.31012257316E+02 -0.56758586531E+02  0.22927999337E+04  0.22937120206E+04  0.00000000000E+00 0.  1.
         12    1    5    5    0    0  0.85828954793E+01  0.28356350712E+02  0.11342567783E+04  0.11346436391E+04  0.00000000000E+00 0. -1.
         11    1    3    3    0    0 -0.19873785927E+03 -0.40817218782E+02  0.38563491257E+02  0.20651858249E+03  0.00000000000E+00 0. -1.
        -12    1    3    3    0    0 -0.27750006026E+02 -0.40655941994E+02 -0.51851404873E+01  0.49496001209E+02  0.00000000000E+00 0.  1.
          5    1    4    4  501    0  0.31253190123E+02  0.80798868902E+02  0.57522928977E+02  0.10407487145E+03  0.41800000000E+01 0.  1.
         -5    1    4    4    0  501  0.15563952237E+03  0.29076527693E+02  0.19897895314E+03  0.25432106004E+03  0.41800000000E+01 0.  1.
</event>
<event>
11    1  0.6455215E-009  0.1524742E+03  0.7561462E-02  0.1094377E+00
         22   -1    0    0    0    0  0.00000000000E+00  0.00000000000E+00  0.43459539924E+03  0.43459539924E+03  0.00000000000E+00 0. -1.
         22   -1    0    0    0    0 -0.00000000000E+00 -0.00000000000E+00 -0.69338349191E+03  0.69338349191E+03  0.00000000000E+00 0. -1.
        -24    2    1    2    0    0  0.92090953891E+02 -0.10353779374E+02 -0.63195434525E+03  0.64374274030E+03  0.80314859566E+02 0.  0.
         25    2    1    2    0    0  0.38998016418E+01 -0.35756491240E+02  0.55119487203E+02  0.14134508256E+03  0.12508612783E+03 0.  0.
         24    2    1    2    0    0 -0.95990755533E+02  0.46110270614E+02  0.31804676539E+03  0.34289106830E+03  0.71275223906E+02 0.  0.
        -11    1    5    5    0    0 -0.24065621796E+02 -0.49168501923E+01  0.18831799780E+02  0.30951029889E+02  0.00000000000E+00 0.  1.
         12    1    5    5    0    0 -0.71925133737E+02  0.51027120806E+02  0.29921496561E+03  0.31194003841E+03  0.00000000000E+00 0. -1.
         13    1    3    3    0    0  0.87041700431E+02 -0.36735446672E+02 -0.52727352510E+03  0.53567072062E+03  0.00000000000E+00 0. -1.
        -14    1    3    3    0    0  0.50492534599E+01  0.26381667298E+02 -0.10468082015E+03  0.10807201968E+03  0.00000000000E+00 0.  1.
          5    1    4    4  501    0  0.47074359530E+02  0.24473314094E+02  0.37365627687E+02  0.65027693796E+02  0.41800000000E+01 0. -1.
         -5    1    4    4    0  501 -0.43174557888E+02 -0.60229805334E+02  0.17753859516E+02  0.76317388760E+02  0.41800000000E+01 0. -1.
</event>
<event>
11    1  0.6455215E-009  0.1385048E+03  0.7561462E-02  0.1109240E+00
         22   -1    0    0    0    0  0.00000000000E+00  0.00000000000E+00  0.10838539521E+03  0.10838539521E+03  0.00000000000E+00 0.  1.
         22   -1    0    0    0    0 -0.00000000000E+00 -0.00000000000E+00 -0.92691184436E+03  0.92691184436E+03  0.00000000000E+00 0. -1.
        -24    2    1    2    0    0  0.40929393155E+02  0.51146585859E+02 -0.57780185847E+03  0.58700486770E+03  0.80178167685E+02 0.  0.
         25    2    1    2    0    0 -0.13848448580E+02 -0.41665749370E+02 -0.31093793507E+03  0.33802052190E+03  0.12509060538E+03 0.  0.
         24    2    1    2    0    0 -0.27080944575E+02 -0.94808364884E+01  0.70213344400E+02  0.11027184998E+03  0.80041884951E+02 0.  0.
        -13    1    5    5    0    0 -0.49880917920E+02 -0.11127725677E+02  0.70902693213E+02  0.87402083249E+02  0.00000000000E+00 0.  1.
         14    1    5    5    0    0  0.22799973345E+02  0.16468891888E+01 -0.68934881357E+00  0.22869766731E+02  0.00000000000E+00 0. -1.
         13    1    3    3    0    0 -0.13152319875E+01  0.29892114284E-01 -0.34341890613E+03  0.34342142597E+03  0.00000000000E+00 0. -1.
        -14    1    3    3    0    0  0.42244625142E+02  0.51116693745E+02 -0.23438295235E+03  0.24358344173E+03  0.00000000000E+00 0.  1.
          5    1    4    4  501    0 -0.14720845562E+02  0.43748794524E+02 -0.12638402602E+03  0.13461446709E+03  0.41800000000E+01 0.  1.
         -5    1    4    4    0  501  0.87239698272E+00 -0.85414543894E+02 -0.18455390906E+03  0.20340605481E+03  0.41800000000E+01 0.  1.
</event>
<event>
11    1  0.6455215E-009  0.1620687E+03  0.7561462E-02  0.1085148E+00
         22   -1    0    0    0    0  0.00000000000E+00  0.00000000000E+00  0.20944413305E+04  0.20944413305E+04  0.00000000000E+00 0.  1.
         22   -1    0    0    0    0 -0.00000000000E+00 -0.00000000000E+00 -0.58442173527E+03  0.58442173527E+03  0.00000000000E+00 0. -1.
         24    2    1    2    0    0  0.40976820224E+02 -0.99073246352E+01 -0.54876645121E+03  0.55711670616E+03  0.86354799700E+02 0.  0.
         25    2    1    2    0    0 -0.11226717553E+03  0.80594458020E+02  0.26857178085E+03  0.32692124721E+03  0.12508922834E+03 0.  0.
        -24    2    1    2    0    0  0.71290355304E+02 -0.70687133385E+02  0.17902142656E+04  0.17948251124E+04  0.80318626701E+02 0.  0.
        -13    1    3    3    0    0 -0.10347246766E+02 -0.26267894756E+02 -0.72331655564E+02  0.77646224681E+02  0.00000000000E+00 0.  1.
         14    1    3    3    0    0  0.51324066990E+02  0.16360570121E+02 -0.47643479565E+03  0.47947048148E+03  0.00000000000E+00 0. -1.
         11    1    5    5    0    0  0.70160640998E+02 -0.29987303223E+02  0.76331241347E+03  0.76711641519E+03  0.00000000000E+00 0. -1.
        -12    1    5    5    0    0  0.11297143055E+01 -0.40699830163E+02  0.10269018521E+04  0.10277086972E+04  0.00000000000E+00 0.  1.
          5    1    4    4  501    0 -0.12666646589E+03  0.28973697345E+02  0.16339793005E+03  0.20880666815E+03  0.41800000000E+01 0.  1.
         -5    1    4    4    0  501  0.14399290364E+02  0.51620760675E+02  0.10517385079E+03  0.11811457906E+03  0.41800000000E+01 0.  1.
</event>
<event>
11    1  0.6455215E-009  0.1908281E+03  0.7561462E-02  0.1061206E+00
         22   -1    0    0    0    0  0.00000000000E+00  0.00000000000E+00  0.17240888952E+04  0.17240888952E+04  0.00000000000E+00 0.  1.
         22   -1    0    0    0    0 -0.00000000000E+00 -0.00000000000E+00 -0.39396469884E+03  0.39396469884E+03  0.00000000000E+00 0. -1.
        -24    2    1    2    0    0 -0.90177217477E+02 -0.18168786655E+02 -0.32799572860E+02  0.12728662625E+03  0.81633558554E+02 0.  0.
         25    2    1    2    0    0  0.21774334832E+03  0.82649902889E+02 -0.25334362981E+03  0.36615891297E+03  0.12508470169E+03 0.  0.
         24    2    1    2    0    0 -0.12756613084E+03 -0.64481116234E+02  0.16162673990E+04  0.16246080548E+04  0.81240965647E+02 0.  0.
        -11    1    5    5    0    0  0.24800036177E+01 -0.20634507743E+02  0.41625567045E+03  0.41677417927E+03  0.00000000000E+00 0.  1.
         12    1    5    5    0    0 -0.13004613446E+03 -0.43846608490E+02  0.12000117286E+04  0.12078338755E+04  0.00000000000E+00 0. -1.
         13    1    3    3    0    0 -0.10015826189E+03 -0.73561541585E+01 -0.11060173281E+02  0.10103523080E+03  0.00000000000E+00 0. -1.
        -14    1    3    3    0    0  0.99810444163E+01 -0.10812632497E+02 -0.21739399580E+02  0.26251395453E+02  0.00000000000E+00 0.  1.
          5    1    4    4  501    0  0.16374173464E+03 -0.18476441308E+01 -0.15024390876E+03  0.22227342164E+03  0.41800000000E+01 0.  1.
         -5    1    4    4    0  501  0.54001613682E+02  0.84497547020E+02 -0.10309972106E+03  0.14388549133E+03  0.41800000000E+01 0.  1.
</event>
<event>
11    1  0.6455215E-009  0.1548054E+03  0.7561462E-02  0.1092067E+00
         22   -1    0    0    0    0  0.00000000000E+00  0.00000000000E+00  0.30126777137E+03  0.30126777137E+03  0.00000000000E+00 0.  1.
         22   -1    0    0    0    0 -0.00000000000E+00 -0.00000000000E+00 -0.11515001671E+04  0.11515001671E+04  0.00000000000E+00 0.  1.
         24    2    1    2    0    0 -0.34864374531E+02 -0.20383620626E+02 -0.10312857741E+04  0.10353588743E+04  0.82381030604E+02 0.  0.
         25    2    1    2    0    0  0.11424669578E+03 -0.18036223163E+02 -0.32185780300E+02  0.17336563655E+03  0.12506840784E+03 0.  0.
        -24    2    1    2    0    0 -0.79382321249E+02  0.38419843790E+02  0.21323915864E+03  0.24404342761E+03  0.79426811942E+02 0.  0.
        -11    1    3    3    0    0 -0.30997415375E+01 -0.43661407301E+02 -0.31948132201E+03  0.32246587726E+03  0.00000000000E+00 0.  1.
         12    1    3    3    0    0 -0.31764632993E+02  0.23277786674E+02 -0.71180445206E+03  0.71289299704E+03  0.00000000000E+00 0. -1.
         11    1    5    5    0    0 -0.36567927021E+02 -0.22644966801E+02  0.62581320080E+02  0.75937009626E+02  0.00000000000E+00 0. -1.
        -12    1    5    5    0    0 -0.42814394228E+02  0.61064810591E+02  0.15065783856E+03  0.16810641798E+03  0.00000000000E+00 0.  1.
          5    1    4    4  501    0  0.22044440235E+02 -0.23697661750E+02 -0.67026751146E+02  0.74549274221E+02  0.41800000000E+01 0. -1.
         -5    1    4    4    0  501  0.92202255544E+02  0.56614385865E+01  0.34840970846E+02  0.98816362328E+02  0.41800000000E+01 0. -1.
</event>
<event>
11    1  0.6455215E-009  0.1963253E+03  0.7561462E-02  0.1057153E+00
         22   -1    0    0    0    0  0.00000000000E+00  0.00000000000E+00  0.34760743544E+03  0.34760743544E+03  0.00000000000E+00 0. -1.
         22   -1    0    0    0    0 -0.00000000000E+00 -0.00000000000E+00 -0.85736821119E+03  0.85736821119E+03  0.00000000000E+00 0. -1.
        -24    2    1    2    0    0  0.54025162024E+02 -0.14371925405E+03 -0.72770752684E+03  0.74769437427E+03  0.76907025528E+02 0.  0.
         25    2    1    2    0    0 -0.30385168875E+02  0.13242181150E+03 -0.39871107297E+02  0.18892993788E+03  0.12508405806E+03 0.  0.
         24    2    1    2    0    0 -0.23639993149E+02  0.11297442549E+02  0.25781785839E+03  0.26835133448E+03  0.69684353526E+02 0.  0.
        -11    1    5    5    0    0 -0.14458046548E+02 -0.29107031514E+02  0.12914829196E+03  0.13317483136E+03  0.00000000000E+00 0.  1.
         12    1    5    5    0    0 -0.91819466007E+01  0.40404474062E+02  0.12866956644E+03  0.13517650312E+03  0.00000000000E+00 0. -1.
         13    1    3    3    0    0  0.59497859396E+02 -0.10745813691E+03 -0.65323125775E+03  0.66467911247E+03  0.00000000000E+00 0. -1.
        -14    1    3    3    0    0 -0.54726973720E+01 -0.36261117140E+02 -0.74476269093E+02  0.83015261794E+02  0.00000000000E+00 0.  1.
          5    1    4    4  501    0 -0.19510726135E+02  0.14812503183E+03 -0.57137900739E+01  0.14957210062E+03  0.41800000000E+01 0. -1.
         -5    1    4    4    0  501 -0.10874442740E+02 -0.15703220324E+02 -0.34157317223E+02  0.39357837254E+02  0.41800000000E+01 0. -1.
</event>
<event>
11    1  0.6455215E-009  0.1477505E+03  0.7561462E-02  0.1099200E+00
         22   -1    0    0    0    0  0.00000000000E+00  0.00000000000E+00  0.32413492989E+03  0.32413492989E+03  0.00000000000E+00 0.  1.
         22   -1    0    0    0    0 -0.00000000000E+00 -0.00000000000E+00 -0.67459489994E+03  0.67459489994E+03  0.00000000000E+00 0. -1.
         24    2    1    2    0    0  0.53546178375E+02 -0.10636594791E+01 -0.55730762714E+03  0.56569715064E+03  0.80951531039E+02 0.  0.
         25    2    1    2    0    0 -0.11758145976E+03 -0.35257377059E+02 -0.24812960315E+02  0.17700534384E+03  0.12508687554E+03 0.  0.
        -24    2    1    2    0    0  0.64035281384E+02  0.36321036538E+02  0.23166061741E+03  0.25602733535E+03  0.80396640643E+02 0.  0.
        -11    1    3    3    0    0 -0.32092936020E+01  0.31082026374E+02 -0.15252307442E+03  0.15569097649E+03  0.00000000000E+00 0.  1.
         12    1    3    3    0    0  0.56755471977E+02 -0.32145685853E+02 -0.40478455272E+03  0.41000617415E+03  0.00000000000E+00 0. -1.
         11    1    5    5    0    0 -0.22940383755E+01 -0.20204665294E+02  0.28953183659E+02  0.35380474216E+02  0.00000000000E+00 0. -1.
        -12    1    5    5    0    0  0.66329319759E+02  0.56525701832E+02  0.20270743375E+03  0.22064686113E+03  0.00000000000E+00 0.  1.
          5    1    4    4  501    0 -0.96067425286E+02  0.20464015568E+02 -0.52032645491E+02  0.11123216590E+03  0.41800000000E+01 0. -1.
         -5    1    4    4    0  501 -0.21514034473E+02 -0.55721392627E+02  0.27219685176E+02  0.65773177942E+02  0.41800000000E+01 0. -1.
</event>
<event>
11    1  0.6455215E-009  0.1412261E+03  0.7561462E-02  0.1106197E+00
         22   -1    0    0    0    0  0.00000000000E+00  0.00000000000E+00  0.16496759179E+04  0.16496759179E+04  0.00000000000E+00 0.  1.
         22   -1    0    0    0    0 -0.00000000000E+00 -0.00000000000E+00 -0.31691743221E+03  0.31691743221E+03  0.00000000000E+00 0.  1.
         24    2    1    2    0    0  0.64321993735E+02 -0.83333532828E+01 -0.28295792025E+03  0.30117035945E+03  0.80197488278E+02 0.  0.
         25    2    1    2    0    0 -0.81271279255E+02  0.28888940133E+02  0.22227300764E+03  0.26924316018E+03  0.12508795980E+03 0.  0.
        -24    2    1    2    0    0  0.16949285520E+02 -0.20555586850E+02  0.13934433983E+04  0.13961798304E+04  0.83209400435E+02 0.  0.
        -13    1    3    3    0    0  0.65625466365E+02 -0.31718569257E+02 -0.25212986838E+03  0.26245426268E+03  0.00000000000E+00 0.  1.
         14    1    3    3    0    0 -0.13034726298E+01  0.23385215974E+02 -0.30828051872E+02  0.38716096772E+02  0.00000000000E+00 0. -1.
         11    1    5    5    0    0  0.42753703275E+02 -0.33489596173E+02  0.68536605643E+03  0.68751440967E+03  0.00000000000E+00 0. -1.
        -12    1    5    5    0    0 -0.25804417755E+02  0.12934009323E+02  0.70807734183E+03  0.70866542076E+03  0.00000000000E+00 0.  1.
          5    1    4    4  501    0 -0.10176879377E+03  0.53741607410E+02  0.14323699073E+03  0.18379160935E+03  0.41800000000E+01 0. -1.
         -5    1    4    4    0  501  0.20497514512E+02 -0.24852667277E+02  0.79036016906E+02  0.85451550837E+02  0.41800000000E+01 0. -1.
</event>
<event>
11    1  0.6455215E-009  0.1400487E+03  0.7561462E-02  0.1107504E+00
         22   -1    0    0    0    0  0.00000000000E+00  0.00000000000E+00  0.27044575780E+04  0.27044575780E+04  0.00000000000E+00 0. -1.
         22   -1    0    0    0    0 -0.00000000000E+00 -0.00000000000E+00 -0.37505841355E+02  0.37505841355E+02  0.00000000000E+00 0. -1.
         24    2    1    2    0    0  0.20285695355E+02  0.50239327745E+02  0.12083453102E+03  0.15623935325E+03  0.82911109803E+02 0.  0.
         25    2    1    2    0    0  0.88232412376E+01 -0.88388483193E+02  0.29366568578E+03  0.33132487894E+03  0.12508503850E+03 0.  0.
        -24    2    1    2    0    0 -0.29108936592E+02  0.38149155448E+02  0.22524515198E+04  0.22543991871E+04  0.80468363775E+02 0.  0.
        -13    1    3    3    0    0 -0.32514527363E+01  0.13287322082E+02  0.11034492924E+03  0.11118960510E+03  0.00000000000E+00 0.  1.
         14    1    3    3    0    0  0.23537148091E+02  0.36952005663E+02  0.10489601777E+02  0.45049748148E+02  0.00000000000E+00 0. -1.
         11    1    5    5    0    0 -0.15360293158E+02  0.50386889348E+02  0.21221931103E+04  0.21228467619E+04  0.00000000000E+00 0. -1.
        -12    1    5    5    0    0 -0.13748643435E+02 -0.12237733900E+02  0.13025840949E+03  0.13155242518E+03  0.00000000000E+00 0.  1.
          5    1    4    4  501    0  0.44800751192E+02 -0.66740832640E+02  0.27245876659E+03  0.28409980278E+03  0.41800000000E+01 0. -1.
         -5    1    4    4    0  501 -0.35977509954E+02 -0.21647650553E+02  0.21206919189E+02  0.47225076161E+02  0.41800000000E+01 0. -1.
</event>
<event>
11    1  0.6455215E-009  0.2263437E+03  0.7561462E-02  0.1037315E+00
         22   -1    0    0    0    0  0.00000000000E+00  0.00000000000E+00  0.11904022372E+03  0.11904022372E+03  0.00000000000E+00 0.  1.
         22   -1    0    0    0    0 -0.00000000000E+00 -0.00000000000E+00 -0.13284735840E+04  0.13284735840E+04  0.00000000000E+00 0. -1.
         24    2    1    2    0    0  0.21127026879E+02 -0.47511486066E+01 -0.92688289992E+03  0.93071149039E+03  0.81504868006E+02 0.  0.
         25    2    1    2    0    0 -0.13825457977E+03 -0.13723427778E+03 -0.15999119939E+03  0.28140970965E+03  0.12508662990E+03 0.  0.
        -24    2    1    2    0    0  0.11712755289E+03  0.14198542639E+03 -0.12255926094E+03  0.23539260763E+03  0.80685700933E+02 0.  0.
        -11    1    3    3    0    0 -0.11831946059E+01  0.36242441404E+02 -0.49096124306E+03  0.49229854427E+03  0.00000000000E+00 0.  1.
         12    1    3    3    0    0  0.22310221485E+02 -0.40993590011E+02 -0.43592165686E+03  0.43841294612E+03  0.00000000000E+00 0. -1.
         13    1    5    5    0    0 -0.70585693516E+01 -0.48550342774E+01 -0.67017568849E+01  0.10876962097E+02  0.00000000000E+00 0. -1.
        -14    1    5    5    0    0  0.12418612224E+03  0.14684046066E+03 -0.11585750405E+03  0.22451564554E+03  0.00000000000E+00 0.  1.
          5    1    4    4  501    0  0.21184156994E+02 -0.37821299513E+02 -0.28890680552E+02  0.52262443754E+02  0.41800000000E+01 0. -1.
         -5    1    4    4    0  501 -0.15943873676E+03 -0.99412978267E+02 -0.13110051884E+03  0.22914726590E+03  0.41800000000E+01 0. -1.
</event>
<event>
11    1  0.6455215E-009  0.1271708E+03  0.7561462E-02  0.1122795E+00
         22   -1    0    0    0    0  0.00000000000E+00  0.00000000000E+00  0.47254274603E+02  0.47254274603E+02  0.00000000000E+00 0.  1.
         22   -1    0    0    0    0 -0.00000000000E+00 -0.00000000000E+00 -0.52555249595E+03  0.52555249595E+03  0.00000000000E+00 0. -1.
        -24    2    1    2    0    0 -0.19816514133E+02 -0.50626605654E-01 -0.22878577418E+03  0.24441367155E+03  0.83680437246E+02 0.  0.
         25    2    1    2    0    0  0.29851518187E+02  0.18394615452E+02 -0.16037644596E+03  0.20639868692E+03  0.12510131305E+03 0.  0.
         24    2    1    2    0    0 -0.10035004054E+02 -0.18343988846E+02 -0.89136001210E+02  0.12199441209E+03  0.80623858971E+02 0.  0.
        -13    1    5    5    0    0  0.29972482149E+02 -0.14213870213E+02 -0.12506837306E+02  0.35451442453E+02  0.00000000000E+00 0.  1.
         14    1    5    5    0    0 -0.40007486203E+02 -0.41301186331E+01 -0.76629163905E+02  0.86542969634E+02  0.00000000000E+00 0. -1.
         11    1    3    3    0    0 -0.11979977273E+01 -0.40937273389E+02 -0.11539520201E+03  0.12244732826E+03  0.00000000000E+00 0. -1.
        -12    1    3    3    0    0 -0.18618516406E+02  0.40886646784E+02 -0.11339057217E+03  0.12196634329E+03  0.00000000000E+00 0.  1.
          5    1    4    4  501    0  0.26950681843E+02 -0.27430660537E+01 -0.17695009886E+03  0.17906053041E+03  0.41800000000E+01 0. -1.
         -5    1    4    4    0  501  0.29008363439E+01  0.21137681506E+02  0.16573652901E+02  0.27338156511E+02  0.41800000000E+01 0. -1.
</event>
<event>
11    1  0.6455215E-009  0.1453580E+03  0.7561462E-02  0.1101719E+00
         22   -1    0    0    0    0  0.00000000000E+00  0.00000000000E+00  0.64129200441E+03  0.64129200441E+03  0.00000000000E+00 0. -1.
         22   -1    0    0    0    0 -0.00000000000E+00 -0.00000000000E+00 -0.18090742132E+04  0.18090742132E+04  0.00000000000E+00 0.  1.
         24    2    1    2    0    0 -0.67978694405E+01 -0.50731331780E+02 -0.16327617586E+04  0.16356863466E+04  0.83300571479E+02 0.  0.
         25    2    1    2    0    0 -0.57601464402E+02  0.86169424286E+02 -0.13112081511E+03  0.20876586459E+03  0.12508964657E+03 0.  0.
        -24    2    1    2    0    0  0.64399333842E+02 -0.35438092506E+02  0.59610036494E+03  0.60591400636E+03  0.79956271938E+02 0.  0.
        -13    1    3    3    0    0 -0.25510310781E+02 -0.38092885393E+02 -0.15197191188E+04  0.15204104853E+04  0.00000000000E+00 0.  1.
         14    1    3    3    0    0  0.18712441341E+02 -0.12638446386E+02 -0.11304263978E+03  0.11527586129E+03  0.00000000000E+00 0. -1.
         13    1    5    5    0    0  0.61097228767E+02 -0.39803236782E+02  0.59599539763E+03  0.60043957483E+03  0.00000000000E+00 0. -1.
        -14    1    5    5    0    0  0.33021050755E+01  0.43651442757E+01  0.10496730913E+00  0.54744315333E+01  0.00000000000E+00 0.  1.
          5    1    4    4  501    0  0.20215747862E+02  0.11141758712E+02  0.14336827988E+02  0.27492404143E+02  0.41800000000E+01 0. -1.
         -5    1    4    4    0  501 -0.77817212263E+02  0.75027665573E+02 -0.14545764310E+03  0.18127346044E+03  0.41800000000E+01 0. -1.
</event>
<event>
11    1  0.6455215E-009  0.1614088E+03  0.7561462E-02  0.1085760E+00
         22   -1    0    0    0    0  0.00000000000E+00  0.00000000000E+00  0.85060841732E+03  0.85060841732E+03  0.00000000000E+00 0.  1.
         22   -1    0    0    0    0 -0.00000000000E+00 -0.00000000000E+00 -0.99329194556E+03  0.99329194556E+03  0.00000000000E+00 0.  1.
        -24    2    1    2    0    0  0.25518109540E+02  0.38582230860E+02 -0.78234957212E+03  0.78773843816E+03  0.79506172716E+02 0.  0.
         25    2    1    2    0    0  0.74687496681E+02 -0.59784490976E+02 -0.17252181044E+03  0.23358872556E+03  0.12509000804E+03 0.  0.
         24    2    1    2    0    0 -0.10020560622E+03  0.21202260116E+02  0.81218785432E+03  0.82257319916E+03  0.80541032559E+02 0.  0.
        -13    1    5    5    0    0 -0.58646112956E+02 -0.22745783895E+02  0.54534910348E+03  0.54896482758E+03  0.00000000000E+00 0.  1.
         14    1    5    5    0    0 -0.41559493265E+02  0.43948044011E+02  0.26683875084E+03  0.27360837159E+03  0.00000000000E+00 0. -1.
         13    1    3    3    0    0  0.23816634365E+02 -0.16520383274E+02 -0.44233346385E+03  0.44328213181E+03  0.00000000000E+00 0. -1.
        -14    1    3    3    0    0  0.17014751757E+01  0.55102614134E+02 -0.34001610827E+03  0.34445630635E+03  0.00000000000E+00 0.  1.
          5    1    4    4  501    0  0.48566038163E+02  0.28829129100E+02 -0.10425190116E+03  0.11864109761E+03  0.41800000000E+01 0. -1.
         -5    1    4    4    0  501  0.26121458518E+02 -0.88613620076E+02 -0.68269909283E+02  0.11494762795E+03  0.41800000000E+01 0. -1.
</event>
<event>
11    1  0.6455215E-009  0.1334414E+03  0.7561462E-02  0.1115111E+00
         22   -1    0    0    0    0  0.00000000000E+00  0.00000000000E+00  0.60578551809E+03  0.60578551809E+03  0.00000000000E+00 0. -1.
         22   -1    0    0    0    0 -0.00000000000E+00 -0.00000000000E+00 -0.14411941797E+04  0.14411941797E+04  0.00000000000E+00 0.  1.
         24    2    1    2    0    0  0.72167838980E+01 -0.44012213588E+02 -0.10388611247E+04  0.10427487844E+04  0.78124477814E+02 0.  0.
         25    2    1    2    0    0 -0.39157699525E+02  0.99282294450E+01 -0.38583426445E+03  0.40761221038E+03  0.12509092396E+03 0.  0.
        -24    2    1    2    0    0  0.31940915627E+02  0.34083984143E+02  0.58928672750E+03  0.59661870305E+03  0.80703714651E+02 0.  0.
        -13    1    3    3    0    0  0.16740639460E+01 -0.61661445966E+02 -0.94903673854E+03  0.95103925655E+03  0.00000000000E+00 0.  1.
         14    1    3    3    0    0  0.55427199521E+01  0.17649232378E+02 -0.89824386121E+02  0.91709527804E+02  0.00000000000E+00 0. -1.
         13    1    5    5    0    0  0.58970365935E+02  0.17640509483E+02  0.39894672700E+03  0.40366716812E+03  0.00000000000E+00 0. -1.
        -14    1    5    5    0    0 -0.27029450309E+02  0.16443474660E+02  0.19034000049E+03  0.19295153493E+03  0.00000000000E+00 0.  1.
          5    1    4    4  501    0 -0.53316185061E+02  0.85906308002E+01 -0.38874976081E+03  0.39250511265E+03  0.41800000000E+01 0.  1.
         -5    1    4    4    0  501  0.14158485536E+02  0.13375986447E+01  0.29154963606E+01  0.15107097731E+02  0.41800000000E+01 0.  1.
</event>
<event>
11    1  0.6455215E-009  0.4696586E+03  0.7561462E-02  0.9463999E-01
         22   -1    0    0    0    0  0.00000000000E+00  0.00000000000E+00  0.13852919247E+04  0.13852919247E+04  0.00000000000E+00 0.  1.
         22   -1    0    0    0    0 -0.00000000000E+00 -0.00000000000E+00 -0.21670986780E+04  0.21670986780E+04  0.00000000000E+00 0. -1.
         24    2    1    2    0    0  0.28751929827E+03 -0.34901112167E+03 -0.20804885504E+04  0.21307843019E+04  0.85633071281E+02 0.  0.
         25    2    1    2    0    0 -0.31560796643E+03  0.35532720302E+03  0.10579756481E+04  0.11665446191E+04  0.12509223247E+03 0.  0.
        -24    2    1    2    0    0  0.28088668162E+02 -0.63160813564E+01  0.24070614900E+03  0.25506168172E+03  0.79297825651E+02 0.  0.
        -13    1    3    3    0    0  0.25768481517E+03 -0.29914114643E+03 -0.16605040173E+04  0.17067983129E+04  0.00000000000E+00 0.  1.
         14    1    3    3    0    0  0.29834483105E+02 -0.49869975239E+02 -0.41998453313E+03  0.42398598901E+03  0.00000000000E+00 0. -1.
         11    1    5    5    0    0 -0.34762760948E+01  0.31911361049E+02  0.64978149472E+02  0.72474680878E+02  0.00000000000E+00 0. -1.
        -12    1    5    5    0    0  0.31564944257E+02 -0.38227442405E+02  0.17572799953E+03  0.18258700084E+03  0.00000000000E+00 0.  1.
          5    1    4    4  501    0 -0.25422785798E+03  0.34145917019E+03  0.87645155788E+03  0.97437722387E+03  0.41800000000E+01 0. -1.
         -5    1    4    4    0  501 -0.61380108457E+02  0.13868032831E+02  0.18152409024E+03  0.19216739522E+03  0.41800000000E+01 0. -1.
</event>
<event>
11    1  0.6455215E-009  0.1386877E+03  0.7561462E-02  0.1109033E+00
         22   -1    0    0    0    0  0.00000000000E+00  0.00000000000E+00  0.67656706640E+02  0.67656706640E+02  0.00000000000E+00 0. -1.
         22   -1    0    0    0    0 -0.00000000000E+00 -0.00000000000E+00 -0.29145027411E+04  0.29145027411E+04  0.00000000000E+00 0.  1.
        -24    2    1    2    0    0  0.34284619196E+00 -0.12036452055E+02 -0.26935917446E+04  0.26949478833E+04  0.84632226018E+02 0.  0.
         25    2    1    2    0    0 -0.29069675481E+02 -0.44408269958E+02 -0.11664730972E+03  0.17908414593E+03  0.12508955187E+03 0.  0.
         24    2    1    2    0    0  0.28726829289E+02  0.56444722013E+02 -0.36606980140E+02  0.10812741846E+03  0.79625562877E+02 0.  0.
        -13    1    5    5    0    0  0.18035757421E+02 -0.18218396204E+02 -0.14854838325E+02  0.29628782082E+02  0.00000000000E+00 0.  1.
         14    1    5    5    0    0  0.10691071868E+02  0.74663118217E+02 -0.21752141816E+02  0.78498636377E+02  0.00000000000E+00 0. -1.
         13    1    3    3    0    0  0.15658893778E+02 -0.22505536165E+02 -0.29196567073E+03  0.29325015430E+03  0.00000000000E+00 0. -1.
        -14    1    3    3    0    0 -0.15316047586E+02  0.10469084110E+02 -0.24016260739E+04  0.24016977290E+04  0.00000000000E+00 0.  1.
          5    1    4    4  501    0  0.46174994523E+02 -0.13055901729E+02 -0.70308534963E+02  0.85225284850E+02  0.41800000000E+01 0. -1.
         -5    1    4    4    0  501 -0.75244670004E+02 -0.31352368229E+02 -0.46338774759E+02  0.93858861083E+02  0.41800000000E+01 0. -1.
</event>
<event>
11    1  0.6455215E-009  0.1379246E+03  0.7561462E-02  0.1109898E+00
         22   -1    0    0    0    0  0.00000000000E+00  0.00000000000E+00  0.50199197499E+02  0.50199197499E+02  0.00000000000E+00 0.  1.
         22   -1    0    0    0    0 -0.00000000000E+00 -0.00000000000E+00 -0.12614612979E+04  0.12614612979E+04  0.00000000000E+00 0.  1.
        -24    2    1    2    0    0  0.36807457004E+02  0.32336606382E+02 -0.76328281916E+03  0.76912747248E+03  0.80968894555E+02 0.  0.
         25    2    1    2    0    0  0.12730930735E+02  0.10005608160E+02 -0.41440343656E+03  0.43317443112E+03  0.12509073007E+03 0.  0.
         24    2    1    2    0    0 -0.49538387739E+02 -0.42342214542E+02 -0.33575844716E+02  0.10935859184E+03  0.81148316491E+02 0.  0.
        -13    1    5    5    0    0 -0.28462459282E+02 -0.58581116086E+02  0.17269418935E+01  0.65152444916E+02  0.00000000000E+00 0.  1.
         14    1    5    5    0    0 -0.21075928457E+02  0.16238901544E+02 -0.35302786609E+02  0.44206146926E+02  0.00000000000E+00 0. -1.
         13    1    3    3    0    0 -0.10910005685E+01  0.37784478419E+02 -0.15138487583E+03  0.15603280976E+03  0.00000000000E+00 0. -1.
        -14    1    3    3    0    0  0.37898457572E+02 -0.54478720369E+01 -0.61189794333E+03  0.61309466271E+03  0.00000000000E+00 0.  1.
          5    1    4    4  501    0  0.33453156473E+02 -0.50365488993E+02 -0.23571815045E+03  0.24338511666E+03  0.41800000000E+01 0. -1.
         -5    1    4    4    0  501 -0.20722225738E+02  0.60371097152E+02 -0.17868528612E+03  0.18978931447E+03  0.41800000000E+01 0. -1.
</event>
<event>
11    1  0.6455215E-009  0.1538744E+03  0.7561462E-02  0.1092984E+00
         22   -1    0    0    0    0  0.00000000000E+00  0.00000000000E+00  0.93973428533E+03  0.93973428533E+03  0.00000000000E+00 0. -1.
         22   -1    0    0    0    0 -0.00000000000E+00 -0.00000000000E+00 -0.15451254502E+04  0.15451254502E+04  0.00000000000E+00 0. -1.
         24    2    1    2    0    0  0.44823614599E+02 -0.76104806504E+02 -0.14620634013E+04  0.14689086471E+04  0.11073448501E+03 0.  0.
         25    2    1    2    0    0 -0.71310576847E+02  0.10798550195E+03  0.28178565872E+02  0.18217257106E+03  0.12508695804E+03 0.  0.
        -24    2    1    2    0    0  0.26486962247E+02 -0.31880695442E+02  0.82849367059E+03  0.83377851732E+03  0.84064950087E+02 0.  0.
        -11    1    3    3    0    0  0.27019157145E+02  0.35516360412E+01 -0.81518467453E+02  0.85952949381E+02  0.00000000000E+00 0.  1.
         12    1    3    3    0    0  0.17804457454E+02 -0.79656442545E+02 -0.13805449339E+04  0.13829556978E+04  0.00000000000E+00 0. -1.
         13    1    5    5    0    0  0.84832952170E+01 -0.13547264200E+02  0.76655304820E+03  0.76671968174E+03  0.00000000000E+00 0. -1.
        -14    1    5    5    0    0  0.18003667030E+02 -0.18333431243E+02  0.61940622388E+02  0.67058835581E+02  0.00000000000E+00 0.  1.
          5    1    4    4  501    0 -0.87498037700E+02  0.12318127359E+03  0.71708544551E+01  0.15132225982E+03  0.41800000000E+01 0.  1.
         -5    1    4    4    0  501  0.16187460854E+02 -0.15195771642E+02  0.21007711417E+02  0.30850311241E+02  0.41800000000E+01 0.  1.
</event>
<event>
11    1  0.6455215E-009  0.1501690E+03  0.7561462E-02  0.1096706E+00
         22   -1    0    0    0    0  0.00000000000E+00  0.00000000000E+00  0.65521198609E+03  0.65521198609E+03  0.00000000000E+00 0. -1.
         22   -1    0    0    0    0 -0.00000000000E+00 -0.00000000000E+00 -0.48456808126E+03  0.48456808126E+03  0.00000000000E+00 0. -1.
         24    2    1    2    0    0 -0.28363795781E+02 -0.14406045086E+02 -0.30172822467E+03  0.31345540174E+03  0.78754861877E+02 0.  0.
         25    2    1    2    0    0 -0.31879878224E+02  0.72087214683E+02 -0.13964569052E+03  0.20337497666E+03  0.12509024379E+03 0.  0.
        -24    2    1    2    0    0  0.60243674005E+02 -0.57681169596E+02  0.61201782002E+03  0.62294968895E+03  0.80895521264E+02 0.  0.
        -11    1    3    3    0    0  0.75765437455E+01 -0.35361397549E+02 -0.79123054579E+02  0.86995920696E+02  0.00000000000E+00 0.  1.
         12    1    3    3    0    0 -0.35940339526E+02  0.20955352463E+02 -0.22260517009E+03  0.22645948104E+03  0.00000000000E+00 0. -1.
         11    1    5    5    0    0  0.79620633472E+02 -0.50052255133E+02  0.53301957575E+03  0.54125275210E+03  0.00000000000E+00 0. -1.
        -12    1    5    5    0    0 -0.19376959467E+02 -0.76289144635E+01  0.78998244269E+02  0.81696936856E+02  0.00000000000E+00 0.  1.
          5    1    4    4  501    0 -0.71246469550E+02  0.59812565623E+02 -0.52557407898E+02  0.10692687200E+03  0.41800000000E+01 0. -1.
         -5    1    4    4    0  501  0.39366591326E+02  0.12274649060E+02 -0.87088282626E+02  0.96448104662E+02  0.41800000000E+01 0. -1.
</event>
<event>
11    1  0.6455215E-009  0.1541828E+03  0.7561462E-02  0.1092680E+00
         22   -1    0    0    0    0  0.00000000000E+00  0.00000000000E+00  0.11527877905E+04  0.11527877905E+04  0.00000000000E+00 0.  1.
         22   -1    0    0    0    0 -0.00000000000E+00 -0.00000000000E+00 -0.10493351438E+03  0.10493351438E+03  0.00000000000E+00 0. -1.
         24    2    1    2    0    0 -0.25215465718E+01 -0.81001849387E+02  0.17384283859E+02  0.11707629577E+03  0.82686080477E+02 0.  0.
         25    2    1    2    0    0 -0.43525892098E+02  0.10595072039E+03  0.83785125053E+02  0.18917897064E+03  0.12509467343E+03 0.  0.
        -24    2    1    2    0    0  0.46047438669E+02 -0.24948871001E+02  0.94668486721E+03  0.95146603847E+03  0.79577457738E+02 0.  0.
        -13    1    3    3    0    0  0.11816020866E+02  0.12847353143E+02  0.13486791404E+02  0.22058249574E+02  0.00000000000E+00 0.  1.
         14    1    3    3    0    0 -0.14337567438E+02 -0.93849202529E+02  0.38974924546E+01  0.95018046196E+02  0.00000000000E+00 0. -1.
         11    1    5    5    0    0  0.42335976596E+02 -0.13087610656E+02  0.20759902501E+03  0.21227570669E+03  0.00000000000E+00 0. -1.
        -12    1    5    5    0    0  0.37114620733E+01 -0.11861260344E+02  0.73908584220E+03  0.73919033178E+03  0.00000000000E+00 0.  1.
          5    1    4    4  501    0  0.41727871397E+01  0.60515081931E+02  0.10371866842E+03  0.12022695984E+03  0.41800000000E+01 0.  1.
         -5    1    4    4    0  501 -0.47698679237E+02  0.45435638456E+02 -0.19933543366E+02  0.68952010805E+02  0.41800000000E+01 0.  1.
</event>
<event>
11    1  0.6455215E-009  0.2408887E+03  0.7561462E-02  0.1028868E+00
         22   -1    0    0    0    0  0.00000000000E+00  0.00000000000E+00  0.39019872638E+03  0.39019872638E+03  0.00000000000E+00 0. -1.
         22   -1    0    0    0    0 -0.00000000000E+00 -0.00000000000E+00 -0.13998883817E+04  0.13998883817E+04  0.00000000000E+00 0.  1.
        -24    2    1    2    0    0 -0.20799109167E+03 -0.29475851586E+02 -0.12808373595E+04  0.13004533714E+04  0.80656739593E+02 0.  0.
         25    2    1    2    0    0  0.16257953483E+03 -0.57501553339E+02  0.26830118241E+02  0.21472370929E+03  0.12509149573E+03 0.  0.
         24    2    1    2    0    0  0.45411556838E+02  0.86977404925E+02  0.24431758588E+03  0.27491002744E+03  0.79102224702E+02 0.  0.
        -11    1    5    5    0    0  0.32175051768E+02  0.69852714622E+02  0.87035366041E+02  0.11614555798E+03  0.00000000000E+00 0.  1.
         12    1    5    5    0    0  0.13236505071E+02  0.17124690303E+02  0.15728221984E+03  0.15876446946E+03  0.00000000000E+00 0. -1.
         11    1    3    3    0    0 -0.25941455793E+02 -0.23246604933E+02 -0.36624158150E+03  0.36789435955E+03  0.00000000000E+00 0. -1.
        -12    1    3    3    0    0 -0.18204963588E+03 -0.62292466530E+01 -0.91459577796E+03  0.93255901181E+03  0.00000000000E+00 0.  1.
          5    1    4    4  501    0  0.41981585794E+02  0.39694600360E+02  0.35277702673E+01  0.58034751714E+02  0.41800000000E+01 0.  1.
         -5    1    4    4    0  501  0.12059794904E+03 -0.97196153698E+02  0.23302347973E+02  0.15668895758E+03  0.41800000000E+01 0.  1.
</event>
<event>
11    1  0.6455215E-009  0.1458752E+03  0.7561462E-02  0.1101170E+00
         22   -1    0    0    0    0  0.00000000000E+00  0.00000000000E+00  0.13859957817E+04  0.13859957817E+04  0.00000000000E+00 0.  1.
         22   -1    0    0    0    0 -0.00000000000E+00 -0.00000000000E+00 -0.10625775411E+03  0.10625775411E+03  0.00000000000E+00 0.  1.
        -24    2    1    2    0    0  0.97496145368E+01  0.13170091361E+02 -0.66551242945E+02  0.10471994860E+03  0.79175080719E+02 0.  0.
         25    2    1    2    0    0  0.63898459616E+02 -0.31474577861E+02  0.27628261091E+03  0.31154288904E+03  0.12511286276E+03 0.  0.
         24    2    1    2    0    0 -0.73648074153E+02  0.18304486500E+02  0.10700066597E+04  0.10759906982E+04  0.84158409357E+02 0.  0.
        -11    1    5    5    0    0 -0.35858300752E+02  0.25716068752E+02  0.92202717755E+03  0.92308247197E+03  0.00000000000E+00 0.  1.
         12    1    5    5    0    0 -0.37789773400E+02 -0.74115822519E+01  0.14797948211E+03  0.15290822624E+03  0.00000000000E+00 0. -1.
         11    1    3    3    0    0  0.20810716152E+02  0.87853887602E+01  0.11789621099E+02  0.25480661846E+02  0.00000000000E+00 0. -1.
        -12    1    3    3    0    0 -0.11061101615E+02  0.43847026007E+01 -0.78340864044E+02  0.79239286753E+02  0.00000000000E+00 0.  1.
          5    1    4    4  501    0 -0.28708431923E+02  0.16546229245E+02  0.11217661329E+03  0.11704279873E+03  0.41800000000E+01 0. -1.
         -5    1    4    4    0  501  0.92606891539E+02 -0.48020807106E+02  0.16410599762E+03  0.19450009031E+03  0.41800000000E+01 0. -1.
</event>
<event>
11    1  0.6455215E-009  0.1382265E+03  0.7561462E-02  0.1109555E+00
         22   -1    0    0    0    0  0.00000000000E+00  0.00000000000E+00  0.22183361490E+04  0.22183361490E+04  0.00000000000E+00 0.  1.
         22   -1    0    0    0    0 -0.00000000000E+00 -0.00000000000E+00 -0.12255081910E+03  0.12255081910E+03  0.00000000000E+00 0. -1.
        -24    2    1    2    0    0  0.15213813148E+02 -0.56444912130E+02 -0.89590710536E+02  0.13429012687E+03  0.81177919077E+02 0.  0.
         25    2    1    2    0    0  0.90336288109E-02  0.69652047799E+02  0.52402393498E+03  0.54323069277E+03  0.12508834197E+03 0.  0.
         24    2    1    2    0    0 -0.15222846776E+02 -0.13207135669E+02  0.16613521055E+04  0.16633661485E+04  0.79309280898E+02 0.  0.
        -11    1    5    5    0    0  0.19394077476E+02  0.98568281359E+01  0.11854507057E+04  0.11856503122E+04  0.00000000000E+00 0.  1.
         12    1    5    5    0    0 -0.34616924252E+02 -0.23063963805E+02  0.47590139980E+03  0.47771583625E+03  0.00000000000E+00 0. -1.
         11    1    3    3    0    0 -0.11366288534E+02 -0.17978989316E+02 -0.84641045400E+02  0.87272808700E+02  0.00000000000E+00 0. -1.
        -12    1    3    3    0    0  0.26580101682E+02 -0.38465922815E+02 -0.49496651360E+01  0.47017318175E+02  0.00000000000E+00 0.  1.
          5    1    4    4  501    0 -0.34778199893E+02  0.51873601702E+02  0.48064510992E+03  0.48470360823E+03  0.41800000000E+01 0. -1.
         -5    1    4    4    0  501  0.34787233522E+02  0.17778446098E+02  0.43378825062E+02  0.58527084546E+02  0.41800000000E+01 0. -1.
</event>
<event>
11    1  0.6455215E-009  0.1763998E+03  0.7561462E-02  0.1072593E+00
         22   -1    0    0    0    0  0.00000000000E+00  0.00000000000E+00  0.66601122502E+03  0.66601122502E+03  0.00000000000E+00 0.  1.
         22   -1    0    0    0    0 -0.00000000000E+00 -0.00000000000E+00 -0.25461331828E+04  0.25461331828E+04  0.00000000000E+00 0. -1.
        -24    2    1    2    0    0 -0.80044737795E+02 -0.15141508001E+02 -0.24935055132E+04  0.24962662380E+04  0.84492372910E+02 0.  0.
         25    2    1    2    0    0  0.54927486584E+02 -0.11288425040E+03  0.16540353815E+03  0.24241885179E+03  0.12509471012E+03 0.  0.
         24    2    1    2    0    0  0.25117251211E+02  0.12802575840E+03  0.44798001735E+03  0.47345931799E+03  0.80350225434E+02 0.  0.
        -13    1    5    5    0    0  0.48262184721E+02  0.10439387037E+03  0.39110668453E+03  0.40766623276E+03  0.00000000000E+00 0.  1.
         14    1    5    5    0    0 -0.23144933510E+02  0.23631888030E+02  0.56873332818E+02  0.65793085236E+02  0.00000000000E+00 0. -1.
         11    1    3    3    0    0 -0.87999286466E+02 -0.35954147023E+02 -0.19987844074E+04  0.20010436483E+04  0.00000000000E+00 0. -1.
        -12    1    3    3    0    0  0.79545486707E+01  0.20812639021E+02 -0.49472110587E+03  0.49522258974E+03  0.00000000000E+00 0.  1.
          5    1    4    4  501    0  0.80575665756E+02 -0.27426002137E+02  0.10182787128E+03  0.13278181831E+03  0.41800000000E+01 0. -1.
         -5    1    4    4    0  501 -0.25648179172E+02 -0.85458248266E+02  0.63575666876E+02  0.10963703348E+03  0.41800000000E+01 0. -1.
</event>
<event>
11    1  0.6455215E-009  0.1696764E+03  0.7561462E-02  0.1078314E+00
         22   -1    0    0    0    0  0.00000000000E+00  0.00000000000E+00  0.25861692015E+04  0.25861692015E+04  0.00000000000E+00 0. -1.
         22   -1    0    0    0    0 -0.00000000000E+00 -0.00000000000E+00 -0.64612330571E+03  0.64612330571E+03  0.00000000000E+00 0. -1.
         24    2    1    2    0    0  0.76969034914E+02  0.85379331375E+02 -0.62315940526E+03  0.63867763385E+03  0.79797324832E+02 0.  0.
         25    2    1    2    0    0 -0.85260305631E+02 -0.53118265967E+02  0.43632751436E+03  0.46488720021E+03  0.12509012445E+03 0.  0.
        -24    2    1    2    0    0  0.82912707166E+01 -0.32261065408E+02  0.21268777867E+04  0.21287276732E+04  0.82236642700E+02 0.  0.
        -13    1    3    3    0    0  0.16058547225E+01  0.35942114990E+02 -0.75298447472E+02  0.83452205430E+02  0.00000000000E+00 0.  1.
         14    1    3    3    0    0  0.75363180192E+02  0.49437216384E+02 -0.54786095779E+03  0.55522542842E+03  0.00000000000E+00 0. -1.
         11    1    5    5    0    0  0.44114279067E+02 -0.27511111671E+02  0.13737671361E+04  0.13747505502E+04  0.00000000000E+00 0. -1.
        -12    1    5    5    0    0 -0.35823008350E+02 -0.47499537369E+01  0.75311065058E+03  0.75397712300E+03  0.00000000000E+00 0.  1.
          5    1    4    4  501    0 -0.61012380404E+02 -0.92743746611E+02  0.34319534497E+03  0.36072764006E+03  0.41800000000E+01 0. -1.
         -5    1    4    4    0  501 -0.24247925227E+02  0.39625480644E+02  0.93132169395E+02  0.10415956015E+03  0.41800000000E+01 0. -1.
</event>
<event>
11    1  0.6455215E-009  0.1556479E+03  0.7561462E-02  0.1091244E+00
         22   -1    0    0    0    0  0.00000000000E+00  0.00000000000E+00  0.28399690193E+03  0.28399690193E+03  0.00000000000E+00 0. -1.
         22   -1    0    0    0    0 -0.00000000000E+00 -0.00000000000E+00 -0.38603147469E+03  0.38603147469E+03  0.00000000000E+00 0. -1.
         24    2    1    2    0    0 -0.21904086136E+02  0.87464137299E+02 -0.30346139658E+03  0.32644016633E+03  0.79652989111E+02 0.  0.
         25    2    1    2    0    0  0.20746052951E+02 -0.11804186215E+03  0.66198962755E+02  0.18545412594E+03  0.12508657092E+03 0.  0.
        -24    2    1    2    0    0  0.11580331849E+01  0.30577724850E+02  0.13522786107E+03  0.15813408436E+03  0.76049167845E+02 0.  0.
        -11    1    3    3    0    0 -0.15415821103E+02 -0.12551789660E+02 -0.57639331215E+02  0.60971201947E+02  0.00000000000E+00 0.  1.
         12    1    3    3    0    0 -0.64882650329E+01  0.10001592696E+03 -0.24582206537E+03  0.26546896438E+03  0.00000000000E+00 0. -1.
         11    1    5    5    0    0 -0.15734645280E+02 -0.82153092345E+01  0.10410884323E+03  0.10561118126E+03  0.00000000000E+00 0. -1.
        -12    1    5    5    0    0  0.16892678465E+02  0.38793034084E+02  0.31119017836E+02  0.52522903102E+02  0.00000000000E+00 0.  1.
          5    1    4    4  501    0 -0.18631700820E+02 -0.20445006932E+02  0.74720339127E+02  0.79785588067E+02  0.41800000000E+01 0.  1.
         -5    1    4    4    0  501  0.39377753771E+02 -0.97596855217E+02 -0.85213763718E+01  0.10566853787E+03  0.41800000000E+01 0.  1.
</event>
<event>
11    1  0.6789179E-009  0.1514471E+03  0.7561462E-02  0.1095409E+00
         22   -1    0    0    0    0  0.00000000000E+00  0.00000000000E+00  0.24198611395E+03  0.24198611395E+03  0.00000000000E+00 0. -1.
         22   -1    0    0    0    0 -0.00000000000E+00 -0.00000000000E+00 -0.12466298519E+04  0.12466298519E+04  0.00000000000E+00 0.  1.
        -24    2    1    2    0    0  0.13236447549E+02  0.17361079910E+02 -0.89168358793E+03  0.89638239522E+03  0.89023406106E+02 0.  0.
         25    2    1    2    0    0  0.66839613285E+02  0.14506956060E+02 -0.32226677265E+03  0.35239343936E+03  0.12508907894E+03 0.  0.
         24    2    1    2    0    0 -0.80076060834E+02 -0.31868035970E+02  0.20930662260E+03  0.23984013131E+03  0.79286058584E+02 0.  0.
        -11    1    5    5    0    0  0.77886178917E+01  0.14211396292E+02  0.45845282461E+02  0.48625263775E+02  0.00000000000E+00 0.  1.
         12    1    5    5    0    0 -0.87864678726E+02 -0.46079432263E+02  0.16346134014E+03  0.19121486753E+03  0.00000000000E+00 0. -1.
         13    1    3    3    0    0  0.17055912432E+02 -0.19760628538E+02 -0.86943641903E+02  0.90777659457E+02  0.00000000000E+00 0. -1.
        -14    1    3    3    0    0 -0.38194648827E+01  0.37121708449E+02 -0.80473994602E+03  0.80560473576E+03  0.00000000000E+00 0.  1.
          5    1    4    4  501    0  0.29177565686E+01 -0.86558484810E+01 -0.25972536652E+03  0.25991955569E+03  0.41800000000E+01 0. -1.
         -5    1    4    4    0  501  0.63921856716E+02  0.23162804541E+02 -0.62541406135E+02  0.92473883673E+02  0.41800000000E+01 0. -1.
</event>
<event>
11    1  0.6455215E-009  0.1330736E+03  0.7561462E-02  0.1115549E+00
         22   -1    0    0    0    0  0.00000000000E+00  0.00000000000E+00  0.10078583777E+04  0.10078583777E+04  0.00000000000E+00 0.  1.
         22   -1    0    0    0    0 -0.00000000000E+00 -0.00000000000E+00 -0.99469026206E+03  0.99469026206E+03  0.00000000000E+00 0.  1.
        -24    2    1    2    0    0  0.74413170443E+01  0.29122072149E+02 -0.96923110555E+03  0.97316165101E+03  0.82043858758E+02 0.  0.
         25    2    1    2    0    0 -0.42919565080E+02  0.15319007497E+01  0.19029938538E+03  0.23174192398E+03  0.12508408159E+03 0.  0.
         24    2    1    2    0    0  0.35478248035E+02 -0.30653972899E+02  0.79209983583E+03  0.79764506480E+03  0.81345727177E+02 0.  0.
        -11    1    5    5    0    0  0.47904301501E+02 -0.38496344164E+02  0.35371590820E+03  0.35901495001E+03  0.00000000000E+00 0.  1.
         12    1    5    5    0    0 -0.12426053465E+02  0.78423712654E+01  0.43838392764E+03  0.43863011479E+03  0.00000000000E+00 0. -1.
         13    1    3    3    0    0 -0.34685818830E+02 -0.23135874622E+01 -0.36976767080E+03  0.37139815439E+03  0.00000000000E+00 0. -1.
        -14    1    3    3    0    0  0.42127135874E+02  0.31435659611E+02 -0.59946343474E+03  0.60176349662E+03  0.00000000000E+00 0.  1.
          5    1    4    4  501    0 -0.84010202061E+02 -0.18382500809E+02  0.13145958572E+03  0.15714555502E+03  0.41800000000E+01 0. -1.
         -5    1    4    4    0  501  0.41090636981E+02  0.19914401559E+02  0.58839799666E+02  0.74596368958E+02  0.41800000000E+01 0. -1.
</event>
<event>
11    1  0.6455215E-009  0.1618282E+03  0.7561462E-02  0.1085370E+00
         22   -1    0    0    0    0  0.00000000000E+00  0.00000000000E+00  0.10991335538E+04  0.10991335538E+04  0.00000000000E+00 0. -1.
         22   -1    0    0    0    0 -0.00000000000E+00 -0.00000000000E+00 -0.39185698787E+03  0.39185698787E+03  0.00000000000E+00 0. -1.
        -24    2    1    2    0    0 -0.10886088049E+02  0.10005639024E+03 -0.33184124901E+03  0.35666746391E+03  0.83446252897E+02 0.  0.
         25    2    1    2    0    0  0.85100451864E+02 -0.13009974921E+03  0.18308579481E+03  0.27080288525E+03  0.12508302343E+03 0.  0.
         24    2    1    2    0    0 -0.74214363815E+02  0.30043358966E+02  0.85603202009E+03  0.86352019247E+03  0.80410995317E+02 0.  0.
        -13    1    5    5    0    0 -0.16805067969E+02  0.44553488161E+02  0.24204889454E+03  0.24668824650E+03  0.00000000000E+00 0.  1.
         14    1    5    5    0    0 -0.57409295846E+02 -0.14510129195E+02  0.61398312556E+03  0.61683194597E+03  0.00000000000E+00 0. -1.
         13    1    3    3    0    0 -0.40848525084E+02  0.46215713518E+02 -0.22531242097E+03  0.23360261390E+03  0.00000000000E+00 0. -1.
        -14    1    3    3    0    0  0.29962437036E+02  0.53840676726E+02 -0.10652882805E+03  0.12306485001E+03  0.00000000000E+00 0.  1.
          5    1    4    4  501    0  0.67706494137E+02 -0.49475824965E+02  0.16663958298E+03  0.18659648877E+03  0.41800000000E+01 0.  1.
         -5    1    4    4    0  501  0.17393957726E+02 -0.80623924245E+02  0.16446211829E+02  0.84206396488E+02  0.41800000000E+01 0.  1.
</event>
<event>
11    1  0.6455215E-009  0.3689324E+03  0.7561462E-02  0.9746151E-01
         22   -1    0    0    0    0  0.00000000000E+00  0.00000000000E+00  0.55534726357E+03  0.55534726357E+03  0.00000000000E+00 0. -1.
         22   -1    0    0    0    0 -0.00000000000E+00 -0.00000000000E+00 -0.24262722041E+04  0.24262722041E+04  0.00000000000E+00 0. -1.
        -24    2    1    2    0    0 -0.14436547777E+03  0.32819890224E+03 -0.21966848620E+04  0.22272054801E+04  0.80398735851E+02 0.  0.
         25    2    1    2    0    0  0.74093710430E+02 -0.25823596304E+03 -0.97349598527E+02  0.31193015571E+03  0.12509111549E+03 0.  0.
         24    2    1    2    0    0  0.70271767341E+02 -0.69962939198E+02  0.42310952005E+03  0.44248383187E+03  0.83290703941E+02 0.  0.
        -11    1    5    5    0    0  0.79774048283E+01 -0.66141622116E+02  0.19963094812E+03  0.21045395841E+03  0.00000000000E+00 0.  1.
         12    1    5    5    0    0  0.62294362512E+02 -0.38213170818E+01  0.22347857193E+03  0.23202987346E+03  0.00000000000E+00 0. -1.
         13    1    3    3    0    0 -0.13307367878E+03  0.30916436243E+03 -0.21407877639E+04  0.21670863982E+04  0.00000000000E+00 0. -1.
        -14    1    3    3    0    0 -0.11291798987E+02  0.19034539809E+02 -0.55897098123E+02  0.60119081901E+02  0.00000000000E+00 0.  1.
          5    1    4    4  501    0  0.87693368966E+02 -0.22995105856E+03 -0.11917636453E+03  0.27347412045E+03  0.41800000000E+01 0.  1.
         -5    1    4    4    0  501 -0.13599658536E+02 -0.28284904480E+02  0.21826766000E+02  0.38456035258E+02  0.41800000000E+01 0.  1.
</event>
<event>
11    1  0.6455215E-009  0.1466285E+03  0.7561462E-02  0.1100374E+00
         22   -1    0    0    0    0  0.00000000000E+00  0.00000000000E+00  0.11772816763E+04  0.11772816763E+04  0.00000000000E+00 0. -1.
         22   -1    0    0    0    0 -0.00000000000E+00 -0.00000000000E+00 -0.63200561121E+03  0.63200561121E+03  0.00000000000E+00 0.  1.
        -24    2    1    2    0    0 -0.25377848279E+02  0.72876625371E+02 -0.60192905201E+03  0.61202703636E+03  0.79394407096E+02 0.  0.
         25    2    1    2    0    0  0.70208272488E+02 -0.22387382996E+02  0.21699191908E+03  0.26108232051E+03  0.12509232067E+03 0.  0.
         24    2    1    2    0    0 -0.44830424209E+02 -0.50489242375E+02  0.93021319798E+03  0.93617793061E+03  0.81077700514E+02 0.  0.
        -13    1    5    5    0    0 -0.39013828675E+01 -0.33751332580E+02  0.11886120464E+03  0.12362183952E+03  0.00000000000E+00 0.  1.
         14    1    5    5    0    0 -0.40929041342E+02 -0.16737909795E+02  0.81135199335E+03  0.81255609108E+03  0.00000000000E+00 0. -1.
         13    1    3    3    0    0 -0.21400184555E+02  0.25567710724E+01 -0.37754562212E+02  0.43473117499E+02  0.00000000000E+00 0. -1.
        -14    1    3    3    0    0 -0.39776637236E+01  0.70319854299E+02 -0.56417448979E+03  0.56855391886E+03  0.00000000000E+00 0.  1.
          5    1    4    4  501    0 -0.18327444108E+02 -0.88648943108E+01  0.14393206481E+03  0.14542487146E+03  0.41800000000E+01 0. -1.
         -5    1    4    4    0  501  0.88535716595E+02 -0.13522488686E+02  0.73059854269E+02  0.11565744904E+03  0.41800000000E+01 0. -1.
</event>
<event>
11    1  0.6455215E-009  0.1375472E+03  0.7561462E-02  0.1110329E+00
         22   -1    0    0    0    0  0.00000000000E+00  0.00000000000E+00  0.13658535620E+03  0.13658535620E+03  0.00000000000E+00 0.  1.
         22   -1    0    0    0    0 -0.00000000000E+00 -0.00000000000E+00 -0.10057634907E+04  0.10057634907E+04  0.00000000000E+00 0.  1.
        -24    2    1    2    0    0 -0.46822698269E+02 -0.35424600605E+02 -0.90532815126E+03  0.91105968696E+03  0.83447134979E+02 0.  0.
         25    2    1    2    0    0 -0.13420217126E+01  0.20523655674E+02  0.40813843726E+02  0.13317538993E+03  0.12508754206E+03 0.  0.
         24    2    1    2    0    0  0.48164719982E+02  0.14900944931E+02 -0.46638269975E+01  0.98113770055E+02  0.84039765476E+02 0.  0.
        -11    1    5    5    0    0  0.42069492321E+01  0.15224256807E+01  0.36289003414E+02  0.36563752140E+02  0.00000000000E+00 0.  1.
         12    1    5    5    0    0  0.43957770750E+02  0.13378519251E+02 -0.40952830411E+02  0.61550017915E+02  0.00000000000E+00 0. -1.
         11    1    3    3    0    0 -0.41148534889E+02 -0.31934731411E+02 -0.23520148518E+03  0.24089991205E+03  0.00000000000E+00 0. -1.
        -12    1    3    3    0    0 -0.56741633805E+01 -0.34898691939E+01 -0.67012666608E+03  0.67015977491E+03  0.00000000000E+00 0.  1.
          5    1    4    4  501    0  0.31985207297E+02 -0.36286120748E+02  0.46121777568E+02  0.66965863026E+02  0.41800000000E+01 0.  1.
         -5    1    4    4    0  501 -0.33327229010E+02  0.56809776422E+02 -0.53079338419E+01  0.66209526900E+02  0.41800000000E+01 0.  1.
</event>
<event>
11    1  0.6455215E-009  0.1399466E+03  0.7561462E-02  0.1107618E+00
         22   -1    0    0    0    0  0.00000000000E+00  0.00000000000E+00  0.77058254874E+03  0.77058254874E+03  0.00000000000E+00 0.  1.
         22   -1    0    0    0    0 -0.00000000000E+00 -0.00000000000E+00 -0.55209391053E+03  0.55209391053E+03  0.00000000000E+00 0.  1.
        -24    2    1    2    0    0  0.49027361751E+02 -0.27490970775E+02 -0.39851867058E+03  0.41032352479E+03  0.79930147755E+02 0.  0.
         25    2    1    2    0    0 -0.66407293509E+02 -0.33123663957E+02 -0.10724898894E+03  0.18071263766E+03  0.12509039147E+03 0.  0.
         24    2    1    2    0    0  0.17379931758E+02  0.60614634732E+02  0.72425629773E+03  0.73164029682E+03  0.82305183019E+02 0.  0.
        -11    1    5    5    0    0  0.25615997964E+02  0.43695802356E+02  0.69507565370E+03  0.69691869459E+03  0.00000000000E+00 0.  1.
         12    1    5    5    0    0 -0.82360662056E+01  0.16918832376E+02  0.29180644032E+02  0.34721602234E+02  0.00000000000E+00 0. -1.
         11    1    3    3    0    0  0.19564321717E+02  0.16256847016E+02 -0.36538656599E+02  0.44521019589E+02  0.00000000000E+00 0. -1.
        -12    1    3    3    0    0  0.29463040034E+02 -0.43747817791E+02 -0.36198001398E+03  0.36580250520E+03  0.00000000000E+00 0.  1.
          5    1    4    4  501    0  0.23364030961E+02 -0.12596861936E+02 -0.80291936172E+02  0.84668921616E+02  0.41800000000E+01 0. -1.
         -5    1    4    4    0  501 -0.89771324470E+02 -0.20526802021E+02 -0.26957052772E+02  0.96043716049E+02  0.41800000000E+01 0. -1.
</event>
<event>
11    1  0.6455215E-009  0.1540252E+03  0.7561462E-02  0.1092835E+00
         22   -1    0    0    0    0  0.00000000000E+00  0.00000000000E+00  0.74122400263E+03  0.74122400263E+03  0.00000000000E+00 0.  1.
         22   -1    0    0    0    0 -0.00000000000E+00 -0.00000000000E+00 -0.62525104616E+03  0.62525104616E+03  0.00000000000E+00 0. -1.
         24    2    1    2    0    0  0.80418603446E+01  0.20722736055E+02 -0.51769050707E+03  0.52417375335E+03  0.79123696062E+02 0.  0.
         25    2    1    2    0    0 -0.43565998478E+02  0.62714877920E+02 -0.44671257407E+02  0.15321260704E+03  0.12508968615E+03 0.  0.
        -24    2    1    2    0    0  0.35524138133E+02 -0.83437613974E+02  0.67833472094E+03  0.68908868841E+03  0.80507310450E+02 0.  0.
        -13    1    3    3    0    0  0.14267837141E+02 -0.28626986317E+02 -0.17619319060E+03  0.17907293468E+03  0.00000000000E+00 0.  1.
         14    1    3    3    0    0 -0.62259767964E+01  0.49349722371E+02 -0.34149731648E+03  0.34510081867E+03  0.00000000000E+00 0. -1.
         13    1    5    5    0    0  0.15202051574E+02  0.14633943257E+02  0.12127523665E+03  0.12309726923E+03  0.00000000000E+00 0. -1.
        -14    1    5    5    0    0  0.20322086559E+02 -0.98071557231E+02  0.55705948430E+03  0.56599141918E+03  0.00000000000E+00 0.  1.
          5    1    4    4  501    0  0.12556673632E+02 -0.32070621694E+02 -0.11936923738E+01  0.34714436911E+02  0.41800000000E+01 0.  1.
         -5    1    4    4    0  501 -0.56122672110E+02  0.94785499614E+02 -0.43477565033E+02  0.11849817013E+03  0.41800000000E+01 0.  1.
</event>
<event>
11    1  0.6455215E-009  0.2180333E+03  0.7561462E-02  0.1042456E+00
         22   -1    0    0    0    0  0.00000000000E+00  0.00000000000E+00  0.10809146267E+04  0.10809146267E+04  0.00000000000E+00 0.  1.
         22   -1    0    0    0    0 -0.00000000000E+00 -0.00000000000E+00 -0.16142976305E+04  0.16142976305E+04  0.00000000000E+00 0.  1.
        -24    2    1    2    0    0  0.64645214881E+02  0.16559917011E+03 -0.12460555188E+04  0.12612443863E+04  0.80504391215E+02 0.  0.
         25    2    1    2    0    0  0.49701947208E+00 -0.19364368812E+03 -0.32026215147E+03  0.39460192945E+03  0.12507882348E+03 0.  0.
         24    2    1    2    0    0 -0.65142234353E+02  0.28044518004E+02  0.10329346665E+04  0.10393659415E+04  0.91090775453E+02 0.  0.
        -11    1    5    5    0    0 -0.85511791778E+02  0.13255578881E+02  0.89322157883E+03  0.89740334621E+03  0.00000000000E+00 0.  1.
         12    1    5    5    0    0  0.20369557425E+02  0.14788939123E+02  0.13971308765E+03  0.14196259526E+03  0.00000000000E+00 0. -1.
         13    1    3    3    0    0 -0.15407768446E+02  0.55051823398E+02 -0.30059759751E+03  0.30598532353E+03  0.00000000000E+00 0. -1.
        -14    1    3    3    0    0  0.80052983326E+02  0.11054734672E+03 -0.94545792129E+03  0.95525906273E+03  0.00000000000E+00 0.  1.
          5    1    4    4  501    0 -0.34164158320E+02 -0.68669433747E+02 -0.41936643501E+02  0.87514771970E+02  0.41800000000E+01 0.  1.
         -5    1    4    4    0  501  0.34661177792E+02 -0.12497425437E+03 -0.27832550797E+03  0.30708715748E+03  0.41800000000E+01 0.  1.
</event>
<event>
11    1  0.6455215E-009  0.1602351E+03  0.7561462E-02  0.1086856E+00
         22   -1    0    0    0    0  0.00000000000E+00  0.00000000000E+00  0.21477416998E+03  0.21477416998E+03  0.00000000000E+00 0. -1.
         22   -1    0    0    0    0 -0.00000000000E+00 -0.00000000000E+00 -0.59328251758E+03  0.59328251758E+03  0.00000000000E+00 0. -1.
         24    2    1    2    0    0 -0.67856109794E+02  0.68139199514E+02 -0.38846502482E+03  0.40807259345E+03  0.79817065012E+02 0.  0.
         25    2    1    2    0    0  0.11344569595E+03 -0.50036435476E+02 -0.13919345516E+03  0.22449257084E+03  0.12509406699E+03 0.  0.
        -24    2    1    2    0    0 -0.45589586154E+02 -0.18102764038E+02  0.14915013238E+03  0.17549152327E+03  0.78392552698E+02 0.  0.
        -11    1    3    3    0    0 -0.16974777964E+02  0.35536080637E+02 -0.47078214335E+02  0.61378452074E+02  0.00000000000E+00 0.  1.
         12    1    3    3    0    0 -0.50881331830E+02  0.32603118877E+02 -0.34138681049E+03  0.34669414138E+03  0.00000000000E+00 0. -1.
         13    1    5    5    0    0 -0.14063155237E+02 -0.69231965740E+01  0.13991476729E+03  0.14079007455E+03  0.00000000000E+00 0. -1.
        -14    1    5    5    0    0 -0.31526430916E+02 -0.11179567464E+02  0.92353650949E+01  0.34701448723E+02  0.00000000000E+00 0.  1.
          5    1    4    4  501    0  0.13144264772E+03 -0.24721549048E+02 -0.75837095351E+02  0.15380852401E+03  0.41800000000E+01 0. -1.
         -5    1    4    4    0  501 -0.17996951768E+02 -0.25314886428E+02 -0.63356359810E+02  0.70684046829E+02  0.41800000000E+01 0. -1.
</event>
<event>
11    1  0.6455215E-009  0.2162569E+03  0.7561462E-02  0.1043588E+00
         22   -1    0    0    0    0  0.00000000000E+00  0.00000000000E+00  0.46438469811E+04  0.46438469811E+04  0.00000000000E+00 0.  1.
         22   -1    0    0    0    0 -0.00000000000E+00 -0.00000000000E+00 -0.92189891140E+02  0.92189891140E+02  0.00000000000E+00 0. -1.
         24    2    1    2    0    0  0.46704366071E+02  0.89328706233E+02 -0.27019198934E+02  0.13159883621E+03  0.80170449745E+02 0.  0.
         25    2    1    2    0    0  0.10455299004E+03  0.37050517299E+02  0.68962552810E+03  0.70960195077E+03  0.12508993155E+03 0.  0.
        -24    2    1    2    0    0 -0.15125735611E+03 -0.12637922353E+03  0.38890507608E+04  0.38948360853E+04  0.78624519774E+02 0.  0.
        -11    1    3    3    0    0  0.13615114594E+02  0.19966883797E+02  0.28072226308E+02  0.37041836940E+02  0.00000000000E+00 0.  1.
         12    1    3    3    0    0  0.33089251477E+02  0.69361822435E+02 -0.55091425242E+02  0.94556999265E+02  0.00000000000E+00 0. -1.
         13    1    5    5    0    0 -0.11541511141E+02  0.44696140303E+00  0.57871890040E+02  0.59013235047E+02  0.00000000000E+00 0. -1.
        -14    1    5    5    0    0 -0.13971584497E+03 -0.12682618493E+03  0.38311788708E+04  0.38358228502E+04  0.00000000000E+00 0.  1.
          5    1    4    4  501    0  0.94559625815E+02  0.28668830119E+02  0.23749494738E+03  0.25726396383E+03  0.41800000000E+01 0. -1.
         -5    1    4    4    0  501  0.99933642215E+01  0.83816871795E+01  0.45213058072E+03  0.45233798694E+03  0.41800000000E+01 0. -1.
</event>
<event>
11    1  0.6455215E-009  0.1577849E+03  0.7561462E-02  0.1089179E+00
         22   -1    0    0    0    0  0.00000000000E+00  0.00000000000E+00  0.25312642606E+04  0.25312642606E+04  0.00000000000E+00 0. -1.
         22   -1    0    0    0    0 -0.00000000000E+00 -0.00000000000E+00 -0.23177764808E+03  0.23177764808E+03  0.00000000000E+00 0. -1.
        -24    2    1    2    0    0  0.10814826416E+02 -0.96435292805E+01 -0.21428037815E+03  0.23028104837E+03  0.83086236223E+02 0.  0.
         25    2    1    2    0    0 -0.10213589114E+03  0.29304065157E+02  0.89911573946E+03  0.91397312396E+03  0.12508912780E+03 0.  0.
         24    2    1    2    0    0  0.91321064721E+02 -0.19660535877E+02  0.16146512513E+04  0.16187877364E+04  0.68183566506E+02 0.  0.
        -11    1    5    5    0    0  0.11655266454E+02  0.18388937109E+02  0.56888674626E+03  0.56930319542E+03  0.00000000000E+00 0.  1.
         12    1    5    5    0    0  0.79665798267E+02 -0.38049472986E+02  0.10457645050E+04  0.10494845410E+04  0.00000000000E+00 0. -1.
         13    1    3    3    0    0  0.23881316901E+02 -0.19240327535E+02 -0.21164596998E+03  0.21385631651E+03  0.00000000000E+00 0. -1.
        -14    1    3    3    0    0 -0.13066490485E+02  0.95967982548E+01 -0.26344081711E+01  0.16424731863E+02  0.00000000000E+00 0.  1.
          5    1    4    4  501    0 -0.74537348879E+02 -0.39285438626E+02  0.59611950363E+03  0.60205904783E+03  0.41800000000E+01 0.  1.
         -5    1    4    4    0  501 -0.27598542258E+02  0.68589503784E+02  0.30299623583E+03  0.31191407614E+03  0.41800000000E+01 0.  1.
</event>
<event>
11    1  0.6455215E-009  0.1734464E+03  0.7561462E-02  0.1075071E+00
         22   -1    0    0    0    0  0.00000000000E+00  0.00000000000E+00  0.14711923289E+03  0.14711923289E+03  0.00000000000E+00 0. -1.
         22   -1    0    0    0    0 -0.00000000000E+00 -0.00000000000E+00 -0.18507080835E+04  0.18507080835E+04  0.00000000000E+00 0.  1.
        -24    2    1    2    0    0 -0.97350666410E+02  0.52359014539E+02 -0.13506519785E+04  0.13575693657E+04  0.80716769937E+02 0.  0.
         25    2    1    2    0    0  0.19599986989E+03 -0.86466960040E+02 -0.42373167371E+03  0.49100665689E+03  0.12508605691E+03 0.  0.
         24    2    1    2    0    0 -0.98649203478E+02  0.34107945500E+02  0.70794801570E+02  0.14925129386E+03  0.79806187076E+02 0.  0.
        -11    1    5    5    0    0 -0.61462821304E+02  0.32463900725E+02  0.27442961066E+00  0.69510132819E+02  0.00000000000E+00 0.  1.
         12    1    5    5    0    0 -0.37186382174E+02  0.16440447760E+01  0.70520371959E+02  0.79741161038E+02  0.00000000000E+00 0. -1.
         11    1    3    3    0    0 -0.29269358692E+02  0.61300770054E+02 -0.62865101073E+03  0.63231050367E+03  0.00000000000E+00 0. -1.
        -12    1    3    3    0    0 -0.68081307717E+02 -0.89417555141E+01 -0.72200096776E+03  0.72525886200E+03  0.00000000000E+00 0.  1.
          5    1    4    4  501    0  0.76629509518E+02 -0.69667193352E+02 -0.30345218442E+03  0.32066540223E+03  0.41800000000E+01 0. -1.
         -5    1    4    4    0  501  0.11937036037E+03 -0.16799766688E+02 -0.12027948928E+03  0.17034125466E+03  0.41800000000E+01 0. -1.
</event>
<event>
11    1  0.6455215E-009  0.1468616E+03  0.7561462E-02  0.1100129E+00
         22   -1    0    0    0    0  0.00000000000E+00  0.00000000000E+00  0.13665275579E+04  0.13665275579E+04  0.00000000000E+00 0. -1.
         22   -1    0    0    0    0 -0.00000000000E+00 -0.00000000000E+00 -0.18744351078E+04  0.18744351078E+04  0.00000000000E+00 0.  1.
        -24    2    1    2    0    0  0.73667194985E+02 -0.23291005150E+02 -0.17947428502E+04  0.17982910509E+04  0.82337591841E+02 0.  0.
         25    2    1    2    0    0 -0.80573304003E+02 -0.49654781534E+02  0.57631085300E+01  0.15696570656E+03  0.12508942789E+03 0.  0.
         24    2    1    2    0    0  0.69061090186E+01  0.72945786684E+02  0.12810721917E+04  0.12857059082E+04  0.80777100214E+02 0.  0.
        -11    1    5    5    0    0 -0.33251979176E+02  0.15831022985E+02  0.57916701938E+03  0.58033675719E+03  0.00000000000E+00 0.  1.
         12    1    5    5    0    0  0.40158088195E+02  0.57114763699E+02  0.70190517236E+03  0.70536915105E+03  0.00000000000E+00 0. -1.
         11    1    3    3    0    0  0.11419682220E+02  0.27647465342E+01 -0.11436982530E+04  0.11437586052E+04  0.00000000000E+00 0. -1.
        -12    1    3    3    0    0  0.62247512765E+02 -0.26055751684E+02 -0.65104459718E+03  0.65453244576E+03  0.00000000000E+00 0.  1.
          5    1    4    4  501    0  0.27283917285E+02 -0.16186832588E+02  0.27134956918E+02  0.41954784931E+02  0.41800000000E+01 0.  1.
         -5    1    4    4    0  501 -0.10785722129E+03 -0.33467948946E+02 -0.21371848388E+02  0.11501092163E+03  0.41800000000E+01 0.  1.
</event>
<event>
11    1  0.6455215E-009  0.1650703E+03  0.7561462E-02  0.1082403E+00
         22   -1    0    0    0    0  0.00000000000E+00  0.00000000000E+00  0.44227170489E+03  0.44227170489E+03  0.00000000000E+00 0. -1.
         22   -1    0    0    0    0 -0.00000000000E+00 -0.00000000000E+00 -0.76228560250E+03  0.76228560250E+03  0.00000000000E+00 0.  1.
         24    2    1    2    0    0  0.17699738217E+02  0.19359644929E+02 -0.62261137706E+03  0.62822821462E+03  0.79609586261E+02 0.  0.
         25    2    1    2    0    0 -0.77214862416E+02  0.71038660151E+02 -0.72049021378E+02  0.17845794542E+03  0.12509016983E+03 0.  0.
        -24    2    1    2    0    0  0.59515124199E+02 -0.90398305080E+02  0.37464650082E+03  0.39787114735E+03  0.78914800559E+02 0.  0.
        -13    1    3    3    0    0 -0.17460853145E+02  0.10046923895E+02 -0.49824339442E+03  0.49865048096E+03  0.00000000000E+00 0.  1.
         14    1    3    3    0    0  0.35160591362E+02  0.93127210339E+01 -0.12436798263E+03  0.12957773367E+03  0.00000000000E+00 0. -1.
         13    1    5    5    0    0  0.75296036891E+02 -0.49504618111E+02  0.25150807771E+03  0.26716383277E+03  0.00000000000E+00 0. -1.
        -14    1    5    5    0    0 -0.15780912692E+02 -0.40893686969E+02  0.12313842311E+03  0.13070731458E+03  0.00000000000E+00 0.  1.
          5    1    4    4  501    0  0.13583709969E+02  0.44736928801E+02 -0.69416646230E+02  0.83797691787E+02  0.41800000000E+01 0.  1.
         -5    1    4    4    0  501 -0.90798572385E+02  0.26301731351E+02 -0.26323751476E+01  0.94660253634E+02  0.41800000000E+01 0.  1.
</event>
<event>
11    1  0.6455215E-009  0.1565713E+03  0.7561462E-02  0.1090347E+00
         22   -1    0    0    0    0  0.00000000000E+00  0.00000000000E+00  0.48614353264E+03  0.48614353264E+03  0.00000000000E+00 0.  1.
         22   -1    0    0    0    0 -0.00000000000E+00 -0.00000000000E+00 -0.22535085708E+04  0.22535085708E+04  0.00000000000E+00 0. -1.
         24    2    1    2    0    0 -0.89633392013E+02 -0.27624085204E+02 -0.21932459212E+04  0.21967541791E+04  0.81265107651E+02 0.  0.
         25    2    1    2    0    0  0.12868256535E+03  0.12376192351E+02  0.10273997683E+03  0.20716192329E+03  0.12509271306E+03 0.  0.
        -24    2    1    2    0    0 -0.39049173340E+02  0.15247892854E+02  0.32314090613E+03  0.33573600108E+03  0.80878186348E+02 0.  0.
        -13    1    3    3    0    0 -0.76482459493E+01 -0.39891709604E+02 -0.82498714333E+03  0.82598645923E+03  0.00000000000E+00 0.  1.
         14    1    3    3    0    0 -0.81985146064E+02  0.12267624400E+02 -0.13682587778E+04  0.13707677199E+04  0.00000000000E+00 0. -1.
         11    1    5    5    0    0 -0.16999847253E+02 -0.98486316997E-01  0.68854133648E+01  0.18341576360E+02  0.00000000000E+00 0. -1.
        -12    1    5    5    0    0 -0.22049326087E+02  0.15346379171E+02  0.31625549277E+03  0.31739442472E+03  0.00000000000E+00 0.  1.
          5    1    4    4  501    0 -0.13336623704E+02  0.51793658650E+00  0.55086620057E+02  0.56834337327E+02  0.41800000000E+01 0.  1.
         -5    1    4    4    0  501  0.14201918906E+03  0.11858255764E+02  0.47653356769E+02  0.15032758596E+03  0.41800000000E+01 0.  1.
</event>
<event>
11    1  0.6455215E-009  0.2575218E+03  0.7561462E-02  0.1019967E+00
         22   -1    0    0    0    0  0.00000000000E+00  0.00000000000E+00  0.65854356150E+03  0.65854356150E+03  0.00000000000E+00 0.  1.
         22   -1    0    0    0    0 -0.00000000000E+00 -0.00000000000E+00 -0.15976846440E+04  0.15976846440E+04  0.00000000000E+00 0. -1.
        -24    2    1    2    0    0  0.15114512561E+03  0.83211683650E+02 -0.14849958679E+04  0.14971893636E+04  0.81204860565E+02 0.  0.
         25    2    1    2    0    0 -0.27469865885E+03  0.50999701914E+02  0.44365089476E+03  0.53901334326E+03  0.12509574343E+03 0.  0.
         24    2    1    2    0    0  0.12355353323E+03 -0.13421138556E+03  0.10220389067E+03  0.22002549866E+03  0.68464685815E+02 0.  0.
        -13    1    5    5    0    0  0.12281396853E+03 -0.10023475661E+03  0.70306604435E+02  0.17341653879E+03  0.00000000000E+00 0.  1.
         14    1    5    5    0    0  0.73956470181E+00 -0.33976628959E+02  0.31897286233E+02  0.46608959872E+02  0.00000000000E+00 0. -1.
         11    1    3    3    0    0  0.15123549876E+03  0.54830617415E+02 -0.13205542685E+04  0.13303165596E+04  0.00000000000E+00 0. -1.
        -12    1    3    3    0    0 -0.90373142049E-01  0.28381066235E+02 -0.16444159938E+03  0.16687280394E+03  0.00000000000E+00 0.  1.
          5    1    4    4  501    0 -0.11517534542E+03 -0.40402127194E+02  0.17062685538E+03  0.20983014143E+03  0.41800000000E+01 0. -1.
         -5    1    4    4    0  501 -0.15952331343E+03  0.91401829108E+02  0.27302403938E+03  0.32918320184E+03  0.41800000000E+01 0. -1.
</event>
<event>
11    1  0.6455215E-009  0.1334072E+03  0.7561462E-02  0.1115152E+00
         22   -1    0    0    0    0  0.00000000000E+00  0.00000000000E+00  0.10543441710E+04  0.10543441710E+04  0.00000000000E+00 0.  1.
         22   -1    0    0    0    0 -0.00000000000E+00 -0.00000000000E+00 -0.24891884921E+03  0.24891884921E+03  0.00000000000E+00 0.  1.
         24    2    1    2    0    0  0.43079456058E+02 -0.17733537078E+02 -0.14459427125E+03  0.17318476333E+03  0.83157327395E+02 0.  0.
         25    2    1    2    0    0 -0.31839075701E+02  0.38895571762E+02 -0.36782854616E+02  0.13973891211E+03  0.12508953961E+03 0.  0.
        -24    2    1    2    0    0 -0.11240380356E+02 -0.21162034683E+02  0.98680244762E+03  0.99033934473E+03  0.80117221766E+02 0.  0.
        -11    1    3    3    0    0  0.48326925116E+02 -0.45891435986E+02 -0.10311402898E+03  0.12277629478E+03  0.00000000000E+00 0.  1.
         12    1    3    3    0    0 -0.52474690586E+01  0.28157898908E+02 -0.41480242277E+02  0.50408468552E+02  0.00000000000E+00 0. -1.
         11    1    5    5    0    0 -0.14869733040E+02  0.29379618123E+02  0.40027851249E+03  0.40163062443E+03  0.00000000000E+00 0. -1.
        -12    1    5    5    0    0  0.36293526840E+01 -0.50541652807E+02  0.58652393513E+03  0.58870872030E+03  0.00000000000E+00 0.  1.
          5    1    4    4  501    0 -0.68999958353E+02  0.40157375629E+02  0.91825941357E+01  0.80469879491E+02  0.41800000000E+01 0. -1.
         -5    1    4    4    0  501  0.37160882652E+02 -0.12618038672E+01 -0.45965448751E+02  0.59269032617E+02  0.41800000000E+01 0. -1.
</event>
<event>
11    1  0.6455215E-009  0.1495386E+03  0.7561462E-02  0.1097351E+00
         22   -1    0    0    0    0  0.00000000000E+00  0.00000000000E+00  0.79661786690E+02  0.79661786690E+02  0.00000000000E+00 0. -1.
         22   -1    0    0    0    0 -0.00000000000E+00 -0.00000000000E+00 -0.17093567392E+04  0.17093567392E+04  0.00000000000E+00 0.  1.
        -24    2    1    2    0    0  0.26719277631E+02 -0.13460554286E+02 -0.90071489855E+03  0.90459171343E+03  0.78126392543E+02 0.  0.
         25    2    1    2    0    0 -0.10304926080E+03 -0.12760200911E+02 -0.75036545535E+03  0.76777340846E+03  0.12508284166E+03 0.  0.
         24    2    1    2    0    0  0.76329983166E+02  0.26220755197E+02  0.21385401403E+02  0.11665340399E+03  0.81467091124E+02 0.  0.
        -11    1    5    5    0    0  0.64329036764E+02  0.41762989598E+02 -0.12286161643E+02  0.77674461949E+02  0.00000000000E+00 0.  1.
         12    1    5    5    0    0  0.12000946402E+02 -0.15542234401E+02  0.33671563046E+02  0.38978942042E+02  0.00000000000E+00 0. -1.
         11    1    3    3    0    0 -0.11693134280E+02 -0.33355562515E+01 -0.23335692455E+02  0.26313682128E+02  0.00000000000E+00 0. -1.
        -12    1    3    3    0    0  0.38412411911E+02 -0.10124998035E+02 -0.87737920610E+03  0.87827803130E+03  0.00000000000E+00 0.  1.
          5    1    4    4  501    0 -0.96133618211E+02 -0.60692758119E+02 -0.54241577758E+03  0.55421803616E+03  0.41800000000E+01 0.  1.
         -5    1    4    4    0  501 -0.69156425860E+01  0.47932557209E+02 -0.20794967777E+03  0.21355537230E+03  0.41800000000E+01 0.  1.
</event>
<event>
11    1  0.6455215E-009  0.1305622E+03  0.7561462E-02  0.1118580E+00
         22   -1    0    0    0    0  0.00000000000E+00  0.00000000000E+00  0.67757457454E+03  0.67757457454E+03  0.00000000000E+00 0.  1.
         22   -1    0    0    0    0 -0.00000000000E+00 -0.00000000000E+00 -0.19592079514E+04  0.19592079514E+04  0.00000000000E+00 0. -1.
        -24    2    1    2    0    0  0.25504173313E+02 -0.14589497078E+02 -0.19310172692E+04  0.19329206718E+04  0.80568688062E+02 0.  0.
         25    2    1    2    0    0  0.74109001847E+01  0.35877988235E+02  0.16003081505E+03  0.20639825552E+03  0.12509287205E+03 0.  0.
         24    2    1    2    0    0 -0.32915073498E+02 -0.21288491157E+02  0.48935307729E+03  0.49746359856E+03  0.80417633172E+02 0.  0.
        -13    1    5    5    0    0 -0.17738778632E+02 -0.52119904403E+02  0.29375654956E+03  0.29887130861E+03  0.00000000000E+00 0.  1.
         14    1    5    5    0    0 -0.15176294865E+02  0.30831413246E+02  0.19559652773E+03  0.19859228995E+03  0.00000000000E+00 0. -1.
         11    1    3    3    0    0  0.32458397082E+02 -0.22278548616E+02 -0.18958095496E+04  0.18962182706E+04  0.00000000000E+00 0. -1.
        -12    1    3    3    0    0 -0.69542237693E+01  0.76890515380E+01 -0.35207719590E+02  0.36702401291E+02  0.00000000000E+00 0.  1.
          5    1    4    4  501    0  0.29360505176E+02 -0.32097629877E+02  0.11198651137E+03  0.12021126501E+03  0.41800000000E+01 0.  1.
         -5    1    4    4    0  501 -0.21949604991E+02  0.67975618112E+02  0.48044303681E+02  0.86186990510E+02  0.41800000000E+01 0.  1.
</event>
<event>
11    1  0.6455215E-009  0.1531232E+03  0.7561462E-02  0.1093730E+00
         22   -1    0    0    0    0  0.00000000000E+00  0.00000000000E+00  0.52023549034E+03  0.52023549034E+03  0.00000000000E+00 0. -1.
         22   -1    0    0    0    0 -0.00000000000E+00 -0.00000000000E+00 -0.47872338297E+03  0.47872338297E+03  0.00000000000E+00 0. -1.
         24    2    1    2    0    0  0.45256587494E+02 -0.21357033390E+02 -0.41568550101E+03  0.42623005020E+03  0.79833190805E+02 0.  0.
         25    2    1    2    0    0 -0.39628918227E+02 -0.70525084834E+02  0.67380466886E+02  0.16349763994E+03  0.12508841751E+03 0.  0.
        -24    2    1    2    0    0 -0.56276692673E+01  0.91882118223E+02  0.38981714149E+03  0.40923118318E+03  0.83897337115E+02 0.  0.
        -11    1    3    3    0    0 -0.54106572892E+01 -0.30250556333E+02 -0.66274375648E+02  0.73052475922E+02  0.00000000000E+00 0.  1.
         12    1    3    3    0    0  0.50667244783E+02  0.88935229430E+01 -0.34941112536E+03  0.35317757427E+03  0.00000000000E+00 0. -1.
         11    1    5    5    0    0  0.32334404742E+02  0.70689773524E+02  0.29232911125E+03  0.30248779660E+03  0.00000000000E+00 0. -1.
        -12    1    5    5    0    0 -0.37962074009E+02  0.21192344699E+02  0.97488030245E+02  0.10674338658E+03  0.00000000000E+00 0.  1.
          5    1    4    4  501    0  0.78925899198E+00 -0.74498930444E+02 -0.10703559375E+02  0.75384031136E+02  0.41800000000E+01 0.  1.
         -5    1    4    4    0  501 -0.40418177219E+02  0.39738456099E+01  0.78084026261E+02  0.88113608800E+02  0.41800000000E+01 0.  1.
</event>
<event>
11    1  0.6455215E-009  0.1467339E+03  0.7561462E-02  0.1100264E+00
         22   -1    0    0    0    0  0.00000000000E+00  0.00000000000E+00  0.32307454721E+03  0.32307454721E+03  0.00000000000E+00 0. -1.
         22   -1    0    0    0    0 -0.00000000000E+00 -0.00000000000E+00 -0.17971390901E+03  0.17971390901E+03  0.00000000000E+00 0.  1.
         24    2    1    2    0    0 -0.71619744151E+02  0.17956592475E+02 -0.95822894413E+02  0.14642587131E+03  0.82502616509E+02 0.  0.
         25    2    1    2    0    0  0.91784546254E+02 -0.53150709450E+01  0.73899798019E+02  0.17193245976E+03  0.12508771986E+03 0.  0.
        -24    2    1    2    0    0 -0.20164802104E+02 -0.12641521530E+02  0.16528373459E+03  0.18443012515E+03  0.78290042978E+02 0.  0.
        -11    1    3    3    0    0 -0.73019822108E+01  0.49589761524E+01 -0.77907895810E+02  0.78406317464E+02  0.00000000000E+00 0.  1.
         12    1    3    3    0    0 -0.64317761940E+02  0.12997616323E+02 -0.17914998603E+02  0.68019553850E+02  0.00000000000E+00 0. -1.
         11    1    5    5    0    0 -0.17018038756E+02  0.27373867012E+02  0.11841095022E+03  0.12271958022E+03  0.00000000000E+00 0. -1.
        -12    1    5    5    0    0 -0.31467633475E+01 -0.40015388542E+02  0.46872784379E+02  0.61710544927E+02  0.00000000000E+00 0.  1.
          5    1    4    4  501    0  0.10164913019E+03 -0.27651115304E+02  0.13046426769E+02  0.10622999339E+03  0.41800000000E+01 0. -1.
         -5    1    4    4    0  501 -0.98645839319E+01  0.22336044359E+02  0.60853371250E+02  0.65702466363E+02  0.41800000000E+01 0. -1.
</event>
<event>
11    1  0.6956545E-009  0.1613427E+03  0.7561462E-02  0.1085821E+00
         22   -1    0    0    0    0  0.00000000000E+00  0.00000000000E+00  0.42173182800E+03  0.42173182800E+03  0.00000000000E+00 0. -1.
         22   -1    0    0    0    0 -0.00000000000E+00 -0.00000000000E+00 -0.21506885346E+04  0.21506885346E+04  0.00000000000E+00 0.  1.
         24    2    1    2    0    0  0.35128526175E+01 -0.10642686377E+02 -0.18380441196E+04  0.18398485559E+04  0.80690248340E+02 0.  0.
         25    2    1    2    0    0  0.27202145603E+02 -0.86906013491E+02 -0.28153384342E+03  0.32125095188E+03  0.12509299414E+03 0.  0.
        -24    2    1    2    0    0 -0.30714998220E+02  0.97548699868E+02  0.39062125645E+03  0.41132085480E+03  0.78362743952E+02 0.  0.
        -11    1    3    3    0    0  0.12087602541E+01  0.20139465312E+01 -0.17930474610E+04  0.17930489995E+04  0.00000000000E+00 0.  1.
         12    1    3    3    0    0  0.23040923634E+01 -0.12656632909E+02 -0.44996658591E+02  0.46799556436E+02  0.00000000000E+00 0. -1.
         13    1    5    5    0    0  0.10140062091E+02  0.84930822841E+02  0.24201515836E+03  0.25668541525E+03  0.00000000000E+00 0. -1.
        -14    1    5    5    0    0 -0.40855060312E+02  0.12617877027E+02  0.14860609809E+03  0.15463543955E+03  0.00000000000E+00 0.  1.
          5    1    4    4  501    0 -0.24572958772E+02  0.42642060902E+01 -0.15417221981E+03  0.15623238946E+03  0.41800000000E+01 0.  1.
         -5    1    4    4    0  501  0.51775104375E+02 -0.91170219581E+02 -0.12736162361E+03  0.16501856241E+03  0.41800000000E+01 0.  1.
</event>
<event>
11    1  0.6455215E-009  0.1434189E+03  0.7561462E-02  0.1103800E+00
         22   -1    0    0    0    0  0.00000000000E+00  0.00000000000E+00  0.46741395103E+03  0.46741395103E+03  0.00000000000E+00 0.  1.
         22   -1    0    0    0    0 -0.00000000000E+00 -0.00000000000E+00 -0.27272368986E+03  0.27272368986E+03  0.00000000000E+00 0. -1.
        -24    2    1    2    0    0  0.61617230255E+02 -0.26587690986E+02 -0.20994213729E+03  0.23500497701E+03  0.81535574027E+02 0.  0.
         25    2    1    2    0    0 -0.90012765306E+02  0.79587915234E+02  0.14299906595E+03  0.22479522570E+03  0.12509047313E+03 0.  0.
         24    2    1    2    0    0  0.28395535051E+02 -0.53000224249E+02  0.26163333252E+03  0.28033743818E+03  0.80757342577E+02 0.  0.
        -11    1    5    5    0    0  0.24920162727E+02 -0.74539114206E+02  0.19589907339E+03  0.21107709732E+03  0.00000000000E+00 0.  1.
         12    1    5    5    0    0  0.34753723232E+01  0.21538889958E+02  0.65734259122E+02  0.69260340858E+02  0.00000000000E+00 0. -1.
         11    1    3    3    0    0  0.98183595271E+01  0.12354078830E+02 -0.13504444931E+03  0.13596332865E+03  0.00000000000E+00 0. -1.
        -12    1    3    3    0    0  0.51798870728E+02 -0.38941769816E+02 -0.74897687984E+02  0.99041648363E+02  0.00000000000E+00 0.  1.
          5    1    4    4  501    0 -0.21317695725E+02  0.90904051677E+02  0.43012551336E+02  0.10288606677E+03  0.41800000000E+01 0. -1.
         -5    1    4    4    0  501 -0.68695069580E+02 -0.11316136442E+02  0.99986514613E+02  0.12190915894E+03  0.41800000000E+01 0. -1.
</event>
<event>
11    1  0.6455215E-009  0.7367487E+03  0.7561462E-02  0.8979836E-01
         22   -1    0    0    0    0  0.00000000000E+00  0.00000000000E+00  0.39658294811E+03  0.39658294811E+03  0.00000000000E+00 0.  1.
         22   -1    0    0    0    0 -0.00000000000E+00 -0.00000000000E+00 -0.22919471222E+04  0.22919471222E+04  0.00000000000E+00 0. -1.
         24    2    1    2    0    0 -0.72280025961E+03 -0.19862734118E+03 -0.14853530333E+04  0.16658023483E+04  0.82041417652E+02 0.  0.
         25    2    1    2    0    0  0.67147042957E+03  0.12097325776E+03 -0.51263816492E+03  0.86252618219E+03  0.12508581029E+03 0.  0.
        -24    2    1    2    0    0  0.51329830036E+02  0.77654083420E+02  0.10262702414E+03  0.16020153978E+03  0.80419644001E+02 0.  0.
        -13    1    3    3    0    0 -0.38382326710E+03 -0.14740409986E+03 -0.79705441528E+03  0.89685227877E+03  0.00000000000E+00 0.  1.
         14    1    3    3    0    0 -0.33897699251E+03 -0.51223241317E+02 -0.68829861801E+03  0.76895006955E+03  0.00000000000E+00 0. -1.
         11    1    5    5    0    0  0.43347041657E+02  0.78811300144E+01  0.70125803620E+02  0.82817308361E+02  0.00000000000E+00 0. -1.
        -12    1    5    5    0    0  0.79827883790E+01  0.69772953406E+02  0.32501220517E+02  0.77384231419E+02  0.00000000000E+00 0.  1.
          5    1    4    4  501    0  0.19474231666E+03  0.93118058361E+02 -0.15025254314E+03  0.26303771937E+03  0.41800000000E+01 0.  1.
         -5    1    4    4    0  501  0.47672811291E+03  0.27855199401E+02 -0.36238562178E+03  0.59948846282E+03  0.41800000000E+01 0.  1.
</event>
<event>
11    1  0.6455215E-009  0.1996345E+03  0.7561462E-02  0.1054782E+00
         22   -1    0    0    0    0  0.00000000000E+00  0.00000000000E+00  0.78474175767E+03  0.78474175767E+03  0.00000000000E+00 0. -1.
         22   -1    0    0    0    0 -0.00000000000E+00 -0.00000000000E+00 -0.37244901341E+03  0.37244901341E+03  0.00000000000E+00 0. -1.
         24    2    1    2    0    0  0.14971510624E+03  0.62517540805E+02 -0.29539411454E+03  0.34685780724E+03  0.82034136749E+02 0.  0.
         25    2    1    2    0    0 -0.12860855807E+03  0.44110827253E+02  0.15313474987E+03  0.23996609000E+03  0.12509015326E+03 0.  0.
        -24    2    1    2    0    0 -0.21106548171E+02 -0.10662836806E+03  0.55455210893E+03  0.57036687383E+03  0.77299637734E+02 0.  0.
        -13    1    3    3    0    0  0.75176155292E+02 -0.33377856210E+01 -0.81259646915E+02  0.11075073523E+03  0.00000000000E+00 0.  1.
         14    1    3    3    0    0  0.74538950953E+02  0.65855326426E+02 -0.21413446763E+03  0.23610707201E+03  0.00000000000E+00 0. -1.
         11    1    5    5    0    0 -0.28719044116E+02 -0.10016720574E+03  0.54927792844E+03  0.55907467773E+03  0.00000000000E+00 0. -1.
        -12    1    5    5    0    0  0.76124959451E+01 -0.64611623190E+01  0.52741804862E+01  0.11292196103E+02  0.00000000000E+00 0.  1.
          5    1    4    4  501    0  0.54724341414E+01  0.13764877258E+02  0.85178269938E+02  0.86557665467E+02  0.41800000000E+01 0.  1.
         -5    1    4    4    0  501 -0.13408099222E+03  0.30345949996E+02  0.67956479930E+02  0.15340842454E+03  0.41800000000E+01 0.  1.
</event>
<event>
11    1  0.6455215E-009  0.1574252E+03  0.7561462E-02  0.1089524E+00
         22   -1    0    0    0    0  0.00000000000E+00  0.00000000000E+00  0.20997044161E+04  0.20997044161E+04  0.00000000000E+00 0. -1.
         22   -1    0    0    0    0 -0.00000000000E+00 -0.00000000000E+00 -0.13845422571E+04  0.13845422571E+04  0.00000000000E+00 0.  1.
         24    2    1    2    0    0 -0.24490380527E+02  0.84834223682E+02 -0.12823420741E+04  0.12878133604E+04  0.79154481409E+02 0.  0.
         25    2    1    2    0    0  0.93808918062E+02 -0.14848828884E+03  0.21643733669E+02  0.21671367033E+03  0.12508988236E+03 0.  0.
        -24    2    1    2    0    0 -0.69318537536E+02  0.63654065159E+02  0.19758604995E+04  0.19797196425E+04  0.80051544106E+02 0.  0.
        -13    1    3    3    0    0 -0.24344576459E+02  0.97990542845E+02 -0.98059333403E+03  0.98577791192E+03  0.00000000000E+00 0.  1.
         14    1    3    3    0    0 -0.14580406725E+00 -0.13156319163E+02 -0.30174874010E+03  0.30203544849E+03  0.00000000000E+00 0. -1.
         13    1    5    5    0    0 -0.39709812033E+02 -0.12499408813E+02  0.72320706011E+03  0.72440427676E+03  0.00000000000E+00 0. -1.
        -14    1    5    5    0    0 -0.29608725502E+02  0.76153473972E+02  0.12526534394E+04  0.12553153657E+04  0.00000000000E+00 0.  1.
          5    1    4    4  501    0  0.12359582709E+03 -0.12447568129E+03  0.72227315733E+01  0.17561253929E+03  0.41800000000E+01 0. -1.
         -5    1    4    4    0  501 -0.29786909025E+02 -0.24012607551E+02  0.14421002095E+02  0.41101131032E+02  0.41800000000E+01 0. -1.
</event>
<event>
11    1  0.6455215E-009  0.1935514E+03  0.7561462E-02  0.1059180E+00
         22   -1    0    0    0    0  0.00000000000E+00  0.00000000000E+00  0.51299667714E+03  0.51299667714E+03  0.00000000000E+00 0.  1.
         22   -1    0    0    0    0 -0.00000000000E+00 -0.00000000000E+00 -0.13069280930E+04  0.13069280930E+04  0.00000000000E+00 0.  1.
         24    2    1    2    0    0 -0.13735321376E+03  0.55527665446E+02 -0.12410960788E+04  0.12526248746E+04  0.82464372060E+02 0.  0.
         25    2    1    2    0    0  0.97599120307E+02 -0.11241248373E+03  0.13265668603E+03  0.23538959291E+03  0.12509320253E+03 0.  0.
        -24    2    1    2    0    0  0.39754093456E+02  0.56884818287E+02  0.31450797685E+03  0.33191030270E+03  0.80205430221E+02 0.  0.
        -13    1    3    3    0    0 -0.12035631898E+03  0.17753729185E+02 -0.10540209341E+04  0.10610188349E+04  0.00000000000E+00 0.  1.
         14    1    3    3    0    0 -0.16996894783E+02  0.37773936260E+02 -0.18707514467E+03  0.19160603969E+03  0.00000000000E+00 0. -1.
         13    1    5    5    0    0  0.54859460030E+01  0.34259198469E+02  0.34576066241E+02  0.48982574861E+02  0.00000000000E+00 0. -1.
        -14    1    5    5    0    0  0.34268147453E+02  0.22625619818E+02  0.27993191061E+03  0.28292772784E+03  0.00000000000E+00 0.  1.
          5    1    4    4  501    0  0.56115732670E+02 -0.41565603215E+02 -0.10072935489E+02  0.70679638179E+02  0.41800000000E+01 0.  1.
         -5    1    4    4    0  501  0.41483387637E+02 -0.70846880518E+02  0.14272962152E+03  0.16470995473E+03  0.41800000000E+01 0.  1.
</event>
<event>
11    1  0.6455215E-009  0.1436042E+03  0.7561462E-02  0.1103599E+00
         22   -1    0    0    0    0  0.00000000000E+00  0.00000000000E+00  0.75815030869E+02  0.75815030869E+02  0.00000000000E+00 0.  1.
         22   -1    0    0    0    0 -0.00000000000E+00 -0.00000000000E+00 -0.13717975602E+04  0.13717975602E+04  0.00000000000E+00 0. -1.
        -24    2    1    2    0    0 -0.64061743488E+02 -0.29022761903E+02 -0.11661869654E+04  0.11710895870E+04  0.80700402925E+02 0.  0.
         25    2    1    2    0    0  0.59322605205E+02  0.46146049496E+02 -0.12759145904E+03  0.19384531898E+03  0.12509115836E+03 0.  0.
         24    2    1    2    0    0  0.47391382836E+01 -0.17123287593E+02 -0.22041049396E+01  0.82677685044E+02  0.80716015238E+02 0.  0.
        -11    1    5    5    0    0  0.26127136001E+02  0.14391451897E+02  0.22427859897E+02  0.37319566220E+02  0.00000000000E+00 0.  1.
         12    1    5    5    0    0 -0.21387997717E+02 -0.31514739490E+02 -0.24631964836E+02  0.45358118824E+02  0.00000000000E+00 0. -1.
         13    1    3    3    0    0 -0.60635974646E+02 -0.15852031073E+02 -0.11386478455E+04  0.11403713976E+04  0.00000000000E+00 0. -1.
        -14    1    3    3    0    0 -0.34257688418E+01 -0.13170730831E+02 -0.27539119846E+02  0.30718189476E+02  0.00000000000E+00 0.  1.
          5    1    4    4  501    0 -0.36447903609E+02 -0.26278000597E+01 -0.45695017185E+02  0.58658861276E+02  0.41800000000E+01 0.  1.
         -5    1    4    4    0  501  0.95770508813E+02  0.48773849556E+02 -0.81896441850E+02  0.13518645770E+03  0.41800000000E+01 0.  1.
</event>
<event>
11    1  0.6455215E-009  0.1379084E+03  0.7561462E-02  0.1109917E+00
         22   -1    0    0    0    0  0.00000000000E+00  0.00000000000E+00  0.26686680735E+03  0.26686680735E+03  0.00000000000E+00 0. -1.
         22   -1    0    0    0    0 -0.00000000000E+00 -0.00000000000E+00 -0.40313861022E+03  0.40313861022E+03  0.00000000000E+00 0. -1.
         24    2    1    2    0    0  0.41706133334E+02 -0.37134596829E+02 -0.32217900101E+03  0.33744825334E+03  0.83388459349E+02 0.  0.
         25    2    1    2    0    0 -0.87315817074E+02  0.32837649296E+02  0.41753694948E+02  0.16153120524E+03  0.12508635458E+03 0.  0.
        -24    2    1    2    0    0  0.45609683740E+02  0.42969475329E+01  0.14415350320E+03  0.17102595898E+03  0.79818163047E+02 0.  0.
        -13    1    3    3    0    0 -0.23551254356E+02  0.62184480534E+00 -0.54947783652E+02  0.59785509959E+02  0.00000000000E+00 0.  1.
         14    1    3    3    0    0  0.65257387690E+02 -0.37756441635E+02 -0.26723121736E+03  0.27766274339E+03  0.00000000000E+00 0. -1.
         11    1    5    5    0    0  0.61168654698E+02  0.58635668505E+01  0.14264262227E+03  0.15531549640E+03  0.00000000000E+00 0. -1.
        -12    1    5    5    0    0 -0.15558970959E+02 -0.15666193176E+01  0.15108809297E+01  0.15710462583E+02  0.00000000000E+00 0.  1.
          5    1    4    4  501    0 -0.56987980210E+02  0.19873025066E+02  0.86640889679E+02  0.10567252802E+03  0.41800000000E+01 0.  1.
         -5    1    4    4    0  501 -0.30327836864E+02  0.12964624231E+02 -0.44887194731E+02  0.55858677223E+02  0.41800000000E+01 0.  1.
</event>
<event>
11    1  0.6455215E-009  0.1624935E+03  0.7561462E-02  0.1084755E+00
         22   -1    0    0    0    0  0.00000000000E+00  0.00000000000E+00  0.13957533671E+04  0.13957533671E+04  0.00000000000E+00 0. -1.
         22   -1    0    0    0    0 -0.00000000000E+00 -0.00000000000E+00 -0.23482859738E+03  0.23482859738E+03  0.00000000000E+00 0. -1.
        -24    2    1    2    0    0  0.15713858379E+02  0.10091272745E+03 -0.18350904955E+03  0.22481981719E+03  0.80237616019E+02 0.  0.
         25    2    1    2    0    0 -0.31198354689E+02 -0.12105367446E+03  0.23990047787E+03  0.29803610319E+03  0.12508377228E+03 0.  0.
         24    2    1    2    0    0  0.15484496311E+02  0.20140947005E+02  0.11045333414E+04  0.11077260441E+04  0.80110293403E+02 0.  0.
        -11    1    5    5    0    0 -0.16855430929E+02  0.39817703248E+02  0.44128194674E+03  0.44339520922E+03  0.00000000000E+00 0.  1.
         12    1    5    5    0    0  0.32339927240E+02 -0.19676756243E+02  0.66325139466E+03  0.66433083486E+03  0.00000000000E+00 0. -1.
         13    1    3    3    0    0  0.12599309565E+02  0.78906012400E+02 -0.18601673628E+03  0.20245277861E+03  0.00000000000E+00 0. -1.
        -14    1    3    3    0    0  0.31145488133E+01  0.22006715055E+02  0.25076867210E+01  0.22367038572E+02  0.00000000000E+00 0.  1.
          5    1    4    4  501    0 -0.48557066801E+02 -0.84002934286E+01  0.13226375080E+03  0.14120738593E+03  0.41800000000E+01 0.  1.
         -5    1    4    4    0  501  0.17358712112E+02 -0.11265338103E+03  0.10763672707E+03  0.15682871727E+03  0.41800000000E+01 0.  1.
</event>
<event>
11    1  0.6455215E-009  0.1422606E+03  0.7561462E-02  0.1105060E+00
         22   -1    0    0    0    0  0.00000000000E+00  0.00000000000E+00  0.14226877787E+04  0.14226877787E+04  0.00000000000E+00 0.  1.
         22   -1    0    0    0    0 -0.00000000000E+00 -0.00000000000E+00 -0.13548369919E+03  0.13548369919E+03  0.00000000000E+00 0. -1.
         24    2    1    2    0    0  0.75208661501E+01  0.67853064049E+01 -0.10974544858E+03  0.13565490329E+03  0.79092259368E+02 0.  0.
         25    2    1    2    0    0 -0.69061012229E+02  0.19412188777E+02  0.49732776323E+03  0.51781106988E+03  0.12508854275E+03 0.  0.
        -24    2    1    2    0    0  0.61540146079E+02 -0.26197495182E+02  0.89962176486E+03  0.90470550471E+03  0.68550945372E+02 0.  0.
        -11    1    3    3    0    0  0.23768281878E+02  0.12243676799E+02 -0.22825417786E+01  0.26833725831E+02  0.00000000000E+00 0.  1.
         12    1    3    3    0    0 -0.16247415728E+02 -0.54583703939E+01 -0.10746290680E+03  0.10882117746E+03  0.00000000000E+00 0. -1.
         13    1    5    5    0    0  0.63862955891E+01  0.20080344987E+02  0.30781294230E+03  0.30853332474E+03  0.00000000000E+00 0. -1.
        -14    1    5    5    0    0  0.55153850490E+02 -0.46277840170E+02  0.59180882256E+03  0.59617217998E+03  0.00000000000E+00 0.  1.
          5    1    4    4  501    0  0.38235678699E+01  0.50908096216E+02  0.31157456796E+03  0.31575692824E+03  0.41800000000E+01 0.  1.
         -5    1    4    4    0  501 -0.72884580099E+02 -0.31495907438E+02  0.18575319527E+03  0.20205414164E+03  0.41800000000E+01 0.  1.
</event>
<event>
11    1  0.6455215E-009  0.1465888E+03  0.7561462E-02  0.1100416E+00
         22   -1    0    0    0    0  0.00000000000E+00  0.00000000000E+00  0.13348847127E+03  0.13348847127E+03  0.00000000000E+00 0.  1.
         22   -1    0    0    0    0 -0.00000000000E+00 -0.00000000000E+00 -0.31349604950E+03  0.31349604950E+03  0.00000000000E+00 0.  1.
         24    2    1    2    0    0 -0.43533132326E+02  0.62718622833E+02 -0.17747902184E+03  0.21061831329E+03  0.83860070601E+02 0.  0.
         25    2    1    2    0    0  0.57761746384E+02 -0.52782607431E+02 -0.27320716378E+02  0.15005451802E+03  0.12509002295E+03 0.  0.
        -24    2    1    2    0    0 -0.14228614058E+02 -0.99360154016E+01  0.24792159986E+02  0.86311689461E+02  0.80832411079E+02 0.  0.
        -13    1    3    3    0    0 -0.76863666906E+01  0.19132640572E+02 -0.14301447810E+03  0.14449318016E+03  0.00000000000E+00 0.  1.
         14    1    3    3    0    0 -0.35846765636E+02  0.43585982261E+02 -0.34464543743E+02  0.66125133131E+02  0.00000000000E+00 0. -1.
         11    1    5    5    0    0  0.20441341243E+02  0.19313996528E+02 -0.92426474249E+01  0.29602456404E+02  0.00000000000E+00 0. -1.
        -12    1    5    5    0    0 -0.34669955301E+02 -0.29250011930E+02  0.34034807411E+02  0.56709233057E+02  0.00000000000E+00 0.  1.
          5    1    4    4  501    0  0.79956731313E+02 -0.24168252776E+02 -0.58518260559E+02  0.10207371132E+03  0.41800000000E+01 0. -1.
         -5    1    4    4    0  501 -0.22194984928E+02 -0.28614354655E+02  0.31197544181E+02  0.47980806697E+02  0.41800000000E+01 0. -1.
</event>
<event>
11    1  0.6455215E-009  0.1537808E+03  0.7561462E-02  0.1093077E+00
         22   -1    0    0    0    0  0.00000000000E+00  0.00000000000E+00  0.71441917489E+03  0.71441917489E+03  0.00000000000E+00 0. -1.
         22   -1    0    0    0    0 -0.00000000000E+00 -0.00000000000E+00 -0.16433063419E+03  0.16433063419E+03  0.00000000000E+00 0. -1.
        -24    2    1    2    0    0  0.13061410828E+02  0.38779946276E+02 -0.10911897747E+03  0.14235014253E+03  0.81744278986E+02 0.  0.
         25    2    1    2    0    0 -0.89125993946E+02 -0.74032777683E+02  0.20212798510E+03  0.26443808394E+03  0.12508989931E+03 0.  0.
         24    2    1    2    0    0  0.76064583118E+02  0.35252831407E+02  0.45707953307E+03  0.47196158261E+03  0.82446667461E+02 0.  0.
        -13    1    5    5    0    0  0.42146938447E+02 -0.10043966799E+01  0.70031424730E+02  0.81742116946E+02  0.00000000000E+00 0.  1.
         14    1    5    5    0    0  0.33917644672E+02  0.36257228087E+02  0.38704810835E+03  0.39021946566E+03  0.00000000000E+00 0. -1.
         13    1    3    3    0    0  0.35932225179E+02  0.43114316931E+02 -0.38674495618E+02  0.68159267470E+02  0.00000000000E+00 0. -1.
        -14    1    3    3    0    0 -0.22870814351E+02 -0.43343706552E+01 -0.70444481852E+02  0.74190875056E+02  0.00000000000E+00 0.  1.
          5    1    4    4  501    0 -0.59156274395E+01 -0.50412233345E+02  0.16043584455E+03  0.16832563837E+03  0.41800000000E+01 0. -1.
         -5    1    4    4    0  501 -0.83210366507E+02 -0.23620544338E+02  0.41692140551E+02  0.96112445567E+02  0.41800000000E+01 0. -1.
</event>
<event>
11    1  0.6455215E-009  0.1915520E+03  0.7561462E-02  0.1060664E+00
         22   -1    0    0    0    0  0.00000000000E+00  0.00000000000E+00  0.40059813312E+04  0.40059813312E+04  0.00000000000E+00 0. -1.
         22   -1    0    0    0    0 -0.00000000000E+00 -0.00000000000E+00 -0.90178079325E+02  0.90178079325E+02  0.00000000000E+00 0.  1.
        -24    2    1    2    0    0 -0.89071573718E+02 -0.40996075712E+02 -0.43567104769E+01  0.12829742002E+03  0.82624594337E+02 0.  0.
         25    2    1    2    0    0  0.17918631255E+03  0.14488943804E+03  0.76476941552E+03  0.80846817156E+03  0.12509133327E+03 0.  0.
         24    2    1    2    0    0 -0.90114738835E+02 -0.10389336233E+03  0.31553905469E+04  0.31593938190E+04  0.79782850430E+02 0.  0.
        -11    1    5    5    0    0 -0.13504735526E+01 -0.28339782483E+01  0.89461281967E+03  0.89461832774E+03  0.00000000000E+00 0.  1.
         12    1    5    5    0    0 -0.88764265283E+02 -0.10105938408E+03  0.22607777272E+04  0.22647754912E+04  0.00000000000E+00 0. -1.
         11    1    3    3    0    0 -0.61639757073E+02 -0.28921067246E+02  0.36790650198E+02  0.77391470620E+02  0.00000000000E+00 0. -1.
        -12    1    3    3    0    0 -0.27431816645E+02 -0.12075008467E+02 -0.41147360675E+02  0.50905949401E+02  0.00000000000E+00 0.  1.
          5    1    4    4  501    0  0.19206944557E+02 -0.12147007582E+02  0.19187660452E+03  0.19326293042E+03  0.41800000000E+01 0.  1.
         -5    1    4    4    0  501  0.15997936800E+03  0.15703644562E+03  0.57289281099E+03  0.61520524114E+03  0.41800000000E+01 0.  1.
</event>
<event>
11    1  0.6455215E-009  0.2647876E+03  0.7561462E-02  0.1016304E+00
         22   -1    0    0    0    0  0.00000000000E+00  0.00000000000E+00  0.59094199326E+03  0.59094199326E+03  0.00000000000E+00 0. -1.
         22   -1    0    0    0    0 -0.00000000000E+00 -0.00000000000E+00 -0.13076631926E+04  0.13076631926E+04  0.00000000000E+00 0.  1.
         24    2    1    2    0    0 -0.11940923874E+03 -0.23711944023E+02 -0.11249671173E+04  0.11343198917E+04  0.79434118379E+02 0.  0.
         25    2    1    2    0    0  0.28707714426E+03  0.15362266875E+03  0.68129038252E+02  0.35538554725E+03  0.12507641756E+03 0.  0.
        -24    2    1    2    0    0 -0.16766790553E+03 -0.12991072473E+03  0.34011687972E+03  0.40889974689E+03  0.80809579838E+02 0.  0.
        -11    1    3    3    0    0 -0.10008547343E+02  0.11801538495E+02 -0.39878504428E+03  0.39908515241E+03  0.00000000000E+00 0.  1.
         12    1    3    3    0    0 -0.10940069139E+03 -0.35513482518E+02 -0.72618207305E+03  0.73523473934E+03  0.00000000000E+00 0. -1.
         11    1    5    5    0    0 -0.14156762997E+03 -0.67099440715E+02  0.26250789271E+03  0.30570267015E+03  0.00000000000E+00 0. -1.
        -12    1    5    5    0    0 -0.26100275552E+02 -0.62811284013E+02  0.77608987004E+02  0.10319707674E+03  0.00000000000E+00 0.  1.
          5    1    4    4  501    0  0.18073970141E+03  0.14796238801E+03  0.82701242955E+02  0.24782388085E+03  0.41800000000E+01 0. -1.
         -5    1    4    4    0  501  0.10633744285E+03  0.56602807446E+01 -0.14572204703E+02  0.10756166640E+03  0.41800000000E+01 0. -1.
</event>
<event>
11    1  0.6455215E-009  0.1425878E+03  0.7561462E-02  0.1104703E+00
         22   -1    0    0    0    0  0.00000000000E+00  0.00000000000E+00  0.77584450868E+03  0.77584450868E+03  0.00000000000E+00 0.  1.
         22   -1    0    0    0    0 -0.00000000000E+00 -0.00000000000E+00 -0.24589242743E+03  0.24589242743E+03  0.00000000000E+00 0. -1.
        -24    2    1    2    0    0 -0.67283589500E+02  0.22680467943E+02 -0.16745053908E+03  0.19897992557E+03  0.80695989349E+02 0.  0.
         25    2    1    2    0    0  0.54452489168E+02 -0.12912800934E+02  0.17904391355E+02  0.13820067181E+03  0.12508814674E+03 0.  0.
         24    2    1    2    0    0  0.12831100332E+02 -0.97676670094E+01  0.67949822898E+03  0.68455633873E+03  0.81483085694E+02 0.  0.
        -13    1    5    5    0    0 -0.78500159619E+01  0.11608664683E+02  0.59152815475E+03  0.59169412850E+03  0.00000000000E+00 0.  1.
         14    1    5    5    0    0  0.20681116294E+02 -0.21376331692E+02  0.87970074237E+02  0.92862210232E+02  0.00000000000E+00 0. -1.
         11    1    3    3    0    0 -0.49226045899E+02 -0.24316436329E+02 -0.10736821738E+03  0.12059198470E+03  0.00000000000E+00 0. -1.
        -12    1    3    3    0    0 -0.18057543601E+02  0.46996904271E+02 -0.60082321702E+02  0.78387940866E+02  0.00000000000E+00 0.  1.
          5    1    4    4  501    0  0.87383397053E+02  0.19058488299E+02  0.21148141353E+02  0.91998914882E+02  0.41800000000E+01 0.  1.
         -5    1    4    4    0  501 -0.32930907885E+02 -0.31971289233E+02 -0.32437499980E+01  0.46201756930E+02  0.41800000000E+01 0.  1.
</event>
<event>
11    1  0.6455215E-009  0.1281010E+03  0.7561462E-02  0.1121624E+00
         22   -1    0    0    0    0  0.00000000000E+00  0.00000000000E+00  0.75820801522E+02  0.75820801522E+02  0.00000000000E+00 0. -1.
         22   -1    0    0    0    0 -0.00000000000E+00 -0.00000000000E+00 -0.30279492321E+03  0.30279492321E+03  0.00000000000E+00 0.  1.
         24    2    1    2    0    0  0.69597768795E+01 -0.12089048487E+02 -0.97431344623E+02  0.12653574918E+03  0.79522608845E+02 0.  0.
         25    2    1    2    0    0  0.22939096395E+02  0.89551034176E+01 -0.95079816599E+02  0.15904502731E+03  0.12509497658E+03 0.  0.
        -24    2    1    2    0    0 -0.29898873275E+02  0.31339450690E+01 -0.34462960469E+02  0.93034948248E+02  0.81018773852E+02 0.  0.
        -11    1    3    3    0    0  0.17368359796E+02 -0.30039295535E+02 -0.99791663153E+02  0.10565223724E+03  0.00000000000E+00 0.  1.
         12    1    3    3    0    0 -0.10408582916E+02  0.17950247049E+02  0.23603185299E+01  0.20883511941E+02  0.00000000000E+00 0. -1.
         13    1    5    5    0    0  0.24575460242E+02  0.17392048370E+02 -0.12011257118E+02  0.32414609209E+02  0.00000000000E+00 0. -1.
        -14    1    5    5    0    0 -0.54474333517E+02 -0.14258103301E+02 -0.22451703351E+02  0.60620339039E+02  0.00000000000E+00 0.  1.
          5    1    4    4  501    0  0.47835366183E+02  0.52741201194E+02 -0.31893889199E+02  0.78131614149E+02  0.41800000000E+01 0.  1.
         -5    1    4    4    0  501 -0.24896269788E+02 -0.43786097777E+02 -0.63185927399E+02  0.80913413160E+02  0.41800000000E+01 0.  1.
</event>
<event>
11    1  0.6455215E-009  0.1582509E+03  0.7561462E-02  0.1088734E+00
         22   -1    0    0    0    0  0.00000000000E+00  0.00000000000E+00  0.19927292617E+03  0.19927292617E+03  0.00000000000E+00 0. -1.
         22   -1    0    0    0    0 -0.00000000000E+00 -0.00000000000E+00 -0.38566754614E+03  0.38566754614E+03  0.00000000000E+00 0. -1.
         24    2    1    2    0    0 -0.14166490205E+02  0.89413619218E+01 -0.16516013587E+03  0.18773479281E+03  0.87668948625E+02 0.  0.
         25    2    1    2    0    0  0.61608693250E+02 -0.91332828364E+02 -0.14518110754E+03  0.22105021353E+03  0.12509327039E+03 0.  0.
        -24    2    1    2    0    0 -0.47442203045E+02  0.82391466442E+02  0.12394662344E+03  0.17615546596E+03  0.81417850347E+02 0.  0.
        -11    1    3    3    0    0  0.13704136029E+02 -0.17905332529E+02 -0.51724040038E+01  0.23133483103E+02  0.00000000000E+00 0.  1.
         12    1    3    3    0    0 -0.27870626234E+02  0.26846694451E+02 -0.15998773186E+03  0.16460130970E+03  0.00000000000E+00 0. -1.
         13    1    5    5    0    0 -0.67348164638E+02  0.57079866371E+02  0.11004699024E+03  0.14108233938E+03  0.00000000000E+00 0. -1.
        -14    1    5    5    0    0  0.19905961593E+02  0.25311600071E+02  0.13899633197E+02  0.35073126580E+02  0.00000000000E+00 0.  1.
          5    1    4    4  501    0 -0.86966989860E+01  0.21277376445E+02  0.11975553684E+01  0.23393714123E+02  0.41800000000E+01 0.  1.
         -5    1    4    4    0  501  0.70305392236E+02 -0.11261020481E+03 -0.14637866291E+03  0.19765649941E+03  0.41800000000E+01 0.  1.
</event>
<event>
11    1  0.6455215E-009  0.1315080E+03  0.7561462E-02  0.1117430E+00
         22   -1    0    0    0    0  0.00000000000E+00  0.00000000000E+00  0.16900675078E+03  0.16900675078E+03  0.00000000000E+00 0.  1.
         22   -1    0    0    0    0 -0.00000000000E+00 -0.00000000000E+00 -0.72913998227E+03  0.72913998227E+03  0.00000000000E+00 0.  1.
         24    2    1    2    0    0  0.35252144330E+02 -0.17885019255E+02 -0.61785453041E+03  0.62430163842E+03  0.80285287547E+02 0.  0.
         25    2    1    2    0    0 -0.56005905796E+02  0.15625005474E+02 -0.43064677529E+02  0.14450946637E+03  0.12509043584E+03 0.  0.
        -24    2    1    2    0    0  0.20753761465E+02  0.22600137803E+01  0.10078597644E+03  0.12933562825E+03  0.78320274582E+02 0.  0.
        -11    1    3    3    0    0  0.32293325214E+02 -0.39257132166E+02 -0.56399578858E+03  0.56628193580E+03  0.00000000000E+00 0.  1.
         12    1    3    3    0    0  0.29588191166E+01  0.21372112911E+02 -0.53858741836E+02  0.58019702628E+02  0.00000000000E+00 0. -1.
         13    1    5    5    0    0  0.50499973980E+02  0.62814523099E+01  0.59559676975E+02  0.78339384326E+02  0.00000000000E+00 0. -1.
        -14    1    5    5    0    0 -0.29746212515E+02 -0.40214385296E+01  0.41226299468E+02  0.50996243927E+02  0.00000000000E+00 0.  1.
          5    1    4    4  501    0 -0.92169332674E+02  0.29925430640E+02 -0.19784038658E+02  0.98992918283E+02  0.41800000000E+01 0. -1.
         -5    1    4    4    0  501  0.36163426879E+02 -0.14300425165E+02 -0.23280638871E+02  0.45516548087E+02  0.41800000000E+01 0. -1.
</event>
<event>
11    1  0.6455215E-009  0.1504075E+03  0.7561462E-02  0.1096463E+00
         22   -1    0    0    0    0  0.00000000000E+00  0.00000000000E+00  0.75238606216E+03  0.75238606216E+03  0.00000000000E+00 0. -1.
         22   -1    0    0    0    0 -0.00000000000E+00 -0.00000000000E+00 -0.27573945602E+03  0.27573945602E+03  0.00000000000E+00 0.  1.
         24    2    1    2    0    0 -0.86243386412E+02 -0.10190201086E+02 -0.23502938951E+03  0.26370067756E+03  0.82203841264E+02 0.  0.
         25    2    1    2    0    0  0.35999219365E+02 -0.38820099945E+02  0.20049457948E+03  0.24218047880E+03  0.12510141469E+03 0.  0.
        -24    2    1    2    0    0  0.50244167047E+02  0.49010301031E+02  0.51118141617E+03  0.52224436181E+03  0.80661312173E+02 0.  0.
        -13    1    3    3    0    0 -0.68454407963E+02  0.25210414318E+02 -0.19107075627E+03  0.20452287124E+03  0.00000000000E+00 0.  1.
         14    1    3    3    0    0 -0.17788978449E+02 -0.35400615403E+02 -0.43958633238E+02  0.59177806325E+02  0.00000000000E+00 0. -1.
         11    1    5    5    0    0  0.56809326288E+02  0.64175631816E+02  0.35538392063E+03  0.36557289603E+03  0.00000000000E+00 0. -1.
        -12    1    5    5    0    0 -0.65651592411E+01 -0.15165330786E+02  0.15579749554E+03  0.15667146578E+03  0.00000000000E+00 0.  1.
          5    1    4    4  501    0  0.16059871207E+02 -0.52023644865E+02  0.20933786506E+03  0.21634276793E+03  0.41800000000E+01 0. -1.
         -5    1    4    4    0  501  0.19939348158E+02  0.13203544920E+02 -0.88432855756E+01  0.25837710874E+02  0.41800000000E+01 0. -1.
</event>
<event>
11    1  0.6455215E-009  0.2171828E+03  0.7561462E-02  0.1042997E+00
         22   -1    0    0    0    0  0.00000000000E+00  0.00000000000E+00  0.38393860018E+03  0.38393860018E+03  0.00000000000E+00 0.  1.
         22   -1    0    0    0    0 -0.00000000000E+00 -0.00000000000E+00 -0.12150420730E+04  0.12150420730E+04  0.00000000000E+00 0.  1.
         24    2    1    2    0    0 -0.10761242408E+02  0.31956418090E+02 -0.99427816464E+03  0.99821252398E+03  0.81866704773E+02 0.  0.
         25    2    1    2    0    0  0.18631454969E+03 -0.41234786982E+02 -0.12016451252E+03  0.25787653296E+03  0.12508947637E+03 0.  0.
        -24    2    1    2    0    0 -0.17555330728E+03  0.92783688923E+01  0.28333920432E+03  0.34289161627E+03  0.79928117558E+02 0.  0.
        -11    1    3    3    0    0 -0.14234547790E+02 -0.22907922352E+02 -0.17230005476E+03  0.17439811962E+03  0.00000000000E+00 0.  1.
         12    1    3    3    0    0  0.34733053814E+01  0.54864340441E+02 -0.82197810989E+03  0.82381440436E+03  0.00000000000E+00 0. -1.
         11    1    5    5    0    0 -0.23841446117E+02 -0.28005268139E+02  0.49542708323E+02  0.61702427379E+02  0.00000000000E+00 0. -1.
        -12    1    5    5    0    0 -0.15171186117E+03  0.37283637032E+02  0.23379649600E+03  0.28118918889E+03  0.00000000000E+00 0.  1.
          5    1    4    4  501    0  0.70325301757E+02 -0.51309791135E+02 -0.11084259124E+03  0.14100317431E+03  0.41800000000E+01 0.  1.
         -5    1    4    4    0  501  0.11598924793E+03  0.10075004153E+02 -0.93219212788E+01  0.11687335865E+03  0.41800000000E+01 0.  1.
</event>
<event>
11    1  0.6455215E-009  0.2664910E+03  0.7561462E-02  0.1015463E+00
         22   -1    0    0    0    0  0.00000000000E+00  0.00000000000E+00  0.18529304336E+03  0.18529304336E+03  0.00000000000E+00 0. -1.
         22   -1    0    0    0    0 -0.00000000000E+00 -0.00000000000E+00 -0.10653741406E+04  0.10653741406E+04  0.00000000000E+00 0. -1.
        -24    2    1    2    0    0 -0.93580729403E+02  0.25639400637E+03 -0.77400262942E+03  0.82468895761E+03  0.80849038602E+02 0.  0.
         25    2    1    2    0    0  0.30706671374E+02 -0.16252947155E+03 -0.17482323673E+03  0.27123551938E+03  0.12508722590E+03 0.  0.
         24    2    1    2    0    0  0.62874058029E+02 -0.93864534823E+02  0.68744768894E+02  0.15474270699E+03  0.80347769385E+02 0.  0.
        -11    1    5    5    0    0  0.41425282461E+01 -0.75515980454E+02  0.26637393434E+02  0.80183380904E+02  0.00000000000E+00 0.  1.
         12    1    5    5    0    0  0.58731529782E+02 -0.18348554369E+02  0.42107375461E+02  0.74559326085E+02  0.00000000000E+00 0. -1.
         11    1    3    3    0    0 -0.97265351446E+02  0.16905162934E+03 -0.48475233282E+03  0.52251681901E+03  0.00000000000E+00 0. -1.
        -12    1    3    3    0    0  0.36846220432E+01  0.87342377030E+02 -0.28925029660E+03  0.30217213860E+03  0.00000000000E+00 0.  1.
          5    1    4    4  501    0 -0.39759114848E+02 -0.18653346821E+02 -0.58212464596E+02  0.73040386058E+02  0.41800000000E+01 0.  1.
         -5    1    4    4    0  501  0.70465786222E+02 -0.14387612473E+03 -0.11661077214E+03  0.19819513332E+03  0.41800000000E+01 0.  1.
</event>
<event>
11    1  0.6455215E-009  0.3125646E+03  0.7561462E-02  0.9950095E-01
         22   -1    0    0    0    0  0.00000000000E+00  0.00000000000E+00  0.13890617594E+03  0.13890617594E+03  0.00000000000E+00 0.  1.
         22   -1    0    0    0    0 -0.00000000000E+00 -0.00000000000E+00 -0.25192424915E+04  0.25192424915E+04  0.00000000000E+00 0. -1.
         24    2    1    2    0    0 -0.11083809364E+03  0.21143394966E+03 -0.49096380645E+03  0.55670224809E+03  0.10900704434E+03 0.  0.
         25    2    1    2    0    0  0.20738845172E+03 -0.22991510971E+03 -0.19368338775E+04  0.19654119442E+04  0.12509082109E+03 0.  0.
        -24    2    1    2    0    0 -0.96550358073E+02  0.18481160045E+02  0.47461368405E+02  0.13603447521E+03  0.81174331121E+02 0.  0.
        -13    1    3    3    0    0 -0.10259360426E+03  0.16835019155E+03 -0.28775282584E+03  0.34881072720E+03  0.00000000000E+00 0.  1.
         14    1    3    3    0    0 -0.82444893803E+01  0.43083758112E+02 -0.20321098061E+03  0.20789152090E+03  0.00000000000E+00 0. -1.
         11    1    5    5    0    0 -0.64444870815E+01  0.31664895826E+02 -0.20518133826E+01  0.32379113323E+02  0.00000000000E+00 0. -1.
        -12    1    5    5    0    0 -0.90105870992E+02 -0.13183735781E+02  0.49513181788E+02  0.10365536188E+03  0.00000000000E+00 0.  1.
          5    1    4    4  501    0  0.80815160798E+02 -0.13295115677E+02 -0.54602899896E+03  0.55215304982E+03  0.41800000000E+01 0.  1.
         -5    1    4    4    0  501  0.12657329092E+03 -0.21661999403E+03 -0.13908048786E+04  0.14132588943E+04  0.41800000000E+01 0.  1.
</event>
<event>
11    1  0.6455215E-009  0.2288038E+03  0.7561462E-02  0.1035839E+00
         22   -1    0    0    0    0  0.00000000000E+00  0.00000000000E+00  0.20992273334E+04  0.20992273334E+04  0.00000000000E+00 0. -1.
         22   -1    0    0    0    0 -0.00000000000E+00 -0.00000000000E+00 -0.13845270372E+04  0.13845270372E+04  0.00000000000E+00 0.  1.
        -24    2    1    2    0    0 -0.10858086671E+02 -0.77815298690E+02 -0.13352958426E+04  0.13400580304E+04  0.81039613291E+02 0.  0.
         25    2    1    2    0    0  0.53252648644E+02  0.25406111692E+03  0.46965594883E+03  0.55100519888E+03  0.12508846153E+03 0.  0.
         24    2    1    2    0    0 -0.42394561973E+02 -0.17624581823E+03  0.15803401900E+04  0.15926911413E+04  0.79561726072E+02 0.  0.
        -13    1    5    5    0    0 -0.41657405605E+02 -0.13386150460E+03  0.88264736234E+03  0.89371170301E+03  0.00000000000E+00 0.  1.
         14    1    5    5    0    0 -0.73715636744E+00 -0.42384313633E+02  0.69769282766E+03  0.69897943833E+03  0.00000000000E+00 0. -1.
         11    1    3    3    0    0  0.34915821037E+02 -0.40292026931E+02 -0.57888638004E+03  0.58133639400E+03  0.00000000000E+00 0. -1.
        -12    1    3    3    0    0 -0.45773907708E+02 -0.37523271760E+02 -0.75640946254E+03  0.75872163642E+03  0.00000000000E+00 0.  1.
          5    1    4    4  501    0 -0.73365216543E+01  0.11260626201E+02  0.12101247537E+03  0.12182823091E+03  0.41800000000E+01 0. -1.
         -5    1    4    4    0  501  0.60589170298E+02  0.24280049072E+03  0.34864347346E+03  0.42917696797E+03  0.41800000000E+01 0. -1.
</event>
<event>
11    1  0.6455215E-009  0.1784515E+03  0.7561462E-02  0.1070902E+00
         22   -1    0    0    0    0  0.00000000000E+00  0.00000000000E+00  0.74118761889E+03  0.74118761889E+03  0.00000000000E+00 0. -1.
         22   -1    0    0    0    0 -0.00000000000E+00 -0.00000000000E+00 -0.10677329615E+04  0.10677329615E+04  0.00000000000E+00 0.  1.
         24    2    1    2    0    0  0.38727454291E+02  0.52819203539E+02 -0.10109192732E+04  0.10162206246E+04  0.80354819242E+02 0.  0.
         25    2    1    2    0    0 -0.11894165365E+03 -0.13469805084E+03  0.23120061667E+03  0.31842180051E+03  0.12509211015E+03 0.  0.
        -24    2    1    2    0    0  0.80214199358E+02  0.81878847302E+02  0.45317331387E+03  0.47427815533E+03  0.80220027466E+02 0.  0.
        -11    1    3    3    0    0 -0.17467049823E+02  0.25814557929E+02 -0.57745554339E+03  0.57829611258E+03  0.00000000000E+00 0.  1.
         12    1    3    3    0    0  0.56194504114E+02  0.27004645610E+02 -0.43346372979E+03  0.43792451201E+03  0.00000000000E+00 0. -1.
         11    1    5    5    0    0  0.70042363923E+02  0.92013381492E+02  0.31852862455E+03  0.33887000424E+03  0.00000000000E+00 0. -1.
        -12    1    5    5    0    0  0.10171835435E+02 -0.10134534190E+02  0.13464468932E+03  0.13540815109E+03  0.00000000000E+00 0.  1.
          5    1    4    4  501    0 -0.78110280912E+02 -0.15450419971E+03  0.18841996964E+03  0.25591467538E+03  0.41800000000E+01 0.  1.
         -5    1    4    4    0  501 -0.40831372738E+02  0.19806148872E+02  0.42780647024E+02  0.62507125134E+02  0.41800000000E+01 0.  1.
</event>
<event>
11    1  0.6455215E-009  0.1962699E+03  0.7561462E-02  0.1057193E+00
         22   -1    0    0    0    0  0.00000000000E+00  0.00000000000E+00  0.10279472186E+04  0.10279472186E+04  0.00000000000E+00 0.  1.
         22   -1    0    0    0    0 -0.00000000000E+00 -0.00000000000E+00 -0.11951624457E+04  0.11951624457E+04  0.00000000000E+00 0.  1.
         24    2    1    2    0    0  0.14734759619E+03  0.31972657141E+02 -0.11462991723E+04  0.11592261686E+04  0.84083010807E+02 0.  0.
         25    2    1    2    0    0 -0.16780131072E+03 -0.16104051736E+03  0.63908448300E+03  0.69149809943E+03  0.12509723013E+03 0.  0.
        -24    2    1    2    0    0  0.20453714535E+02  0.12906786022E+03  0.33999946214E+03  0.37238539624E+03  0.77423395050E+02 0.  0.
        -13    1    3    3    0    0  0.15092700584E+03  0.16402477021E+02 -0.10956247681E+04  0.11060929594E+04  0.00000000000E+00 0.  1.
         14    1    3    3    0    0 -0.35794096531E+01  0.15570180120E+02 -0.50674404196E+02  0.53133209230E+02  0.00000000000E+00 0. -1.
         13    1    5    5    0    0 -0.37473269723E+01  0.44268681744E+01 -0.30785277754E+01  0.65663501684E+01  0.00000000000E+00 0. -1.
        -14    1    5    5    0    0  0.24201041508E+02  0.12464099204E+03  0.34307798991E+03  0.36581904607E+03  0.00000000000E+00 0.  1.
          5    1    4    4  501    0  0.86391307704E+00  0.85925712768E+01  0.54651618429E+00  0.96098754878E+01  0.41800000000E+01 0. -1.
         -5    1    4    4    0  501 -0.16866522380E+03 -0.16963308863E+03  0.63853796682E+03  0.68188822394E+03  0.41800000000E+01 0. -1.
</event>
<event>
11    1  0.6455215E-009  0.1349059E+03  0.7561462E-02  0.1113384E+00
         22   -1    0    0    0    0  0.00000000000E+00  0.00000000000E+00  0.21014879304E+03  0.21014879304E+03  0.00000000000E+00 0. -1.
         22   -1    0    0    0    0 -0.00000000000E+00 -0.00000000000E+00 -0.52371597792E+03  0.52371597792E+03  0.00000000000E+00 0. -1.
         24    2    1    2    0    0 -0.51371291095E+01  0.19623948086E+02 -0.35973121830E+03  0.36962186353E+03  0.82475954932E+02 0.  0.
         25    2    1    2    0    0 -0.19598599047E+02 -0.62501343290E+02 -0.11420720937E+03  0.18160690344E+03  0.12508899914E+03 0.  0.
        -24    2    1    2    0    0  0.24735728157E+02  0.42877395204E+02  0.16037124280E+03  0.18263600400E+03  0.72018380806E+02 0.  0.
        -13    1    3    3    0    0  0.57814202852E+00  0.31980794102E+02 -0.48529239762E+02  0.58122220807E+02  0.00000000000E+00 0.  1.
         14    1    3    3    0    0 -0.57152711380E+01 -0.12356846016E+02 -0.31120197854E+03  0.31149964272E+03  0.00000000000E+00 0. -1.
         11    1    5    5    0    0  0.15369724979E+02  0.54205449239E+02  0.15800282299E+03  0.16774788000E+03  0.00000000000E+00 0. -1.
        -12    1    5    5    0    0  0.93660031773E+01 -0.11328054035E+02  0.23684198072E+01  0.14888123996E+02  0.00000000000E+00 0.  1.
          5    1    4    4  501    0  0.35475378375E+01 -0.84820806301E+02 -0.27980009498E+02  0.89484677671E+02  0.41800000000E+01 0. -1.
         -5    1    4    4    0  501 -0.23146136885E+02  0.22319463011E+02 -0.86227199874E+02  0.92122225765E+02  0.41800000000E+01 0. -1.
</event>
<event>
11    1  0.6455215E-009  0.1582821E+03  0.7561462E-02  0.1088704E+00
         22   -1    0    0    0    0  0.00000000000E+00  0.00000000000E+00  0.72084016384E+03  0.72084016384E+03  0.00000000000E+00 0.  1.
         22   -1    0    0    0    0 -0.00000000000E+00 -0.00000000000E+00 -0.85641415295E+03  0.85641415295E+03  0.00000000000E+00 0. -1.
         24    2    1    2    0    0  0.91442662421E+02  0.35213652739E+02 -0.81185051652E+03  0.82179614152E+03  0.81522237460E+02 0.  0.
         25    2    1    2    0    0 -0.66135720914E+02 -0.19267374868E+02  0.10354115379E+03  0.17639070722E+03  0.12509094991E+03 0.  0.
        -24    2    1    2    0    0 -0.25306941507E+02 -0.15946277870E+02  0.57273537362E+03  0.57906746806E+03  0.79991245186E+02 0.  0.
        -13    1    3    3    0    0  0.42318983568E+02  0.89012501675E+01 -0.11736948820E+03  0.12508287407E+03  0.00000000000E+00 0.  1.
         14    1    3    3    0    0  0.49123678853E+02  0.26312402571E+02 -0.69448102832E+03  0.69671326745E+03  0.00000000000E+00 0. -1.
         11    1    5    5    0    0  0.13913732479E+02  0.19485847629E+02  0.80025122107E+02  0.83530296166E+02  0.00000000000E+00 0. -1.
        -12    1    5    5    0    0 -0.39220673986E+02 -0.35432125500E+02  0.49271025151E+03  0.49553717189E+03  0.00000000000E+00 0.  1.
          5    1    4    4  501    0 -0.85171037173E+02 -0.85868805830E+01  0.17431552045E+02  0.87459542064E+02  0.41800000000E+01 0.  1.
         -5    1    4    4    0  501  0.19035316260E+02 -0.10680494285E+02  0.86109601744E+02  0.88931165155E+02  0.41800000000E+01 0.  1.
</event>
<event>
11    1  0.6455215E-009  0.1578591E+03  0.7561462E-02  0.1089108E+00
         22   -1    0    0    0    0  0.00000000000E+00  0.00000000000E+00  0.13114774798E+04  0.13114774798E+04  0.00000000000E+00 0.  1.
         22   -1    0    0    0    0 -0.00000000000E+00 -0.00000000000E+00 -0.25500179999E+03  0.25500179999E+03  0.00000000000E+00 0.  1.
        -24    2    1    2    0    0 -0.40071754294E+02 -0.47737441164E+02 -0.20605237007E+03  0.22947086252E+03  0.79465015904E+02 0.  0.
         25    2    1    2    0    0  0.11538502861E+03  0.98215568595E+02  0.25228108231E+03  0.31976801127E+03  0.12508330742E+03 0.  0.
         24    2    1    2    0    0 -0.75313274319E+02 -0.50478127431E+02  0.10102469675E+04  0.10172404060E+04  0.77194413648E+02 0.  0.
        -13    1    5    5    0    0 -0.33937127415E+02 -0.54084749509E+02  0.82151126244E+03  0.82398886101E+03  0.00000000000E+00 0.  1.
         14    1    5    5    0    0 -0.41376146903E+02  0.36066220784E+01  0.18873570510E+03  0.19325154497E+03  0.00000000000E+00 0. -1.
         11    1    3    3    0    0 -0.20291016749E+02 -0.41487578919E+02 -0.37072977179E+02  0.59222885797E+02  0.00000000000E+00 0. -1.
        -12    1    3    3    0    0 -0.19780737545E+02 -0.62498622455E+01 -0.16897939289E+03  0.17024797672E+03  0.00000000000E+00 0.  1.
          5    1    4    4  501    0  0.51715301104E+02 -0.24337915883E+02  0.59767527291E+02  0.82803600383E+02  0.41800000000E+01 0. -1.
         -5    1    4    4    0  501  0.63669727509E+02  0.12255348448E+03  0.19251355502E+03  0.23696441088E+03  0.41800000000E+01 0. -1.
</event>
<event>
11    1  0.6455215E-009  0.1401585E+03  0.7561462E-02  0.1107382E+00
         22   -1    0    0    0    0  0.00000000000E+00  0.00000000000E+00  0.69154381430E+03  0.69154381430E+03  0.00000000000E+00 0. -1.
         22   -1    0    0    0    0 -0.00000000000E+00 -0.00000000000E+00 -0.34986534441E+03  0.34986534441E+03  0.00000000000E+00 0. -1.
        -24    2    1    2    0    0  0.45549549008E+01  0.57528161141E+02 -0.26937876931E+03  0.28690466186E+03  0.80119452724E+02 0.  0.
         25    2    1    2    0    0 -0.46459047825E+02 -0.10111007626E+03  0.36716651162E+02  0.17139601917E+03  0.12508713870E+03 0.  0.
         24    2    1    2    0    0  0.41904092925E+02  0.43581915121E+02  0.57434058804E+03  0.58310847768E+03  0.80579459817E+02 0.  0.
        -13    1    5    5    0    0  0.66210692431E+02  0.28581989693E+02  0.42035191413E+03  0.42649327971E+03  0.00000000000E+00 0.  1.
         14    1    5    5    0    0 -0.24306599506E+02  0.14999925428E+02  0.15398867391E+03  0.15661519797E+03  0.00000000000E+00 0. -1.
         11    1    3    3    0    0  0.29451878677E+02  0.65977765858E+02 -0.20522266158E+03  0.21757026353E+03  0.00000000000E+00 0. -1.
        -12    1    3    3    0    0 -0.24896923776E+02 -0.84496047173E+01 -0.64156107721E+02  0.69334398327E+02  0.00000000000E+00 0.  1.
          5    1    4    4  501    0 -0.63053340185E+02 -0.10457229041E+03 -0.89457851997E+01  0.12250953883E+03  0.41800000000E+01 0. -1.
         -5    1    4    4    0  501  0.16594292359E+02  0.34622141496E+01  0.45662436362E+02  0.48886480342E+02  0.41800000000E+01 0. -1.
</event>
<event>
11    1  0.6455215E-009  0.1290063E+03  0.7561462E-02  0.1120496E+00
         22   -1    0    0    0    0  0.00000000000E+00  0.00000000000E+00  0.16380356175E+03  0.16380356175E+03  0.00000000000E+00 0. -1.
         22   -1    0    0    0    0 -0.00000000000E+00 -0.00000000000E+00 -0.21067506319E+04  0.21067506319E+04  0.00000000000E+00 0. -1.
         24    2    1    2    0    0 -0.94989952302E+01  0.12725049373E+02 -0.16747921769E+04  0.16767843112E+04  0.80153806698E+02 0.  0.
         25    2    1    2    0    0  0.34805097503E+01 -0.43287570955E+02 -0.40487314746E+03  0.42597684038E+03  0.12509226695E+03 0.  0.
        -24    2    1    2    0    0  0.60184854799E+01  0.30562521582E+02  0.13671825428E+03  0.16779304199E+03  0.92153860430E+02 0.  0.
        -13    1    3    3    0    0  0.20351740398E+02  0.93883329677E+01 -0.14716965753E+03  0.14886652488E+03  0.00000000000E+00 0.  1.
         14    1    3    3    0    0 -0.29850735628E+02  0.33367164049E+01 -0.15276225194E+04  0.15279177864E+04  0.00000000000E+00 0. -1.
         11    1    5    5    0    0 -0.67580337610E+01  0.27334118803E+02  0.14787168164E+03  0.15052859962E+03  0.00000000000E+00 0. -1.
        -12    1    5    5    0    0  0.12776519241E+02  0.32284027789E+01 -0.11153427360E+02  0.17264442369E+02  0.00000000000E+00 0.  1.
          5    1    4    4  501    0 -0.46233101180E+02 -0.41143424549E+02 -0.33130763875E+03  0.33706454118E+03  0.41800000000E+01 0.  1.
         -5    1    4    4    0  501  0.49713610931E+02 -0.21441464057E+01 -0.73565508716E+02  0.88912299196E+02  0.41800000000E+01 0.  1.
</event>
<event>
11    1  0.6455215E-009  0.2368837E+03  0.7561462E-02  0.1031128E+00
         22   -1    0    0    0    0  0.00000000000E+00  0.00000000000E+00  0.26314336252E+03  0.26314336252E+03  0.00000000000E+00 0.  1.
         22   -1    0    0    0    0 -0.00000000000E+00 -0.00000000000E+00 -0.81176028323E+03  0.81176028323E+03  0.00000000000E+00 0. -1.
         24    2    1    2    0    0  0.49484692866E+02 -0.35668670087E+02 -0.55720963417E+03  0.56631050910E+03  0.80647550820E+02 0.  0.
         25    2    1    2    0    0 -0.11573380270E+03 -0.15862256717E+03 -0.11019245955E+03  0.25757511276E+03  0.12508848335E+03 0.  0.
        -24    2    1    2    0    0  0.66249109838E+02  0.19429123725E+03  0.11878517301E+03  0.25101802390E+03  0.82231998457E+02 0.  0.
        -13    1    3    3    0    0  0.64197918877E+01 -0.47344822500E+01 -0.15490763179E+01  0.81258038062E+01  0.00000000000E+00 0.  1.
         14    1    3    3    0    0  0.43064900978E+02 -0.30934187837E+02 -0.55566055785E+03  0.55818470529E+03  0.00000000000E+00 0. -1.
         13    1    5    5    0    0  0.80545261908E+01 -0.68995734026E+01  0.80612375567E+00  0.10636227753E+02  0.00000000000E+00 0. -1.
        -14    1    5    5    0    0  0.58194583647E+02  0.20119081066E+03  0.11797904925E+03  0.24038179615E+03  0.00000000000E+00 0.  1.
          5    1    4    4  501    0 -0.11823614808E+03 -0.10515847223E+03 -0.30055768296E+02  0.16111769798E+03  0.41800000000E+01 0.  1.
         -5    1    4    4    0  501  0.25023453799E+01 -0.53464094935E+02 -0.80136691253E+02  0.96457414772E+02  0.41800000000E+01 0.  1.
</event>
<event>
11    1  0.6455215E-009  0.1540447E+03  0.7561462E-02  0.1092816E+00
         22   -1    0    0    0    0  0.00000000000E+00  0.00000000000E+00  0.14538804260E+04  0.14538804260E+04  0.00000000000E+00 0. -1.
         22   -1    0    0    0    0 -0.00000000000E+00 -0.00000000000E+00 -0.16944192741E+03  0.16944192741E+03  0.00000000000E+00 0. -1.
         24    2    1    2    0    0  0.91072247340E+01 -0.78961009935E+02 -0.12711436602E+03  0.17211212263E+03  0.84538382252E+02 0.  0.
         25    2    1    2    0    0 -0.96032943292E+02  0.79572975870E+02  0.46624489646E+03  0.49858471055E+03  0.12509286722E+03 0.  0.
        -24    2    1    2    0    0  0.86925718558E+02 -0.61196593503E+00  0.94530796813E+03  0.95262552022E+03  0.79572433174E+02 0.  0.
        -13    1    3    3    0    0 -0.75349220005E+00  0.14572852159E+02 -0.78111492466E+00  0.14613210156E+02  0.00000000000E+00 0.  1.
         14    1    3    3    0    0  0.98607169341E+01 -0.93533862094E+02 -0.12633325109E+03  0.15749891247E+03  0.00000000000E+00 0. -1.
         13    1    5    5    0    0  0.74076003058E+02 -0.66906878596E+01  0.92413561678E+03  0.92712386321E+03  0.00000000000E+00 0. -1.
        -14    1    5    5    0    0  0.12849715500E+02  0.60787219246E+01  0.21172351345E+02  0.25501657008E+02  0.00000000000E+00 0.  1.
          5    1    4    4  501    0 -0.89787197348E+02  0.10974927188E+03  0.41570674572E+03  0.43924505042E+03  0.41800000000E+01 0. -1.
         -5    1    4    4    0  501 -0.62457459437E+01 -0.30176296009E+02  0.50538150741E+02  0.59339660124E+02  0.41800000000E+01 0. -1.
</event>
<event>
11    1  0.6455215E-009  0.1367648E+03  0.7561462E-02  0.1111226E+00
         22   -1    0    0    0    0  0.00000000000E+00  0.00000000000E+00  0.22383819936E+04  0.22383819936E+04  0.00000000000E+00 0. -1.
         22   -1    0    0    0    0 -0.00000000000E+00 -0.00000000000E+00 -0.10438671645E+04  0.10438671645E+04  0.00000000000E+00 0. -1.
        -24    2    1    2    0    0  0.28322276438E+02 -0.40107035549E+02 -0.97004340315E+03  0.97448590239E+03  0.78916692160E+02 0.  0.
         25    2    1    2    0    0 -0.75536921355E+02  0.67545932170E+02  0.21408686326E+02  0.16239795322E+03  0.12508590616E+03 0.  0.
         24    2    1    2    0    0  0.47214644917E+02 -0.27438896622E+02  0.21431495459E+04  0.21453653025E+04  0.80747690855E+02 0.  0.
        -13    1    5    5    0    0 -0.19632387820E+02 -0.12507715878E+02  0.92401926140E+03  0.92431243043E+03  0.00000000000E+00 0.  1.
         14    1    5    5    0    0  0.66847032737E+02 -0.14931180743E+02  0.12191302845E+04  0.12210528721E+04  0.00000000000E+00 0. -1.
         11    1    3    3    0    0 -0.15310597451E+01 -0.55531804244E+02 -0.72869227336E+03  0.73080678341E+03  0.00000000000E+00 0. -1.
        -12    1    3    3    0    0  0.29853336183E+02  0.15424768696E+02 -0.24135112979E+03  0.24367911897E+03  0.00000000000E+00 0.  1.
          5    1    4    4  501    0 -0.80382747392E+02  0.97472147971E+02  0.31314917699E+02  0.13023172493E+03  0.41800000000E+01 0.  1.
         -5    1    4    4    0  501  0.48458260369E+01 -0.29926215801E+02 -0.99062313733E+01  0.32166228287E+02  0.41800000000E+01 0.  1.
</event>
<event>
11    1  0.6455215E-009  0.1715783E+03  0.7561462E-02  0.1076666E+00
         22   -1    0    0    0    0  0.00000000000E+00  0.00000000000E+00  0.44809544303E+03  0.44809544303E+03  0.00000000000E+00 0. -1.
         22   -1    0    0    0    0 -0.00000000000E+00 -0.00000000000E+00 -0.85790981747E+03  0.85790981747E+03  0.00000000000E+00 0. -1.
         24    2    1    2    0    0  0.13714874549E+02  0.24473882422E+02 -0.71585037364E+03  0.72059609860E+03  0.77652502684E+02 0.  0.
         25    2    1    2    0    0  0.32519714468E+02 -0.13068053553E+03 -0.59948228472E+02  0.19332964658E+03  0.12509047908E+03 0.  0.
        -24    2    1    2    0    0 -0.46234589017E+02  0.10620665310E+03  0.36598422767E+03  0.39207951533E+03  0.79777196312E+02 0.  0.
        -11    1    3    3    0    0 -0.14679694157E+02  0.36853915252E+01 -0.27855564465E+02  0.31701861190E+02  0.00000000000E+00 0.  1.
         12    1    3    3    0    0  0.28394568706E+02  0.20788490897E+02 -0.68799480917E+03  0.68889423741E+03  0.00000000000E+00 0. -1.
         11    1    5    5    0    0 -0.62155922791E+02  0.10798855908E+03  0.32673758563E+03  0.34968891532E+03  0.00000000000E+00 0. -1.
        -12    1    5    5    0    0  0.15921333774E+02 -0.17819059785E+01  0.39246642036E+02  0.42390600010E+02  0.00000000000E+00 0.  1.
          5    1    4    4  501    0  0.74094004072E+01 -0.57015640122E+02 -0.92397160839E+02  0.10890541843E+03  0.41800000000E+01 0. -1.
         -5    1    4    4    0  501  0.25110314061E+02 -0.73664895403E+02  0.32448932367E+02  0.84424228151E+02  0.41800000000E+01 0. -1.
</event>
<event>
11    1  0.6455215E-009  0.1864723E+03  0.7561462E-02  0.1064525E+00
         22   -1    0    0    0    0  0.00000000000E+00  0.00000000000E+00  0.13253719725E+04  0.13253719725E+04  0.00000000000E+00 0. -1.
         22   -1    0    0    0    0 -0.00000000000E+00 -0.00000000000E+00 -0.56468023667E+03  0.56468023667E+03  0.00000000000E+00 0.  1.
        -24    2    1    2    0    0 -0.72989349580E+02  0.93385504125E+02 -0.18283894769E+03  0.23264454180E+03  0.81517510411E+02 0.  0.
         25    2    1    2    0    0  0.91405275818E+02 -0.13350266828E+03 -0.32598234557E+03  0.38482380829E+03  0.12508791675E+03 0.  0.
         24    2    1    2    0    0 -0.18415926237E+02  0.40117164156E+02  0.12695130291E+04  0.12725838591E+04  0.76536358485E+02 0.  0.
        -13    1    5    5    0    0 -0.20241983509E+02 -0.11960019342E+02  0.77026461167E+03  0.77062335284E+03  0.00000000000E+00 0.  1.
         14    1    5    5    0    0  0.18260572717E+01  0.52077183498E+02  0.49924841742E+03  0.50196050624E+03  0.00000000000E+00 0. -1.
         11    1    3    3    0    0 -0.34103429193E+02 -0.78598557811E+01 -0.37426645030E+02  0.51240364692E+02  0.00000000000E+00 0. -1.
        -12    1    3    3    0    0 -0.38885920388E+02  0.10124535991E+03 -0.14541230266E+03  0.18140417710E+03  0.00000000000E+00 0.  1.
          5    1    4    4  501    0  0.10961389011E+03 -0.11639476952E+03 -0.19883692221E+03  0.25517942963E+03  0.41800000000E+01 0. -1.
         -5    1    4    4    0  501 -0.18208614290E+02 -0.17107898766E+02 -0.12714542336E+03  0.12964437865E+03  0.41800000000E+01 0. -1.
</event>
<event>
11    1  0.6455215E-009  0.1279095E+03  0.7561462E-02  0.1121864E+00
         22   -1    0    0    0    0  0.00000000000E+00  0.00000000000E+00  0.19307373058E+03  0.19307373058E+03  0.00000000000E+00 0. -1.
         22   -1    0    0    0    0 -0.00000000000E+00 -0.00000000000E+00 -0.85936325962E+03  0.85936325962E+03  0.00000000000E+00 0. -1.
         24    2    1    2    0    0  0.68428928804E+01 -0.79903086362E+01 -0.57507521586E+03  0.58084136240E+03  0.80959954120E+02 0.  0.
         25    2    1    2    0    0 -0.28317796406E+02 -0.78508410256E+01 -0.25567729508E+03  0.28614938780E+03  0.12508820734E+03 0.  0.
        -24    2    1    2    0    0  0.21474903525E+02  0.15841149662E+02  0.16446298191E+03  0.18544624000E+03  0.81425561160E+02 0.  0.
        -11    1    3    3    0    0  0.12504369566E+02  0.30006890997E+02 -0.12600159337E+03  0.13012753090E+03  0.00000000000E+00 0.  1.
         12    1    3    3    0    0 -0.56614766852E+01 -0.37997199633E+02 -0.44907362248E+03  0.45071383150E+03  0.00000000000E+00 0. -1.
         13    1    5    5    0    0  0.11071445097E+02  0.26165971910E+02  0.16798586048E+03  0.17037160650E+03  0.00000000000E+00 0. -1.
        -14    1    5    5    0    0  0.10403458428E+02 -0.10324822248E+02 -0.35228785716E+01  0.15074633500E+02  0.00000000000E+00 0.  1.
          5    1    4    4  501    0  0.38852083560E+02 -0.24932154060E+02 -0.46118303511E+02  0.65387055460E+02  0.41800000000E+01 0.  1.
         -5    1    4    4    0  501 -0.67169879965E+02  0.17081313034E+02 -0.20955899157E+03  0.22076233234E+03  0.41800000000E+01 0.  1.
</event>
<event>
11    1  0.6455215E-009  0.1293748E+03  0.7561462E-02  0.1120040E+00
         22   -1    0    0    0    0  0.00000000000E+00  0.00000000000E+00  0.38113767931E+04  0.38113767931E+04  0.00000000000E+00 0.  1.
         22   -1    0    0    0    0 -0.00000000000E+00 -0.00000000000E+00 -0.90509397646E+02  0.90509397646E+02  0.00000000000E+00 0.  1.
         24    2    1    2    0    0  0.22149223914E+00  0.33296637166E+02 -0.66031419844E+02  0.10805695471E+03  0.78787320992E+02 0.  0.
         25    2    1    2    0    0 -0.18463579214E+02 -0.13991142124E+02  0.15105195089E+04  0.15158668594E+04  0.12508594208E+03 0.  0.
        -24    2    1    2    0    0  0.18242086974E+02 -0.19305495042E+02  0.22763793064E+04  0.22779623766E+04  0.80649654700E+02 0.  0.
        -13    1    3    3    0    0  0.32159792326E+02  0.13889294880E+02 -0.61005649938E+02  0.70348092221E+02  0.00000000000E+00 0.  1.
         14    1    3    3    0    0 -0.31938300087E+02  0.19407342286E+02 -0.50257699063E+01  0.37708862489E+02  0.00000000000E+00 0. -1.
         11    1    5    5    0    0 -0.12362212845E+02 -0.30403201364E+02  0.41411262282E+03  0.41541117383E+03  0.00000000000E+00 0. -1.
        -12    1    5    5    0    0  0.30604299820E+02  0.11097706322E+02  0.18622666836E+04  0.18625512028E+04  0.00000000000E+00 0.  1.
          5    1    4    4  501    0  0.21786077439E+02 -0.13399214071E+02  0.13524654647E+04  0.13527137457E+04  0.41800000000E+01 0. -1.
         -5    1    4    4    0  501 -0.40249656652E+02 -0.59192805282E+00  0.15805404417E+03  0.16315311373E+03  0.41800000000E+01 0. -1.
</event>
<event>
11    1  0.6455215E-009  0.2021675E+03  0.7561462E-02  0.1053001E+00
         22   -1    0    0    0    0  0.00000000000E+00  0.00000000000E+00  0.32196041761E+04  0.32196041761E+04  0.00000000000E+00 0.  1.
         22   -1    0    0    0    0 -0.00000000000E+00 -0.00000000000E+00 -0.12696682795E+03  0.12696682795E+03  0.00000000000E+00 0.  1.
        -24    2    1    2    0    0  0.10405186895E+03  0.28748951682E+02 -0.43835477352E+02  0.14077225501E+03  0.79006234258E+02 0.  0.
         25    2    1    2    0    0  0.55082472456E+02 -0.76603784394E+02  0.16088330045E+03  0.22457550537E+03  0.12509397545E+03 0.  0.
         24    2    1    2    0    0 -0.15913434140E+03  0.47854832713E+02  0.29755895251E+04  0.29812232437E+04  0.77105015415E+02 0.  0.
        -13    1    5    5    0    0 -0.15776496549E+03  0.24645784909E+02  0.25408957938E+04  0.25459082139E+04  0.00000000000E+00 0.  1.
         14    1    5    5    0    0 -0.13693759099E+01  0.23209047803E+02  0.43469373129E+03  0.43531502974E+03  0.00000000000E+00 0. -1.
         13    1    3    3    0    0  0.99856274365E+02  0.14369691280E+02 -0.71398600056E+01  0.10113723923E+03  0.00000000000E+00 0. -1.
        -14    1    3    3    0    0  0.41955945809E+01  0.14379260402E+02 -0.36695617346E+02  0.39635015781E+02  0.00000000000E+00 0.  1.
          5    1    4    4  501    0 -0.68031387653E+01  0.26879333099E+02  0.63892779093E+02  0.69774930061E+02  0.41800000000E+01 0.  1.
         -5    1    4    4    0  501  0.61885611221E+02 -0.10348311749E+03  0.96990521356E+02  0.15480057531E+03  0.41800000000E+01 0.  1.
</event>
<event>
11    1  0.6455215E-009  0.1340248E+03  0.7561462E-02  0.1114420E+00
         22   -1    0    0    0    0  0.00000000000E+00  0.00000000000E+00  0.13979041240E+03  0.13979041240E+03  0.00000000000E+00 0. -1.
         22   -1    0    0    0    0 -0.00000000000E+00 -0.00000000000E+00 -0.63819185998E+03  0.63819185998E+03  0.00000000000E+00 0.  1.
         24    2    1    2    0    0 -0.25120351501E+02 -0.13331170528E+02 -0.51143835892E+03  0.51852492760E+03  0.80561488318E+02 0.  0.
         25    2    1    2    0    0 -0.26663869711E+02  0.24449734675E+02 -0.50005811233E+02  0.13948527164E+03  0.12508720307E+03 0.  0.
        -24    2    1    2    0    0  0.51784221212E+02 -0.11118564147E+02  0.63042722568E+02  0.11997207314E+03  0.87256434894E+02 0.  0.
        -13    1    3    3    0    0  0.18881066975E+01 -0.42931458083E+02 -0.32502773827E+03  0.32785622716E+03  0.00000000000E+00 0.  1.
         14    1    3    3    0    0 -0.27008458199E+02  0.29600287555E+02 -0.18641062064E+03  0.19066870044E+03  0.00000000000E+00 0. -1.
         11    1    5    5    0    0  0.73996698059E+02  0.59400115669E+00  0.33585395823E+02  0.81264032472E+02  0.00000000000E+00 0. -1.
        -12    1    5    5    0    0 -0.22212476847E+02 -0.11712565303E+02  0.29457326745E+02  0.38708040672E+02  0.00000000000E+00 0.  1.
          5    1    4    4  501    0  0.13681954266E+02 -0.36515279734E+01  0.36790507573E+02  0.39642696383E+02  0.41800000000E+01 0. -1.
         -5    1    4    4    0  501 -0.40345823977E+02  0.28101262648E+02 -0.86796318805E+02  0.99842575252E+02  0.41800000000E+01 0. -1.
</event>
<event>
11    1  0.6455215E-009  0.1452107E+03  0.7561462E-02  0.1101875E+00
         22   -1    0    0    0    0  0.00000000000E+00  0.00000000000E+00  0.82199002467E+03  0.82199002467E+03  0.00000000000E+00 0. -1.
         22   -1    0    0    0    0 -0.00000000000E+00 -0.00000000000E+00 -0.29324971817E+03  0.29324971817E+03  0.00000000000E+00 0.  1.
        -24    2    1    2    0    0  0.74273513091E+02  0.11290868476E+02 -0.24278225338E+03  0.27358996872E+03  0.10131243741E+03 0.  0.
         25    2    1    2    0    0 -0.60584412704E+02 -0.33243014769E+01  0.11618248787E+03  0.18118382016E+03  0.12509070372E+03 0.  0.
         24    2    1    2    0    0 -0.13689100387E+02 -0.79665669990E+01  0.65534007201E+03  0.66046595395E+03  0.80584171437E+02 0.  0.
        -13    1    5    5    0    0  0.21496492205E+02  0.25378147496E+02  0.23560284500E+03  0.23793875287E+03  0.00000000000E+00 0.  1.
         14    1    5    5    0    0 -0.35185592591E+02 -0.33344714495E+02  0.41973722701E+03  0.42252720108E+03  0.00000000000E+00 0. -1.
         11    1    3    3    0    0  0.60538036774E+02 -0.31027734187E+02 -0.80872778156E+02  0.10567866593E+03  0.00000000000E+00 0. -1.
        -12    1    3    3    0    0  0.13735476316E+02  0.42318602663E+02 -0.16190947522E+03  0.16791130280E+03  0.00000000000E+00 0.  1.
          5    1    4    4  501    0  0.17678516801E+02  0.38669532620E+02  0.12330336966E+02  0.44467654751E+02  0.41800000000E+01 0.  1.
         -5    1    4    4    0  501 -0.78262929505E+02 -0.41993834097E+02  0.10385215091E+03  0.13671616541E+03  0.41800000000E+01 0.  1.
</event>
<event>
11    1  0.6455215E-009  0.1367711E+03  0.7561462E-02  0.1111219E+00
         22   -1    0    0    0    0  0.00000000000E+00  0.00000000000E+00  0.43872470579E+03  0.43872470579E+03  0.00000000000E+00 0.  1.
         22   -1    0    0    0    0 -0.00000000000E+00 -0.00000000000E+00 -0.12319188855E+03  0.12319188855E+03  0.00000000000E+00 0. -1.
         24    2    1    2    0    0 -0.19990036757E+01 -0.57425868948E+02 -0.38142912973E+02  0.10616658486E+03  0.80713911382E+02 0.  0.
         25    2    1    2    0    0 -0.28863816235E+02  0.47609319803E+02  0.60311379477E+02  0.14961662011E+03  0.12509157965E+03 0.  0.
        -24    2    1    2    0    0  0.30862819911E+02  0.98165491442E+01  0.29336435074E+03  0.30613338937E+03  0.81278112113E+02 0.  0.
        -13    1    3    3    0    0 -0.18221803873E+02  0.14842133932E+02 -0.15470543120E+01  0.23552419261E+02  0.00000000000E+00 0.  1.
         14    1    3    3    0    0  0.16222800197E+02 -0.72268002879E+02 -0.36595858661E+02  0.82614165598E+02  0.00000000000E+00 0. -1.
         11    1    5    5    0    0 -0.24660149844E+02  0.17623916944E+02  0.80786087551E+02  0.86285093618E+02  0.00000000000E+00 0. -1.
        -12    1    5    5    0    0  0.55522969755E+02 -0.78073677994E+01  0.21257826319E+03  0.21984829575E+03  0.00000000000E+00 0.  1.
          5    1    4    4  501    0  0.40400390210E+02 -0.10514502055E+02  0.37494829669E+02  0.56267938780E+02  0.41800000000E+01 0.  1.
         -5    1    4    4    0  501 -0.69264206445E+02  0.58123821858E+02  0.22816549808E+02  0.93348681335E+02  0.41800000000E+01 0.  1.
</event>
<event>
11    1  0.6455215E-009  0.1342740E+03  0.7561462E-02  0.1114126E+00
         22   -1    0    0    0    0  0.00000000000E+00  0.00000000000E+00  0.13355927037E+04  0.13355927037E+04  0.00000000000E+00 0. -1.
         22   -1    0    0    0    0 -0.00000000000E+00 -0.00000000000E+00 -0.20142801147E+03  0.20142801147E+03  0.00000000000E+00 0.  1.
        -24    2    1    2    0    0 -0.33165049632E+02  0.58162459745E+01 -0.16554632806E+03  0.18677963552E+03  0.79669920774E+02 0.  0.
         25    2    1    2    0    0  0.61114978251E+02  0.32673805532E+02  0.19650047115E+03  0.24302967956E+03  0.12509345246E+03 0.  0.
         24    2    1    2    0    0 -0.27949928620E+02 -0.38490051507E+02  0.11032105492E+04  0.11072114001E+04  0.81122661298E+02 0.  0.
        -11    1    5    5    0    0  0.18983102726E+02 -0.14884987725E+02  0.11007347155E+03  0.11268580296E+03  0.00000000000E+00 0.  1.
         12    1    5    5    0    0 -0.46933031345E+02 -0.23605063782E+02  0.99313707761E+03  0.99452559715E+03  0.00000000000E+00 0. -1.
         13    1    3    3    0    0  0.25259824625E+02  0.93318729724E+01 -0.39489747158E+02  0.47797308751E+02  0.00000000000E+00 0. -1.
        -14    1    3    3    0    0 -0.58424874257E+02 -0.35156269979E+01 -0.12605658090E+03  0.13898232677E+03  0.00000000000E+00 0.  1.
          5    1    4    4  501    0  0.56068017780E+02 -0.39577881718E+02  0.11436074785E+03  0.13343869149E+03  0.41800000000E+01 0. -1.
         -5    1    4    4    0  501  0.50469604709E+01  0.72251687251E+02  0.82139723305E+02  0.10959098807E+03  0.41800000000E+01 0. -1.
</event>
<event>
11    1  0.7113436E-009  0.2243996E+03  0.7561462E-02  0.1038496E+00
         22   -1    0    0    0    0  0.00000000000E+00  0.00000000000E+00  0.21822961354E+04  0.21822961354E+04  0.00000000000E+00 0.  1.
         22   -1    0    0    0    0 -0.00000000000E+00 -0.00000000000E+00 -0.43504117598E+03  0.43504117598E+03  0.00000000000E+00 0. -1.
        -24    2    1    2    0    0 -0.85644071398E+02  0.55953354233E+02 -0.32419199085E+03  0.34965210002E+03  0.81795227887E+02 0.  0.
         25    2    1    2    0    0  0.11300161254E+03  0.13057823789E+03  0.29535975094E+02  0.21527094369E+03  0.12509662156E+03 0.  0.
         24    2    1    2    0    0 -0.27357541139E+02 -0.18653159212E+03  0.20419109752E+04  0.20524142677E+04  0.86379544115E+02 0.  0.
        -11    1    5    5    0    0  0.14158378838E+02 -0.14971727051E+03  0.15943662309E+04  0.16014429115E+04  0.00000000000E+00 0.  1.
         12    1    5    5    0    0 -0.41515919977E+02 -0.36814321606E+02  0.44754474431E+03  0.45097135612E+03  0.00000000000E+00 0. -1.
         11    1    3    3    0    0 -0.94934881589E+02  0.53158511535E+02 -0.32174758893E+03  0.33964683139E+03  0.00000000000E+00 0. -1.
        -12    1    3    3    0    0  0.92908101915E+01  0.27948426980E+01 -0.24444019207E+01  0.10005268636E+02  0.00000000000E+00 0.  1.
          5    1    4    4  501    0  0.11291147916E+03  0.14338680288E+03 -0.27666347596E+00  0.18255499529E+03  0.41800000000E+01 0. -1.
         -5    1    4    4    0  501  0.90133381089E-01 -0.12808564987E+02  0.29812638570E+02  0.32715948397E+02  0.41800000000E+01 0. -1.
</event>
<event>
11    1  0.6455215E-009  0.1314567E+03  0.7561462E-02  0.1117492E+00
         22   -1    0    0    0    0  0.00000000000E+00  0.00000000000E+00  0.78247057149E+03  0.78247057149E+03  0.00000000000E+00 0.  1.
         22   -1    0    0    0    0 -0.00000000000E+00 -0.00000000000E+00 -0.55373956098E+02  0.55373956098E+02  0.00000000000E+00 0. -1.
         24    2    1    2    0    0  0.84915996691E+01 -0.76517299454E+00  0.29085410184E+02  0.85898012985E+02  0.80372973036E+02 0.  0.
         25    2    1    2    0    0 -0.14979441506E+02  0.40351453343E+02  0.16502747880E+03  0.21150265735E+03  0.12508669733E+03 0.  0.
        -24    2    1    2    0    0  0.64878418372E+01 -0.39586280349E+02  0.53298372641E+03  0.54044385726E+03  0.79992153056E+02 0.  0.
        -11    1    3    3    0    0  0.11574037607E+02  0.24978375339E+02  0.46940199888E+02  0.54417459943E+02  0.00000000000E+00 0.  1.
         12    1    3    3    0    0 -0.30824379381E+01 -0.25743548334E+02 -0.17854789704E+02  0.31480553042E+02  0.00000000000E+00 0. -1.
         11    1    5    5    0    0 -0.31836846147E+02 -0.17087567511E+02  0.12715497877E+03  0.13218910077E+03  0.00000000000E+00 0. -1.
        -12    1    5    5    0    0  0.38324687984E+02 -0.22498712837E+02  0.40582874763E+03  0.40825475649E+03  0.00000000000E+00 0.  1.
          5    1    4    4  501    0 -0.62210495472E+02  0.52975635675E+02  0.11759442035E+03  0.14325670602E+03  0.41800000000E+01 0. -1.
         -5    1    4    4    0  501  0.47231053966E+02 -0.12624182332E+02  0.47433058452E+02  0.68245951326E+02  0.41800000000E+01 0. -1.
</event>
<event>
11    1  0.6455215E-009  0.2003496E+03  0.7561462E-02  0.1054277E+00
         22   -1    0    0    0    0  0.00000000000E+00  0.00000000000E+00  0.15263842615E+04  0.15263842615E+04  0.00000000000E+00 0. -1.
         22   -1    0    0    0    0 -0.00000000000E+00 -0.00000000000E+00 -0.21250093528E+04  0.21250093528E+04  0.00000000000E+00 0. -1.
         24    2    1    2    0    0 -0.29005919889E+02 -0.44919445565E+02 -0.20630076979E+04  0.20653136863E+04  0.81613488325E+02 0.  0.
         25    2    1    2    0    0 -0.69930324055E+02 -0.82800944226E+02  0.69298972636E+02  0.17943551022E+03  0.12509399719E+03 0.  0.
        -24    2    1    2    0    0  0.98936243945E+02  0.12772038979E+03  0.13950836339E+04  0.14066444178E+04  0.79305070095E+02 0.  0.
        -13    1    3    3    0    0 -0.52044133935E+02 -0.50998972044E+02 -0.14258813451E+04  0.14277419576E+04  0.00000000000E+00 0.  1.
         14    1    3    3    0    0  0.23038214045E+02  0.60795264782E+01 -0.63712635276E+03  0.63757172878E+03  0.00000000000E+00 0. -1.
         11    1    5    5    0    0  0.23588915140E+02  0.92275103076E+02  0.83284363387E+03  0.83827182348E+03  0.00000000000E+00 0. -1.
        -12    1    5    5    0    0  0.75347328804E+02  0.35445286716E+02  0.56224000003E+03  0.56837259429E+03  0.00000000000E+00 0.  1.
          5    1    4    4  501    0 -0.94869311084E+01  0.22525283223E+02  0.50796534601E+02  0.56525662964E+02  0.41800000000E+01 0.  1.
         -5    1    4    4    0  501 -0.60443392947E+02 -0.10532622745E+03  0.18502438036E+02  0.12290984726E+03  0.41800000000E+01 0.  1.
</event>
<event>
11    1  0.6455215E-009  0.1593970E+03  0.7561462E-02  0.1087646E+00
         22   -1    0    0    0    0  0.00000000000E+00  0.00000000000E+00  0.19422488407E+03  0.19422488407E+03  0.00000000000E+00 0.  1.
         22   -1    0    0    0    0 -0.00000000000E+00 -0.00000000000E+00 -0.22192525595E+04  0.22192525595E+04  0.00000000000E+00 0. -1.
        -24    2    1    2    0    0  0.39181901213E+02 -0.92791885695E+02 -0.17953907582E+04  0.18001125401E+04  0.82653655115E+02 0.  0.
         25    2    1    2    0    0 -0.43374251856E+02  0.76246376770E+02 -0.39751665034E+03  0.42586586309E+03  0.12508960929E+03 0.  0.
         24    2    1    2    0    0  0.41923506437E+01  0.16545508926E+02  0.16787973313E+03  0.18749904043E+03  0.81737113342E+02 0.  0.
        -13    1    5    5    0    0  0.42138749798E+02  0.16263469952E+01  0.96135194015E+02  0.10497759174E+03  0.00000000000E+00 0.  1.
         14    1    5    5    0    0 -0.37946399154E+02  0.14919161930E+02  0.71744539114E+02  0.82521448691E+02  0.00000000000E+00 0. -1.
         11    1    3    3    0    0  0.25630740362E+02 -0.58568174397E+01 -0.90575970199E+03  0.90614120032E+03  0.00000000000E+00 0. -1.
        -12    1    3    3    0    0  0.13551160851E+02 -0.86935068256E+02 -0.88963105623E+03  0.89397133973E+03  0.00000000000E+00 0.  1.
          5    1    4    4  501    0 -0.73647367937E+02  0.65235074040E+02 -0.37125959810E+03  0.38409726798E+03  0.41800000000E+01 0.  1.
         -5    1    4    4    0  501  0.30273116081E+02  0.11011302730E+02 -0.26257052244E+02  0.41768595111E+02  0.41800000000E+01 0.  1.
</event>
<event>
11    1  0.6455215E-009  0.1352730E+03  0.7561462E-02  0.1112955E+00
         22   -1    0    0    0    0  0.00000000000E+00  0.00000000000E+00  0.26865345525E+03  0.26865345525E+03  0.00000000000E+00 0.  1.
         22   -1    0    0    0    0 -0.00000000000E+00 -0.00000000000E+00 -0.18061535182E+04  0.18061535182E+04  0.00000000000E+00 0. -1.
        -24    2    1    2    0    0 -0.32365214066E+02  0.40655600299E+02 -0.17562546740E+04  0.17590689577E+04  0.84809982182E+02 0.  0.
         25    2    1    2    0    0  0.27077033418E+02  0.12005907969E+02  0.10052053695E+03  0.16318270577E+03  0.12508760749E+03 0.  0.
         24    2    1    2    0    0  0.52881806477E+01 -0.52661508268E+02  0.11823407410E+03  0.15255530999E+03  0.80576839224E+02 0.  0.
        -11    1    5    5    0    0  0.23193147817E+02 -0.65573758959E+02  0.10742349482E+03  0.12797518200E+03  0.00000000000E+00 0.  1.
         12    1    5    5    0    0 -0.17904967169E+02  0.12912250691E+02  0.10810579279E+02  0.24580127982E+02  0.00000000000E+00 0. -1.
         13    1    3    3    0    0 -0.49029829727E+02  0.30070903673E+02 -0.62473690783E+03  0.62737898232E+03  0.00000000000E+00 0. -1.
        -14    1    3    3    0    0  0.16664615661E+02  0.10584696626E+02 -0.11315177662E+04  0.11316899754E+04  0.00000000000E+00 0.  1.
          5    1    4    4  501    0  0.11060974472E+02  0.98099690542E+00 -0.29423395194E+02  0.31725637833E+02  0.41800000000E+01 0. -1.
         -5    1    4    4    0  501  0.16016058947E+02  0.11024911063E+02  0.12994393215E+03  0.13145706793E+03  0.41800000000E+01 0. -1.
</event>
<event>
11    1  0.6455215E-009  0.1594662E+03  0.7561462E-02  0.1087580E+00
         22   -1    0    0    0    0  0.00000000000E+00  0.00000000000E+00  0.14602581485E+04  0.14602581485E+04  0.00000000000E+00 0.  1.
         22   -1    0    0    0    0 -0.00000000000E+00 -0.00000000000E+00 -0.38082667618E+03  0.38082667618E+03  0.00000000000E+00 0. -1.
         24    2    1    2    0    0  0.76774816474E+02 -0.65427938576E+02 -0.32974052722E+03  0.35404791125E+03  0.80286490608E+02 0.  0.
         25    2    1    2    0    0 -0.52891168225E+02  0.54746793366E+02  0.10521951250E+03  0.18031435231E+03  0.12508969893E+03 0.  0.
        -24    2    1    2    0    0 -0.23883648249E+02  0.10681145209E+02  0.13039524871E+04  0.13067225612E+04  0.80915065176E+02 0.  0.
        -13    1    3    3    0    0  0.20193003833E+01  0.16347725930E+02 -0.26518856461E+02  0.31218191253E+02  0.00000000000E+00 0.  1.
         14    1    3    3    0    0  0.74755516090E+02 -0.81775664506E+02 -0.30322167076E+03  0.32282971999E+03  0.00000000000E+00 0. -1.
         11    1    5    5    0    0  0.22550899615E+02  0.16976275536E+02  0.22656620036E+03  0.22831771755E+03  0.00000000000E+00 0. -1.
        -12    1    5    5    0    0 -0.46434547864E+02 -0.62951303263E+01  0.10773862867E+04  0.10784048436E+04  0.00000000000E+00 0.  1.
          5    1    4    4  501    0 -0.93436112489E+02  0.46363587955E+02  0.68876663307E+02  0.12506540910E+03  0.41800000000E+01 0.  1.
         -5    1    4    4    0  501  0.40544944264E+02  0.83832054110E+01  0.36342849193E+02  0.55248943210E+02  0.41800000000E+01 0.  1.
</event>
<event>
11    1  0.6455215E-009  0.1487615E+03  0.7561462E-02  0.1098151E+00
         22   -1    0    0    0    0  0.00000000000E+00  0.00000000000E+00  0.15587538701E+04  0.15587538701E+04  0.00000000000E+00 0.  1.
         22   -1    0    0    0    0 -0.00000000000E+00 -0.00000000000E+00 -0.46897755110E+03  0.46897755110E+03  0.00000000000E+00 0. -1.
        -24    2    1    2    0    0 -0.25974561963E+02 -0.13919353965E+02 -0.33834658674E+03  0.34897827131E+03  0.80243347382E+02 0.  0.
         25    2    1    2    0    0 -0.10972692916E+01 -0.62299360503E+02 -0.83552832057E+02  0.16282183926E+03  0.12508981284E+03 0.  0.
         24    2    1    2    0    0  0.27071831255E+02  0.76218714467E+02  0.15116757378E+04  0.15159313106E+04  0.79636837085E+02 0.  0.
        -13    1    5    5    0    0  0.44527504378E+02  0.74304908353E+02  0.14166950865E+04  0.14193410042E+04  0.00000000000E+00 0.  1.
         14    1    5    5    0    0 -0.17455673123E+02  0.19138061148E+01  0.94980651301E+02  0.96590306447E+02  0.00000000000E+00 0. -1.
         11    1    3    3    0    0 -0.31132518936E+02 -0.34249101848E+02 -0.31145151726E+03  0.31487185063E+03  0.00000000000E+00 0. -1.
        -12    1    3    3    0    0  0.51579569722E+01  0.20329747883E+02 -0.26895069481E+02  0.34106420679E+02  0.00000000000E+00 0.  1.
          5    1    4    4  501    0  0.56218809357E+01  0.26582367705E+02  0.13801069523E+02  0.30759872204E+02  0.41800000000E+01 0.  1.
         -5    1    4    4    0  501 -0.67191502273E+01 -0.88881728208E+02 -0.97353901580E+02  0.13206196705E+03  0.41800000000E+01 0.  1.
</event>
<event>
11    1  0.6455215E-009  0.1303053E+03  0.7561462E-02  0.1118894E+00
         22   -1    0    0    0    0  0.00000000000E+00  0.00000000000E+00  0.42209959054E+03  0.42209959054E+03  0.00000000000E+00 0. -1.
         22   -1    0    0    0    0 -0.00000000000E+00 -0.00000000000E+00 -0.66345602063E+03  0.66345602063E+03  0.00000000000E+00 0. -1.
        -24    2    1    2    0    0 -0.36307058180E+02  0.94758366526E+01 -0.57387295138E+03  0.58048424947E+03  0.78891099621E+02 0.  0.
         25    2    1    2    0    0  0.22767810347E+02  0.45267032762E+01 -0.32048036097E+02  0.13120202779E+03  0.12509209107E+03 0.  0.
         24    2    1    2    0    0  0.13539247833E+02 -0.14002539929E+02  0.36456455739E+03  0.37386933390E+03  0.80570341749E+02 0.  0.
        -11    1    5    5    0    0  0.19141162175E+02  0.25840596395E+02  0.76147016837E+02  0.82658869364E+02  0.00000000000E+00 0.  1.
         12    1    5    5    0    0 -0.56019143417E+01 -0.39843136324E+02  0.28841754056E+03  0.29121046454E+03  0.00000000000E+00 0. -1.
         13    1    3    3    0    0  0.58233292890E+01  0.34787634642E+02 -0.31659357228E+03  0.31855232019E+03  0.00000000000E+00 0. -1.
        -14    1    3    3    0    0 -0.42130387469E+02 -0.25311797989E+02 -0.25727937911E+03  0.26193192929E+03  0.00000000000E+00 0.  1.
          5    1    4    4  501    0  0.45340153517E+01  0.61324918805E+02 -0.35813982057E+02  0.71284056229E+02  0.41800000000E+01 0.  1.
         -5    1    4    4    0  501  0.18233794996E+02 -0.56798215529E+02  0.37659459601E+01  0.59917971563E+02  0.41800000000E+01 0.  1.
</event>
<event>
11    1  0.6455215E-009  0.1696740E+03  0.7561462E-02  0.1078316E+00
         22   -1    0    0    0    0  0.00000000000E+00  0.00000000000E+00  0.10521269107E+04  0.10521269107E+04  0.00000000000E+00 0.  1.
         22   -1    0    0    0    0 -0.00000000000E+00 -0.00000000000E+00 -0.10534917316E+03  0.10534917316E+03  0.00000000000E+00 0.  1.
        -24    2    1    2    0    0  0.76608408317E+02 -0.92327762598E+02  0.54479943745E+01  0.14502284457E+03  0.81293793321E+02 0.  0.
         25    2    1    2    0    0 -0.55425597524E+02  0.84772536845E+02  0.16212558614E+03  0.22845259521E+03  0.12508997848E+03 0.  0.
         24    2    1    2    0    0 -0.21182810793E+02  0.75552257526E+01  0.77920415705E+03  0.78400064410E+03  0.83618769866E+02 0.  0.
        -13    1    5    5    0    0  0.24621697357E+01 -0.13014691180E+01  0.71506684942E+03  0.71507227274E+03  0.00000000000E+00 0.  1.
         14    1    5    5    0    0 -0.23644980529E+02  0.88566948706E+01  0.64137307636E+02  0.68928371365E+02  0.00000000000E+00 0. -1.
         13    1    3    3    0    0  0.10917084822E+02 -0.28597050753E+02  0.37173689829E+02  0.48154514516E+02  0.00000000000E+00 0. -1.
        -14    1    3    3    0    0  0.65691323496E+02 -0.63730711845E+02 -0.31725695455E+02  0.96868330052E+02  0.00000000000E+00 0.  1.
          5    1    4    4  501    0 -0.55911588099E+02 -0.15208158777E+02  0.80732576216E+02  0.99461625965E+02  0.41800000000E+01 0. -1.
         -5    1    4    4    0  501  0.48599057431E+00  0.99980695622E+02  0.81393009920E+02  0.12899096925E+03  0.41800000000E+01 0. -1.
</event>
<event>
11    1  0.6455215E-009  0.2085582E+03  0.7561462E-02  0.1048631E+00
         22   -1    0    0    0    0  0.00000000000E+00  0.00000000000E+00  0.77127411197E+03  0.77127411197E+03  0.00000000000E+00 0. -1.
         22   -1    0    0    0    0 -0.00000000000E+00 -0.00000000000E+00 -0.60876536253E+03  0.60876536253E+03  0.00000000000E+00 0.  1.
         24    2    1    2    0    0  0.69718654937E+02 -0.15415041310E+03 -0.50847086859E+03  0.54187821273E+03  0.80413509538E+02 0.  0.
         25    2    1    2    0    0  0.29793144746E+02  0.17091176419E+03  0.72236993049E+02  0.22575317255E+03  0.12509136317E+03 0.  0.
        -24    2    1    2    0    0 -0.99511799684E+02 -0.16761351096E+02  0.59874262499E+03  0.61240808922E+03  0.79795962257E+02 0.  0.
        -11    1    3    3    0    0  0.61798012265E+02 -0.13910689286E+03 -0.50043665808E+03  0.52307415412E+03  0.00000000000E+00 0.  1.
         12    1    3    3    0    0  0.79206426718E+01 -0.15043520239E+02 -0.80342105175E+01  0.18804058609E+02  0.00000000000E+00 0. -1.
         13    1    5    5    0    0 -0.98436860566E+02 -0.28525273284E+02  0.58653183020E+03  0.59541841975E+03  0.00000000000E+00 0. -1.
        -14    1    5    5    0    0 -0.10749391180E+01  0.11763922188E+02  0.12210794785E+02  0.16989669468E+02  0.00000000000E+00 0.  1.
          5    1    4    4  501    0 -0.27150058159E+01  0.16169427106E+03  0.92284090692E+02  0.18624240748E+03  0.41800000000E+01 0. -1.
         -5    1    4    4    0  501  0.32508150562E+02  0.92174931326E+01 -0.20047097643E+02  0.39510765071E+02  0.41800000000E+01 0. -1.
</event>
<event>
11    1  0.6455215E-009  0.1575164E+03  0.7561462E-02  0.1089437E+00
         22   -1    0    0    0    0  0.00000000000E+00  0.00000000000E+00  0.36317618663E+03  0.36317618663E+03  0.00000000000E+00 0.  1.
         22   -1    0    0    0    0 -0.00000000000E+00 -0.00000000000E+00 -0.25272554961E+04  0.25272554961E+04  0.00000000000E+00 0.  1.
        -24    2    1    2    0    0 -0.91099389481E+02  0.27313085149E+02 -0.23915052669E+04  0.23947681239E+04  0.81066776473E+02 0.  0.
         25    2    1    2    0    0  0.99134018618E+02 -0.91331517054E+02 -0.57306686772E+02  0.19261427590E+03  0.12508878158E+03 0.  0.
         24    2    1    2    0    0 -0.80346291365E+01  0.64018431906E+02  0.28473264419E+03  0.30304928294E+03  0.81260533665E+02 0.  0.
        -13    1    5    5    0    0 -0.32034471875E+02  0.53932550884E+02  0.11203759838E+03  0.12840307973E+03  0.00000000000E+00 0.  1.
         14    1    5    5    0    0  0.23999842738E+02  0.10085881022E+02  0.17269504581E+03  0.17464620320E+03  0.00000000000E+00 0. -1.
         11    1    3    3    0    0 -0.52210130000E+02 -0.26126451592E+02 -0.10161802855E+04  0.10178560123E+04  0.00000000000E+00 0. -1.
        -12    1    3    3    0    0 -0.38889259481E+02  0.53439536740E+02 -0.13753249814E+04  0.13769121116E+04  0.00000000000E+00 0.  1.
          5    1    4    4  501    0 -0.17841153219E+02 -0.56315023888E+01  0.20441508024E+02  0.28024064973E+02  0.41800000000E+01 0. -1.
         -5    1    4    4    0  501  0.11697517184E+03 -0.85700014665E+02 -0.77748194796E+02  0.16459021093E+03  0.41800000000E+01 0. -1.
</event>
<event>
11    1  0.6455215E-009  0.1556381E+03  0.7561462E-02  0.1091253E+00
         22   -1    0    0    0    0  0.00000000000E+00  0.00000000000E+00  0.28946863571E+03  0.28946863571E+03  0.00000000000E+00 0.  1.
         22   -1    0    0    0    0 -0.00000000000E+00 -0.00000000000E+00 -0.54419360314E+03  0.54419360314E+03  0.00000000000E+00 0. -1.
        -24    2    1    2    0    0  0.76350276998E+02  0.47111413019E+02 -0.27347942926E+03  0.30025556500E+03  0.85519331441E+02 0.  0.
         25    2    1    2    0    0 -0.80466621913E+02 -0.56208384541E+02 -0.22553018181E+03  0.27594406543E+03  0.12508798746E+03 0.  0.
         24    2    1    2    0    0  0.41163449157E+01  0.90969715217E+01  0.24428464364E+03  0.25746260842E+03  0.80698875052E+02 0.  0.
        -11    1    5    5    0    0 -0.82201931414E+01 -0.29821017563E+02  0.16912237370E+03  0.17192801386E+03  0.00000000000E+00 0.  1.
         12    1    5    5    0    0  0.12336538057E+02  0.38917989085E+02  0.75162269936E+02  0.85534594566E+02  0.00000000000E+00 0. -1.
         13    1    3    3    0    0  0.50016125524E+02  0.20125097323E+02 -0.25019870887E+03  0.25594145087E+03  0.00000000000E+00 0. -1.
        -14    1    3    3    0    0  0.26334151474E+02  0.26986315696E+02 -0.23280720384E+02  0.44314114121E+02  0.00000000000E+00 0.  1.
          5    1    4    4  501    0 -0.10388275142E+03 -0.10713718737E+02 -0.17547132246E+03  0.20424021939E+03  0.41800000000E+01 0. -1.
         -5    1    4    4    0  501  0.23416129510E+02 -0.45494665804E+02 -0.50058859350E+02  0.71703846042E+02  0.41800000000E+01 0. -1.
</event>
<event>
11    1  0.6455215E-009  0.1388509E+03  0.7561462E-02  0.1108848E+00
         22   -1    0    0    0    0  0.00000000000E+00  0.00000000000E+00  0.27948327862E+03  0.27948327862E+03  0.00000000000E+00 0. -1.
         22   -1    0    0    0    0 -0.00000000000E+00 -0.00000000000E+00 -0.37859056452E+03  0.37859056452E+03  0.00000000000E+00 0. -1.
         24    2    1    2    0    0  0.20305784649E+02  0.44655923901E+02 -0.26281921583E+03  0.28021805521E+03  0.83915087012E+02 0.  0.
         25    2    1    2    0    0 -0.78379670010E+02 -0.40783270205E+02 -0.34210593355E+02  0.15692345979E+03  0.12509180522E+03 0.  0.
        -24    2    1    2    0    0  0.58073885362E+02 -0.38726536966E+01  0.19792252328E+03  0.22093232814E+03  0.79058173448E+02 0.  0.
        -11    1    3    3    0    0 -0.26982714727E+02  0.17311208272E+02 -0.42542378747E+02  0.53269116900E+02  0.00000000000E+00 0.  1.
         12    1    3    3    0    0  0.47288499376E+02  0.27344715629E+02 -0.22027683708E+03  0.22694893831E+03  0.00000000000E+00 0. -1.
         11    1    5    5    0    0  0.73198837807E+02 -0.11456822446E+01  0.19005438153E+03  0.20366651758E+03  0.00000000000E+00 0. -1.
        -12    1    5    5    0    0 -0.15124952446E+02 -0.27269714520E+01  0.78681417502E+01  0.17265810563E+02  0.00000000000E+00 0.  1.
          5    1    4    4  501    0 -0.72194455941E+02  0.31494146849E+02 -0.64499238168E+01  0.79139084349E+02  0.41800000000E+01 0. -1.
         -5    1    4    4    0  501 -0.61852140691E+01 -0.72277417053E+02 -0.27760669538E+02  0.77784375437E+02  0.41800000000E+01 0. -1.
</event>
<event>
11    1  0.6455215E-009  0.2989527E+03  0.7561462E-02  0.1000635E+00
         22   -1    0    0    0    0  0.00000000000E+00  0.00000000000E+00  0.10687955055E+04  0.10687955055E+04  0.00000000000E+00 0. -1.
         22   -1    0    0    0    0 -0.00000000000E+00 -0.00000000000E+00 -0.36033199693E+03  0.36033199693E+03  0.00000000000E+00 0. -1.
        -24    2    1    2    0    0  0.70042943342E+02 -0.10763172454E+02 -0.16835065515E+03  0.19964673060E+03  0.80591650649E+02 0.  0.
         25    2    1    2    0    0 -0.25306441959E+03  0.20153760577E+03  0.41106575161E+02  0.34928089597E+03  0.12509351210E+03 0.  0.
         24    2    1    2    0    0  0.18302147624E+03 -0.19077443331E+03  0.83570758852E+03  0.88019987582E+03  0.80329961408E+02 0.  0.
        -13    1    5    5    0    0  0.36556464038E+02 -0.93613332378E+01  0.18937930898E+03  0.19310238811E+03  0.00000000000E+00 0.  1.
         14    1    5    5    0    0  0.14646501221E+03 -0.18141310008E+03  0.64632827955E+03  0.68709748771E+03  0.00000000000E+00 0. -1.
         11    1    3    3    0    0  0.86302968331E+02 -0.19760566790E+02 -0.14352798720E+03  0.16863856455E+03  0.00000000000E+00 0. -1.
        -12    1    3    3    0    0 -0.16260024989E+02  0.89973943364E+01 -0.24822667948E+02  0.31008166046E+02  0.00000000000E+00 0.  1.
          5    1    4    4  501    0 -0.10567383627E+02  0.40225887506E+02 -0.27494448414E+02  0.50032076870E+02  0.41800000000E+01 0. -1.
         -5    1    4    4    0  501 -0.24249703596E+03  0.16131171826E+03  0.68601023575E+02  0.29924881910E+03  0.41800000000E+01 0. -1.
</event>
<event>
11    1  0.6455215E-009  0.1438021E+03  0.7561462E-02  0.1103385E+00
         22   -1    0    0    0    0  0.00000000000E+00  0.00000000000E+00  0.21942778027E+04  0.21942778027E+04  0.00000000000E+00 0.  1.
         22   -1    0    0    0    0 -0.00000000000E+00 -0.00000000000E+00 -0.24081741590E+03  0.24081741590E+03  0.00000000000E+00 0.  1.
        -24    2    1    2    0    0 -0.23576349422E+02  0.71949459997E+02 -0.19697921864E+03  0.22586124778E+03  0.80497960401E+02 0.  0.
         25    2    1    2    0    0  0.88428756379E+02 -0.42410213008E+02  0.19950332441E+03  0.25508538351E+03  0.12509478529E+03 0.  0.
         24    2    1    2    0    0 -0.64852406956E+02 -0.29539246989E+02  0.19509362810E+04  0.19541485873E+04  0.86405595151E+02 0.  0.
        -13    1    5    5    0    0 -0.40476661979E+02  0.27051720559E+02  0.10329793496E+04  0.10341259558E+04  0.00000000000E+00 0.  1.
         14    1    5    5    0    0 -0.24375744978E+02 -0.56590967548E+02  0.91795693141E+03  0.92002263150E+03  0.00000000000E+00 0. -1.
         13    1    3    3    0    0  0.16979939563E+02 -0.95394743372E+01 -0.35923111952E+02  0.40863062667E+02  0.00000000000E+00 0. -1.
        -14    1    3    3    0    0 -0.40556288986E+02  0.81488934334E+02 -0.16105610669E+03  0.18499818512E+03  0.00000000000E+00 0.  1.
          5    1    4    4  501    0  0.10014246669E+03  0.13094819821E+02  0.14098885714E+03  0.17348002242E+03  0.41800000000E+01 0. -1.
         -5    1    4    4    0  501 -0.11713710309E+02 -0.55505032828E+02  0.58514467272E+02  0.81605361090E+02  0.41800000000E+01 0. -1.
</event>
<event>
11    1  0.6455215E-009  0.1309439E+03  0.7561462E-02  0.1118115E+00
         22   -1    0    0    0    0  0.00000000000E+00  0.00000000000E+00  0.11037438986E+04  0.11037438986E+04  0.00000000000E+00 0. -1.
         22   -1    0    0    0    0 -0.00000000000E+00 -0.00000000000E+00 -0.11655124102E+03  0.11655124102E+03  0.00000000000E+00 0.  1.
        -24    2    1    2    0    0  0.35610091793E+01 -0.12446035946E+02 -0.80932781715E+02  0.11517004628E+03  0.80910072338E+02 0.  0.
         25    2    1    2    0    0  0.34806325790E+02  0.28575162381E+01  0.24700092763E+03  0.27906403550E+03  0.12509049502E+03 0.  0.
         24    2    1    2    0    0 -0.38367334970E+02  0.95885197080E+01  0.82112451170E+03  0.82606105787E+03  0.81039592309E+02 0.  0.
        -13    1    5    5    0    0 -0.41410017119E+02 -0.12911140522E+02  0.20597668619E+03  0.21049437599E+03  0.00000000000E+00 0.  1.
         14    1    5    5    0    0  0.30426821491E+01  0.22499660230E+02  0.61514782550E+03  0.61556668188E+03  0.00000000000E+00 0. -1.
         11    1    3    3    0    0 -0.11565065952E+02 -0.31071670006E+02 -0.26126616167E+01  0.33256960597E+02  0.00000000000E+00 0. -1.
        -12    1    3    3    0    0  0.15126075131E+02  0.18625634060E+02 -0.78320120098E+02  0.81913085678E+02  0.00000000000E+00 0.  1.
          5    1    4    4  501    0  0.81078552270E+02 -0.26050459915E+00  0.13167234390E+03  0.15468961842E+03  0.41800000000E+01 0.  1.
         -5    1    4    4    0  501 -0.46272226479E+02  0.31180208373E+01  0.11532858373E+03  0.12437441707E+03  0.41800000000E+01 0.  1.
</event>
<event>
11    1  0.6496970E-009  0.1393175E+03  0.7561462E-02  0.1108323E+00
         22   -1    0    0    0    0  0.00000000000E+00  0.00000000000E+00  0.75607300132E+03  0.75607300132E+03  0.00000000000E+00 0. -1.
         22   -1    0    0    0    0 -0.00000000000E+00 -0.00000000000E+00 -0.81590940591E+03  0.81590940591E+03  0.00000000000E+00 0.  1.
        -24    2    1    2    0    0 -0.22238242456E+02  0.25787319114E+02 -0.54451489329E+03  0.55137602494E+03  0.79746640103E+02 0.  0.
         25    2    1    2    0    0  0.19887528606E+02  0.35836617617E+02 -0.24815390821E+03  0.28090628389E+03  0.12509277042E+03 0.  0.
         24    2    1    2    0    0  0.23507138493E+01 -0.61623936730E+02  0.73283239691E+03  0.73970009841E+03  0.79434741733E+02 0.  0.
        -11    1    5    5    0    0 -0.28139836869E+01  0.17382725641E+02  0.71108689068E+02  0.73256558176E+02  0.00000000000E+00 0.  1.
         12    1    5    5    0    0  0.51646975363E+01 -0.79006662371E+02  0.66172370784E+03  0.66644354023E+03  0.00000000000E+00 0. -1.
         13    1    3    3    0    0 -0.46342592773E+02  0.30500992496E+02 -0.26278462214E+03  0.26857718459E+03  0.00000000000E+00 0. -1.
        -14    1    3    3    0    0  0.24104350317E+02 -0.47136733828E+01 -0.28173027115E+03  0.28279884035E+03  0.00000000000E+00 0.  1.
          5    1    4    4  501    0  0.19262868071E+02 -0.42450300977E+01  0.79327281052E+01  0.21667462751E+02  0.41800000000E+01 0. -1.
         -5    1    4    4    0  501  0.62466053490E+00  0.40081647714E+02 -0.25608663632E+03  0.25923882114E+03  0.41800000000E+01 0. -1.
</event>
<event>
11    1  0.6455215E-009  0.1725156E+03  0.7561462E-02  0.1075863E+00
         22   -1    0    0    0    0  0.00000000000E+00  0.00000000000E+00  0.28238500218E+04  0.28238500218E+04  0.00000000000E+00 0. -1.
         22   -1    0    0    0    0 -0.00000000000E+00 -0.00000000000E+00 -0.51929903864E+02  0.51929903864E+02  0.00000000000E+00 0.  1.
        -24    2    1    2    0    0  0.78722601200E+01 -0.41331337518E+02  0.98035187277E+01  0.93146895380E+02  0.82522622347E+02 0.  0.
         25    2    1    2    0    0  0.39635680668E+02  0.13897955814E+03  0.12574151809E+04  0.12718592364E+04  0.12508667096E+03 0.  0.
         24    2    1    2    0    0 -0.47507940788E+02 -0.97648220621E+02  0.15047014183E+04  0.15107737939E+04  0.80739820736E+02 0.  0.
        -11    1    5    5    0    0  0.77562208463E+01 -0.74798742121E+01  0.24088321891E+02  0.26388534093E+02  0.00000000000E+00 0.  1.
         12    1    5    5    0    0 -0.55264161634E+02 -0.90168346409E+02  0.14806130964E+04  0.14843852598E+04  0.00000000000E+00 0. -1.
         11    1    3    3    0    0 -0.36599390898E+02 -0.25095931544E+02 -0.17624648134E+01  0.44412019504E+02  0.00000000000E+00 0. -1.
        -12    1    3    3    0    0  0.44471651018E+02 -0.16235405974E+02  0.11565983541E+02  0.48734875877E+02  0.00000000000E+00 0.  1.
          5    1    4    4  501    0  0.18540525716E+02  0.12263084967E+03  0.54572036694E+03  0.55965191654E+03  0.41800000000E+01 0.  1.
         -5    1    4    4    0  501  0.21095154952E+02  0.16348708467E+02  0.71169481397E+03  0.71220731986E+03  0.41800000000E+01 0.  1.
</event>
<event>
11    1  0.6455215E-009  0.1513211E+03  0.7561462E-02  0.1095536E+00
         22   -1    0    0    0    0  0.00000000000E+00  0.00000000000E+00  0.18448206265E+04  0.18448206265E+04  0.00000000000E+00 0. -1.
         22   -1    0    0    0    0 -0.00000000000E+00 -0.00000000000E+00 -0.27042402868E+04  0.27042402868E+04  0.00000000000E+00 0.  1.
        -24    2    1    2    0    0 -0.66582016495E+01  0.22935479055E+02 -0.26870442339E+04  0.26884241322E+04  0.82748004434E+02 0.  0.
         25    2    1    2    0    0 -0.52314980598E+02  0.42810443487E+02  0.34532744643E+03  0.37345460599E+03  0.12509079186E+03 0.  0.
         24    2    1    2    0    0  0.58973182248E+02 -0.65745922542E+02  0.14822971272E+04  0.14871821751E+04  0.81888253720E+02 0.  0.
        -11    1    5    5    0    0  0.41067190815E+02 -0.11755558031E+02  0.25386288088E+03  0.25743167947E+03  0.00000000000E+00 0.  1.
         12    1    5    5    0    0  0.17905991433E+02 -0.53990364511E+02  0.12284342463E+04  0.12297504956E+04  0.00000000000E+00 0. -1.
         13    1    3    3    0    0 -0.89604672811E+01  0.48331700127E+02 -0.10189196427E+04  0.10201046425E+04  0.00000000000E+00 0. -1.
        -14    1    3    3    0    0  0.23022656317E+01 -0.25396221072E+02 -0.16681245911E+04  0.16683194898E+04  0.00000000000E+00 0.  1.
          5    1    4    4  501    0 -0.66758936533E+02  0.80851892572E+01  0.32206062720E+03  0.32903289484E+03  0.41800000000E+01 0. -1.
         -5    1    4    4    0  501  0.14443955935E+02  0.34725254230E+02  0.23266819233E+02  0.44421711151E+02  0.41800000000E+01 0. -1.
</event>
<event>
11    1  0.6455215E-009  0.1387037E+03  0.7561462E-02  0.1109015E+00
         22   -1    0    0    0    0  0.00000000000E+00  0.00000000000E+00  0.21861201429E+03  0.21861201429E+03  0.00000000000E+00 0.  1.
         22   -1    0    0    0    0 -0.00000000000E+00 -0.00000000000E+00 -0.53001080881E+03  0.53001080881E+03  0.00000000000E+00 0.  1.
        -24    2    1    2    0    0  0.33126092925E+02 -0.48963721156E+02 -0.43001703510E+03  0.44135311182E+03  0.79894523056E+02 0.  0.
         25    2    1    2    0    0 -0.37066115025E+02  0.57576553003E+02 -0.22868053837E+02  0.14443327089E+03  0.12509622502E+03 0.  0.
         24    2    1    2    0    0  0.39400220998E+01 -0.86128318468E+01  0.14148629442E+03  0.16283644039E+03  0.80047674317E+02 0.  0.
        -13    1    5    5    0    0 -0.15995094588E+02  0.14753162865E+02  0.12704734595E+03  0.12889735055E+03  0.00000000000E+00 0.  1.
         14    1    5    5    0    0  0.19935116687E+02 -0.23365994712E+02  0.14438948465E+02  0.33939089837E+02  0.00000000000E+00 0. -1.
         11    1    3    3    0    0  0.19178049267E+02  0.18683004787E+02 -0.73920657341E+02  0.78620072648E+02  0.00000000000E+00 0. -1.
        -12    1    3    3    0    0  0.13948043658E+02 -0.67646725943E+02 -0.35609637776E+03  0.36273303917E+03  0.00000000000E+00 0.  1.
          5    1    4    4  501    0 -0.56446563318E+02 -0.29630853637E+01  0.27712978749E+02  0.63091013436E+02  0.41800000000E+01 0.  1.
         -5    1    4    4    0  501  0.19380448293E+02  0.60539638366E+02 -0.50581032585E+02  0.81342257449E+02  0.41800000000E+01 0.  1.
</event>
<event>
11    1  0.6455215E-009  0.1393890E+03  0.7561462E-02  0.1108243E+00
         22   -1    0    0    0    0  0.00000000000E+00  0.00000000000E+00  0.96519576389E+02  0.96519576389E+02  0.00000000000E+00 0. -1.
         22   -1    0    0    0    0 -0.00000000000E+00 -0.00000000000E+00 -0.19238492809E+04  0.19238492809E+04  0.00000000000E+00 0.  1.
         24    2    1    2    0    0  0.32273047543E+02 -0.35829661291E+02 -0.16597597937E+04  0.16624165092E+04  0.80627308093E+02 0.  0.
         25    2    1    2    0    0  0.41662128337E+01  0.83457540571E+02 -0.20239683323E+03  0.25217936363E+03  0.12508970755E+03 0.  0.
        -24    2    1    2    0    0 -0.36439260377E+02 -0.47627879280E+02  0.34826922496E+02  0.10577298445E+03  0.79867234378E+02 0.  0.
        -13    1    3    3    0    0  0.21612916039E+02 -0.59865186058E+02 -0.13661267009E+04  0.13676085411E+04  0.00000000000E+00 0.  1.
         14    1    3    3    0    0  0.10660131504E+02  0.24035524767E+02 -0.29363309280E+03  0.29480796807E+03  0.00000000000E+00 0. -1.
         11    1    5    5    0    0 -0.11704104908E+02 -0.66584835359E+02  0.16391414261E+02  0.69564393428E+02  0.00000000000E+00 0. -1.
        -12    1    5    5    0    0 -0.24735155469E+02  0.18956956079E+02  0.18435508235E+02  0.36208591021E+02  0.00000000000E+00 0.  1.
          5    1    4    4  501    0  0.45132224908E+02 -0.59416215198E+01 -0.10101805598E+03  0.11087984769E+03  0.41800000000E+01 0. -1.
         -5    1    4    4    0  501 -0.40966012074E+02  0.89399162090E+02 -0.10137877725E+03  0.14129951594E+03  0.41800000000E+01 0. -1.
</event>
<event>
11    1  0.6455215E-009  0.2125922E+03  0.7561462E-02  0.1045960E+00
         22   -1    0    0    0    0  0.00000000000E+00  0.00000000000E+00  0.28591040047E+03  0.28591040047E+03  0.00000000000E+00 0. -1.
         22   -1    0    0    0    0 -0.00000000000E+00 -0.00000000000E+00 -0.51112866651E+03  0.51112866651E+03  0.00000000000E+00 0.  1.
        -24    2    1    2    0    0  0.10844411974E+03 -0.12511963408E+03 -0.34060633099E+03  0.38748085691E+03  0.81937121163E+02 0.  0.
         25    2    1    2    0    0 -0.15842141064E+03  0.13001369890E+03 -0.12661638504E+02  0.24043532206E+03  0.12509165341E+03 0.  0.
         24    2    1    2    0    0  0.49977290904E+02 -0.48940648133E+01  0.12804970344E+03  0.16912288801E+03  0.98408044489E+02 0.  0.
        -11    1    5    5    0    0 -0.21074735342E+02  0.14894508714E+02  0.59634167845E+01  0.26486849555E+02  0.00000000000E+00 0.  1.
         12    1    5    5    0    0  0.71052026246E+02 -0.19788573528E+02  0.12208628666E+03  0.14263603845E+03  0.00000000000E+00 0. -1.
         11    1    3    3    0    0  0.42973113814E+02 -0.51296009385E+02 -0.59446406871E+02  0.89508906705E+02  0.00000000000E+00 0. -1.
        -12    1    3    3    0    0  0.65471005926E+02 -0.73823624700E+02 -0.28115992411E+03  0.29797195021E+03  0.00000000000E+00 0.  1.
          5    1    4    4  501    0 -0.15034727936E+03  0.48654547651E+02 -0.12459439594E+02  0.15856947832E+03  0.41800000000E+01 0.  1.
         -5    1    4    4    0  501 -0.80741312826E+01  0.81359151246E+02 -0.20219890981E+00  0.81865843744E+02  0.41800000000E+01 0.  1.
</event>
<event>
11    1  0.6455215E-009  0.1349603E+03  0.7561462E-02  0.1113320E+00
         22   -1    0    0    0    0  0.00000000000E+00  0.00000000000E+00  0.24785568938E+03  0.24785568938E+03  0.00000000000E+00 0. -1.
         22   -1    0    0    0    0 -0.00000000000E+00 -0.00000000000E+00 -0.50194859796E+03  0.50194859796E+03  0.00000000000E+00 0.  1.
         24    2    1    2    0    0  0.49708475771E+02 -0.75613892026E+01 -0.43667553138E+03  0.44650529336E+03  0.78443292391E+02 0.  0.
         25    2    1    2    0    0 -0.58821130170E+02  0.92362048739E+00  0.48814508248E+02  0.14659784648E+03  0.12508914400E+03 0.  0.
        -24    2    1    2    0    0  0.91126543987E+01  0.66377687152E+01  0.13376811455E+03  0.15670114751E+03  0.80834650468E+02 0.  0.
        -13    1    3    3    0    0  0.37230067620E+02  0.53974901078E+01 -0.42090080543E+03  0.42257863037E+03  0.00000000000E+00 0.  1.
         14    1    3    3    0    0  0.12478408151E+02 -0.12958879310E+02 -0.15774725951E+02  0.23926662989E+02  0.00000000000E+00 0. -1.
         11    1    5    5    0    0  0.30462621862E+02 -0.53990993940E+01  0.12777870827E+03  0.13147060466E+03  0.00000000000E+00 0. -1.
        -12    1    5    5    0    0 -0.21349967463E+02  0.12036868109E+02  0.59894062865E+01  0.25230542845E+02  0.00000000000E+00 0.  1.
          5    1    4    4  501    0 -0.37147430313E+02 -0.41473357939E+02 -0.22954447167E+02  0.60368452377E+02  0.41800000000E+01 0.  1.
         -5    1    4    4    0  501 -0.21673699856E+02  0.42396978426E+02  0.71768955416E+02  0.86229394099E+02  0.41800000000E+01 0.  1.
</event>
<event>
11    1  0.6455215E-009  0.1599478E+03  0.7561462E-02  0.1087126E+00
         22   -1    0    0    0    0  0.00000000000E+00  0.00000000000E+00  0.14631666946E+04  0.14631666946E+04  0.00000000000E+00 0. -1.
         22   -1    0    0    0    0 -0.00000000000E+00 -0.00000000000E+00 -0.13664775924E+03  0.13664775924E+03  0.00000000000E+00 0. -1.
         24    2    1    2    0    0 -0.96838083236E+02 -0.15757935166E+02 -0.83012317679E+02  0.15105806385E+03  0.79382409143E+02 0.  0.
         25    2    1    2    0    0  0.12062116453E+03 -0.14319406553E+01  0.40261917638E+03  0.43852258796E+03  0.12509333786E+03 0.  0.
        -24    2    1    2    0    0 -0.23783081292E+02  0.17189875821E+02  0.10069120766E+04  0.10102338020E+04  0.76415167767E+02 0.  0.
        -13    1    3    3    0    0  0.68957291490E+01 -0.21233958465E+02 -0.14817595168E+02  0.26795395111E+02  0.00000000000E+00 0.  1.
         14    1    3    3    0    0 -0.10373381238E+03  0.54760232991E+01 -0.68194722511E+02  0.12426266874E+03  0.00000000000E+00 0. -1.
         13    1    5    5    0    0 -0.31573455075E+02  0.43677048018E+02  0.70879684649E+03  0.71084283578E+03  0.00000000000E+00 0. -1.
        -14    1    5    5    0    0  0.77903737831E+01 -0.26487172197E+02  0.29811523014E+03  0.29939096622E+03  0.00000000000E+00 0.  1.
          5    1    4    4  501    0  0.11513665420E+03 -0.47667846030E+02  0.25825473925E+03  0.28677805954E+03  0.41800000000E+01 0.  1.
         -5    1    4    4    0  501  0.54845103257E+01  0.46235905375E+02  0.14436443713E+03  0.15174452842E+03  0.41800000000E+01 0.  1.
</event>
<event>
11    1  0.6455215E-009  0.1684635E+03  0.7561462E-02  0.1079377E+00
         22   -1    0    0    0    0  0.00000000000E+00  0.00000000000E+00  0.15953648544E+03  0.15953648544E+03  0.00000000000E+00 0.  1.
         22   -1    0    0    0    0 -0.00000000000E+00 -0.00000000000E+00 -0.63879197626E+03  0.63879197626E+03  0.00000000000E+00 0. -1.
         24    2    1    2    0    0  0.68255090738E+02 -0.86014419373E+02 -0.43276978500E+03  0.45347988355E+03  0.79354144335E+02 0.  0.
         25    2    1    2    0    0 -0.63476652601E+02  0.10982646063E+03 -0.13508928564E+03  0.22358125379E+03  0.12509326549E+03 0.  0.
        -24    2    1    2    0    0 -0.47784381372E+01 -0.23812041256E+02  0.88603579809E+02  0.12126732436E+03  0.79153792222E+02 0.  0.
        -13    1    3    3    0    0 -0.93277017966E+01 -0.46496703005E+02 -0.12739536239E+03  0.13593574868E+03  0.00000000000E+00 0.  1.
         14    1    3    3    0    0  0.77582792535E+02 -0.39517716368E+02 -0.30537442261E+03  0.31754413487E+03  0.00000000000E+00 0. -1.
         13    1    5    5    0    0 -0.15869660799E+02 -0.47758618699E+02  0.34337641873E+02  0.60924588167E+02  0.00000000000E+00 0. -1.
        -14    1    5    5    0    0  0.11091222661E+02  0.23946577444E+02  0.54265937936E+02  0.60342736195E+02  0.00000000000E+00 0.  1.
          5    1    4    4  501    0 -0.77035648009E+02  0.23555223472E+02 -0.10213298574E+03  0.13014591347E+03  0.41800000000E+01 0.  1.
         -5    1    4    4    0  501  0.13558995408E+02  0.86271237156E+02 -0.32956299892E+02  0.93435340314E+02  0.41800000000E+01 0.  1.
</event>
<event>
11    1  0.6455215E-009  0.1592307E+03  0.7561462E-02  0.1087803E+00
         22   -1    0    0    0    0  0.00000000000E+00  0.00000000000E+00  0.40468287195E+03  0.40468287195E+03  0.00000000000E+00 0.  1.
         22   -1    0    0    0    0 -0.00000000000E+00 -0.00000000000E+00 -0.87337424844E+03  0.87337424844E+03  0.00000000000E+00 0. -1.
        -24    2    1    2    0    0 -0.10720642345E+02  0.18456903250E+02 -0.81447926077E+03  0.81912913253E+03  0.84501361476E+02 0.  0.
         25    2    1    2    0    0 -0.87216220203E+02  0.15365727415E+02  0.11459794121E+03  0.19137258537E+03  0.12509198079E+03 0.  0.
         24    2    1    2    0    0  0.97936862548E+02 -0.33822630665E+02  0.23118994307E+03  0.26755540248E+03  0.86031995367E+02 0.  0.
        -13    1    5    5    0    0  0.98647058686E+02 -0.12187320650E+02  0.22346066585E+03  0.24456991261E+03  0.00000000000E+00 0.  1.
         14    1    5    5    0    0 -0.71019613828E+00 -0.21635310016E+02  0.77292772198E+01  0.22985489866E+02  0.00000000000E+00 0. -1.
         13    1    3    3    0    0 -0.20608883784E+02  0.46766702060E+02 -0.64466198802E+03  0.64668456708E+03  0.00000000000E+00 0. -1.
        -14    1    3    3    0    0  0.98882414398E+01 -0.28309798809E+02 -0.16981727275E+03  0.17244456545E+03  0.00000000000E+00 0.  1.
          5    1    4    4  501    0  0.17948002201E+02 -0.13129850585E+02  0.70002721706E+02  0.73568860299E+02  0.41800000000E+01 0.  1.
         -5    1    4    4    0  501 -0.10516422240E+03  0.28495578000E+02  0.44595219501E+02  0.11780372508E+03  0.41800000000E+01 0.  1.
</event>
<event>
11    1  0.6455215E-009  0.2012157E+03  0.7561462E-02  0.1053667E+00
         22   -1    0    0    0    0  0.00000000000E+00  0.00000000000E+00  0.41344165966E+03  0.41344165966E+03  0.00000000000E+00 0. -1.
         22   -1    0    0    0    0 -0.00000000000E+00 -0.00000000000E+00 -0.30763165335E+03  0.30763165335E+03  0.00000000000E+00 0.  1.
        -24    2    1    2    0    0  0.33087498247E+01  0.14432678957E+03 -0.84284455665E+02  0.18535557054E+03  0.80072767219E+02 0.  0.
         25    2    1    2    0    0 -0.17225531817E+02 -0.17542514183E+03 -0.96011917106E+02  0.23651241261E+03  0.12509649780E+03 0.  0.
         24    2    1    2    0    0  0.13916781992E+02  0.31098352261E+02  0.28610637909E+03  0.29920532986E+03  0.80660925662E+02 0.  0.
        -13    1    5    5    0    0  0.36790200506E+01 -0.80996483183E+01 -0.12709830022E+01  0.89863724164E+01  0.00000000000E+00 0.  1.
         14    1    5    5    0    0  0.10237761942E+02  0.39198000580E+02  0.28737736209E+03  0.29021895744E+03  0.00000000000E+00 0. -1.
         13    1    3    3    0    0 -0.32747160581E+02  0.10376445224E+03 -0.42306543576E+02  0.11674451466E+03  0.00000000000E+00 0. -1.
        -14    1    3    3    0    0  0.36055910406E+02  0.40562337327E+02 -0.41977912089E+02  0.68611055873E+02  0.00000000000E+00 0.  1.
          5    1    4    4  501    0 -0.59513464996E+02 -0.10086965745E+03 -0.94724350981E+02  0.15068747585E+03  0.41800000000E+01 0. -1.
         -5    1    4    4    0  501  0.42287933179E+02 -0.74555484376E+02 -0.12875661252E+01  0.85824936759E+02  0.41800000000E+01 0. -1.
</event>
<event>
11    1  0.6455215E-009  0.1567977E+03  0.7561462E-02  0.1090128E+00
         22   -1    0    0    0    0  0.00000000000E+00  0.00000000000E+00  0.51040770832E+02  0.51040770832E+02  0.00000000000E+00 0.  1.
         22   -1    0    0    0    0 -0.00000000000E+00 -0.00000000000E+00 -0.16674654049E+04  0.16674654049E+04  0.00000000000E+00 0.  1.
        -24    2    1    2    0    0 -0.19584142831E+02 -0.44365868817E+02 -0.81601055352E+03  0.82135956932E+03  0.80040300416E+02 0.  0.
         25    2    1    2    0    0 -0.66963255494E+02  0.82025336288E+02 -0.73592670351E+03  0.75395483012E+03  0.12509012567E+03 0.  0.
         24    2    1    2    0    0  0.86547398325E+02 -0.37659467472E+02 -0.64487377023E+02  0.14319177628E+03  0.86235580542E+02 0.  0.
        -11    1    5    5    0    0  0.39448885394E+02 -0.51302704923E+02 -0.33268622029E+01  0.64801621148E+02  0.00000000000E+00 0.  1.
         12    1    5    5    0    0  0.47098512931E+02  0.13643237451E+02 -0.61160514820E+02  0.78390155131E+02  0.00000000000E+00 0. -1.
         13    1    3    3    0    0  0.21743621127E+02  0.40625832621E+01 -0.94891584716E+02  0.97435632560E+02  0.00000000000E+00 0. -1.
        -14    1    3    3    0    0 -0.41327763958E+02 -0.48428452079E+02 -0.72111896881E+03  0.72392393676E+03  0.00000000000E+00 0.  1.
          5    1    4    4  501    0 -0.99518497451E+02  0.64804956309E+02 -0.64336980958E+03  0.65425209054E+03  0.41800000000E+01 0.  1.
         -5    1    4    4    0  501  0.32555241957E+02  0.17220379980E+02 -0.92556893932E+02  0.99702739580E+02  0.41800000000E+01 0.  1.
</event>
<event>
11    1  0.6455215E-009  0.1969795E+03  0.7561462E-02  0.1056680E+00
         22   -1    0    0    0    0  0.00000000000E+00  0.00000000000E+00  0.57077741934E+03  0.57077741934E+03  0.00000000000E+00 0. -1.
         22   -1    0    0    0    0 -0.00000000000E+00 -0.00000000000E+00 -0.10569187559E+04  0.10569187559E+04  0.00000000000E+00 0. -1.
        -24    2    1    2    0    0 -0.50314945495E+02 -0.86077346843E+02 -0.97783118270E+03  0.98602596773E+03  0.78437770191E+02 0.  0.
         25    2    1    2    0    0  0.18101385457E+03  0.10949070078E+03  0.22429262731E+03  0.33273093747E+03  0.12509382471E+03 0.  0.
         24    2    1    2    0    0 -0.13069890907E+03 -0.23413353933E+02  0.26739721886E+03  0.30893927000E+03  0.79446900018E+02 0.  0.
        -13    1    5    5    0    0 -0.22748688121E+02  0.16792655301E+02  0.16197533123E+02  0.32586134514E+02  0.00000000000E+00 0.  1.
         14    1    5    5    0    0 -0.10795022095E+03 -0.40206009234E+02  0.25119968573E+03  0.27635313549E+03  0.00000000000E+00 0. -1.
         13    1    3    3    0    0  0.16036570398E+02 -0.35071777936E+02 -0.44433202712E+03  0.44600241202E+03  0.00000000000E+00 0. -1.
        -14    1    3    3    0    0 -0.66351515892E+02 -0.51005568906E+02 -0.53349915558E+03  0.54002355571E+03  0.00000000000E+00 0.  1.
          5    1    4    4  501    0  0.10849142133E+03  0.16895460075E+02  0.46047113713E+02  0.11913712332E+03  0.41800000000E+01 0.  1.
         -5    1    4    4    0  501  0.72522433244E+02  0.92595240701E+02  0.17824551360E+03  0.21359381415E+03  0.41800000000E+01 0.  1.
</event>
<event>
11    1  0.6455215E-009  0.2202836E+03  0.7561462E-02  0.1041040E+00
         22   -1    0    0    0    0  0.00000000000E+00  0.00000000000E+00  0.86876716344E+03  0.86876716344E+03  0.00000000000E+00 0. -1.
         22   -1    0    0    0    0 -0.00000000000E+00 -0.00000000000E+00 -0.23226675341E+03  0.23226675341E+03  0.00000000000E+00 0.  1.
         24    2    1    2    0    0  0.81865497059E+02 -0.49474849816E+02 -0.15292380432E+03  0.19902326696E+03  0.84112130459E+02 0.  0.
         25    2    1    2    0    0  0.11491229630E+03  0.10568108847E+03  0.25704145302E+03  0.32571848388E+03  0.12509553898E+03 0.  0.
        -24    2    1    2    0    0 -0.19677779336E+03 -0.56206238650E+02  0.53238276133E+03  0.57629216601E+03  0.82465840288E+02 0.  0.
        -13    1    3    3    0    0 -0.71479052785E+01 -0.10557377471E+02 -0.70429506023E+02  0.71574199874E+02  0.00000000000E+00 0.  1.
         14    1    3    3    0    0  0.89013402338E+02 -0.38917472345E+02 -0.82494298297E+02  0.12744906709E+03  0.00000000000E+00 0. -1.
         13    1    5    5    0    0 -0.14242008350E+03 -0.62468553250E+02  0.30429154707E+03  0.34172963867E+03  0.00000000000E+00 0. -1.
        -14    1    5    5    0    0 -0.54357709858E+02  0.62623146000E+01  0.22809121427E+03  0.23456252734E+03  0.00000000000E+00 0.  1.
          5    1    4    4  501    0  0.13844231624E+02  0.95400152095E+02  0.10289528658E+03  0.14105943489E+03  0.41800000000E+01 0. -1.
         -5    1    4    4    0  501  0.10106806468E+03  0.10280936371E+02  0.15414616643E+03  0.18465904900E+03  0.41800000000E+01 0. -1.
</event>
<event>
11    1  0.6455215E-009  0.1498429E+03  0.7561462E-02  0.1097039E+00
         22   -1    0    0    0    0  0.00000000000E+00  0.00000000000E+00  0.14092346833E+03  0.14092346833E+03  0.00000000000E+00 0. -1.
         22   -1    0    0    0    0 -0.00000000000E+00 -0.00000000000E+00 -0.82241544052E+03  0.82241544052E+03  0.00000000000E+00 0. -1.
         24    2    1    2    0    0  0.17770426618E+02 -0.16369055572E+01 -0.68960434269E+03  0.69444103956E+03  0.79848233830E+02 0.  0.
         25    2    1    2    0    0 -0.92977772117E+02 -0.11753386926E+02 -0.11859700516E+02  0.15675498241E+03  0.12509382000E+03 0.  0.
        -24    2    1    2    0    0  0.75207345498E+02  0.13390292484E+02  0.19972071024E+02  0.11214288688E+03  0.79634783271E+02 0.  0.
        -11    1    3    3    0    0  0.97375604943E+00 -0.38604097934E+02 -0.24991978159E+03  0.25288559035E+03  0.00000000000E+00 0.  1.
         12    1    3    3    0    0  0.16796670569E+02  0.36967192377E+02 -0.43968456110E+03  0.44155544921E+03  0.00000000000E+00 0. -1.
         13    1    5    5    0    0  0.31390929626E+02 -0.11671240417E+02  0.44764330365E+02  0.55905756311E+02  0.00000000000E+00 0. -1.
        -14    1    5    5    0    0  0.43816415872E+02  0.25061532901E+02 -0.24792259341E+02  0.56237130567E+02  0.00000000000E+00 0.  1.
          5    1    4    4  501    0 -0.60123534034E+02 -0.59585415355E+02 -0.38113603091E+02  0.92926746464E+02  0.41800000000E+01 0.  1.
         -5    1    4    4    0  501 -0.32854238083E+02  0.47832028429E+02  0.26253902575E+02  0.63828235947E+02  0.41800000000E+01 0.  1.
</event>
<event>
11    1  0.6455215E-009  0.1410796E+03  0.7561462E-02  0.1106359E+00
         22   -1    0    0    0    0  0.00000000000E+00  0.00000000000E+00  0.49134249614E+03  0.49134249614E+03  0.00000000000E+00 0. -1.
         22   -1    0    0    0    0 -0.00000000000E+00 -0.00000000000E+00 -0.19513447891E+04  0.19513447891E+04  0.00000000000E+00 0.  1.
        -24    2    1    2    0    0 -0.12928415286E+00  0.71813401573E+02 -0.15310221550E+04  0.15346021733E+04  0.76274568321E+02 0.  0.
         25    2    1    2    0    0 -0.34703068348E+01 -0.28695764414E+02 -0.40425203234E+03  0.42414904702E+03  0.12508884248E+03 0.  0.
         24    2    1    2    0    0  0.35995909877E+01 -0.43117637159E+02  0.47527189442E+03  0.48393606489E+03  0.80241221233E+02 0.  0.
        -11    1    5    5    0    0  0.22493927113E+02 -0.23688956978E+01  0.36980037203E+02  0.43348720573E+02  0.00000000000E+00 0.  1.
         12    1    5    5    0    0 -0.18894336125E+02 -0.40748741462E+02  0.43829185722E+03  0.44058734432E+03  0.00000000000E+00 0. -1.
         11    1    3    3    0    0 -0.13946384375E+02  0.34110937898E+02 -0.22780090933E+03  0.23076245798E+03  0.00000000000E+00 0. -1.
        -12    1    3    3    0    0  0.13817100222E+02  0.37702463675E+02 -0.13032212457E+04  0.13038397153E+04  0.00000000000E+00 0.  1.
          5    1    4    4  501    0  0.25608831571E+02 -0.53604023468E+02 -0.36244197537E+03  0.36730213925E+03  0.41800000000E+01 0.  1.
         -5    1    4    4    0  501 -0.29079138406E+02  0.24908259054E+02 -0.41810056969E+02  0.56846907773E+02  0.41800000000E+01 0.  1.
</event>
<event>
11    1  0.6455215E-009  0.1552831E+03  0.7561462E-02  0.1091599E+00
         22   -1    0    0    0    0  0.00000000000E+00  0.00000000000E+00  0.13186667659E+04  0.13186667659E+04  0.00000000000E+00 0.  1.
         22   -1    0    0    0    0 -0.00000000000E+00 -0.00000000000E+00 -0.29146722635E+04  0.29146722635E+04  0.00000000000E+00 0.  1.
        -24    2    1    2    0    0  0.20515048744E+02  0.20835408145E+02 -0.27375740324E+04  0.27389071353E+04  0.80285312126E+02 0.  0.
         25    2    1    2    0    0 -0.19850621142E+02  0.71506108369E+02 -0.14315087903E+03  0.20407472914E+03  0.12508856947E+03 0.  0.
         24    2    1    2    0    0 -0.66442760207E+00 -0.92341516514E+02  0.12847194138E+04  0.12903571650E+04  0.77396667350E+02 0.  0.
        -13    1    5    5    0    0  0.14600430460E+02 -0.97094083292E+02  0.12083335563E+04  0.12123161374E+04  0.00000000000E+00 0.  1.
         14    1    5    5    0    0 -0.15264858062E+02  0.47525667778E+01  0.76385857441E+02  0.78041027669E+02  0.00000000000E+00 0. -1.
         13    1    3    3    0    0  0.25819667778E+02 -0.95002896678E+00 -0.27048157140E+03  0.27171278635E+03  0.00000000000E+00 0. -1.
        -14    1    3    3    0    0 -0.53046190342E+01  0.21785437112E+02 -0.24670924610E+04  0.24671943489E+04  0.00000000000E+00 0.  1.
          5    1    4    4  501    0 -0.29325700141E+02  0.91526443733E+02 -0.15197917076E+03  0.17986724920E+03  0.41800000000E+01 0.  1.
         -5    1    4    4    0  501  0.94750789988E+01 -0.20020335364E+02  0.88282917250E+01  0.24207479937E+02  0.41800000000E+01 0.  1.
</event>
<event>
11    1  0.6455215E-009  0.1355323E+03  0.7561462E-02  0.1112652E+00
         22   -1    0    0    0    0  0.00000000000E+00  0.00000000000E+00  0.32864905620E+04  0.32864905620E+04  0.00000000000E+00 0. -1.
         22   -1    0    0    0    0 -0.00000000000E+00 -0.00000000000E+00 -0.10201924581E+04  0.10201924581E+04  0.00000000000E+00 0. -1.
         24    2    1    2    0    0  0.31660214356E+02 -0.41412389751E+02 -0.10135481083E+04  0.10181337497E+04  0.81235517268E+02 0.  0.
         25    2    1    2    0    0 -0.53165982066E+02  0.35137962867E+02  0.14397145037E+04  0.14465439743E+04  0.12510123615E+03 0.  0.
        -24    2    1    2    0    0  0.21505767710E+02  0.62744268842E+01  0.18401317085E+04  0.18420052961E+04  0.79980871652E+02 0.  0.
        -13    1    3    3    0    0  0.58244830957E+02 -0.20553029324E+02 -0.58340690279E+03  0.58666728354E+03  0.00000000000E+00 0.  1.
         14    1    3    3    0    0 -0.26584616601E+02 -0.20859360428E+02 -0.43014120555E+03  0.43146646621E+03  0.00000000000E+00 0. -1.
         13    1    5    5    0    0  0.19591416003E+02 -0.51049000590E+01  0.18031825011E+04  0.18032961531E+04  0.00000000000E+00 0. -1.
        -14    1    5    5    0    0  0.19143517073E+01  0.11379326943E+02  0.36949207356E+02  0.38709142956E+02  0.00000000000E+00 0.  1.
          5    1    4    4  501    0 -0.74503836199E+02 -0.44148228876E+01  0.12174625292E+04  0.12197552192E+04  0.41800000000E+01 0. -1.
         -5    1    4    4    0  501  0.21337854133E+02  0.39552785755E+02  0.22225197456E+03  0.22678875518E+03  0.41800000000E+01 0. -1.
</event>
<event>
11    1  0.6455215E-009  0.1313013E+03  0.7561462E-02  0.1117680E+00
         22   -1    0    0    0    0  0.00000000000E+00  0.00000000000E+00  0.19111741132E+04  0.19111741132E+04  0.00000000000E+00 0. -1.
         22   -1    0    0    0    0 -0.00000000000E+00 -0.00000000000E+00 -0.27361394645E+04  0.27361394645E+04  0.00000000000E+00 0. -1.
        -24    2    1    2    0    0 -0.25405275088E+02 -0.29773957985E+02 -0.24815505458E+04  0.24831536264E+04  0.80167975620E+02 0.  0.
         25    2    1    2    0    0  0.25813511946E+02  0.54201365832E+02 -0.23379403527E+03  0.27186632172E+03  0.12509004956E+03 0.  0.
         24    2    1    2    0    0 -0.40823685840E+00 -0.24427407847E+02  0.18903792298E+04  0.18922936296E+04  0.81514925929E+02 0.  0.
        -11    1    5    5    0    0  0.52956399544E+01 -0.47706737290E+02  0.68657978011E+03  0.68825560007E+03  0.00000000000E+00 0.  1.
         12    1    5    5    0    0 -0.57038768128E+01  0.23279329443E+02  0.12037994497E+04  0.12040380295E+04  0.00000000000E+00 0. -1.
         13    1    3    3    0    0  0.32530174393E+01  0.84968086986E+01 -0.17587313287E+04  0.17587548620E+04  0.00000000000E+00 0. -1.
        -14    1    3    3    0    0 -0.28658292527E+02 -0.38270766683E+02 -0.72281921711E+03  0.72439876445E+03  0.00000000000E+00 0.  1.
          5    1    4    4  501    0  0.69627660461E+02  0.11597654032E+01 -0.12170886305E+03  0.14028498103E+03  0.41800000000E+01 0. -1.
         -5    1    4    4    0  501 -0.43814148515E+02  0.53041600429E+02 -0.11208517222E+03  0.13158134069E+03  0.41800000000E+01 0. -1.
</event>
<event>
11    1  0.6455215E-009  0.1266674E+03  0.7561462E-02  0.1123433E+00
         22   -1    0    0    0    0  0.00000000000E+00  0.00000000000E+00  0.10475264960E+04  0.10475264960E+04  0.00000000000E+00 0. -1.
         22   -1    0    0    0    0 -0.00000000000E+00 -0.00000000000E+00 -0.22707479296E+03  0.22707479296E+03  0.00000000000E+00 0. -1.
         24    2    1    2    0    0  0.13960771512E+02 -0.18509265691E+02 -0.16883763868E+03  0.18300563743E+03  0.66688972402E+02 0.  0.
         25    2    1    2    0    0 -0.31716898570E+01  0.83376421241E+00  0.29931021376E+02  0.12866673424E+03  0.12509399538E+03 0.  0.
        -24    2    1    2    0    0 -0.10789081655E+02  0.17675501479E+02  0.95935832033E+03  0.96292891729E+03  0.80217736946E+02 0.  0.
        -13    1    3    3    0    0  0.21642033601E+02  0.12410393066E+02 -0.23693682385E+02  0.34406192166E+02  0.00000000000E+00 0.  1.
         14    1    3    3    0    0 -0.76812620886E+01 -0.30919658757E+02 -0.14514395629E+03  0.14859944526E+03  0.00000000000E+00 0. -1.
         13    1    5    5    0    0  0.14336546595E+01 -0.28689648203E+02  0.55405608616E+03  0.55480023242E+03  0.00000000000E+00 0. -1.
        -14    1    5    5    0    0 -0.12222736315E+02  0.46365149681E+02  0.40530223417E+03  0.40812868487E+03  0.00000000000E+00 0.  1.
          5    1    4    4  501    0  0.25809088107E+02  0.91693910461E+01 -0.42138254064E+02  0.50431058056E+02  0.41800000000E+01 0. -1.
         -5    1    4    4    0  501 -0.28980777964E+02 -0.83356268337E+01  0.72069275440E+02  0.78235676188E+02  0.41800000000E+01 0. -1.
</event>
<event>
11    1  0.6455215E-009  0.1419965E+03  0.7561462E-02  0.1105349E+00
         22   -1    0    0    0    0  0.00000000000E+00  0.00000000000E+00  0.18613424156E+03  0.18613424156E+03  0.00000000000E+00 0. -1.
         22   -1    0    0    0    0 -0.00000000000E+00 -0.00000000000E+00 -0.53319274900E+03  0.53319274900E+03  0.00000000000E+00 0. -1.
        -24    2    1    2    0    0  0.51092583634E+02  0.24728326811E+02 -0.36172378653E+03  0.37507960868E+03  0.81355226378E+02 0.  0.
         25    2    1    2    0    0 -0.23697356012E+02  0.42128051676E+02 -0.11329316035E+03  0.17555577677E+03  0.12509257834E+03 0.  0.
         24    2    1    2    0    0 -0.27395227622E+02 -0.66856378487E+02  0.12795843944E+03  0.16869160511E+03  0.82844562712E+02 0.  0.
        -11    1    5    5    0    0  0.26728293301E+02 -0.58873451716E+01  0.22731901158E+02  0.35578108806E+02  0.00000000000E+00 0.  1.
         12    1    5    5    0    0 -0.54123520922E+02 -0.60969033315E+02  0.10522653828E+03  0.13311349631E+03  0.00000000000E+00 0. -1.
         13    1    3    3    0    0  0.58879542030E+02 -0.11857466487E+02 -0.25542608490E+03  0.26239261581E+03  0.00000000000E+00 0. -1.
        -14    1    3    3    0    0 -0.77869583957E+01  0.36585793298E+02 -0.10629770162E+03  0.11268699287E+03  0.00000000000E+00 0.  1.
          5    1    4    4  501    0 -0.64392198215E+02  0.13358517194E+02 -0.10628465248E+03  0.12505480768E+03  0.41800000000E+01 0. -1.
         -5    1    4    4    0  501  0.40694842202E+02  0.28769534482E+02 -0.70085078776E+01  0.50500969088E+02  0.41800000000E+01 0. -1.
</event>
<event>
11    1  0.6455215E-009  0.1510653E+03  0.7561462E-02  0.1095795E+00
         22   -1    0    0    0    0  0.00000000000E+00  0.00000000000E+00  0.41303488824E+03  0.41303488824E+03  0.00000000000E+00 0. -1.
         22   -1    0    0    0    0 -0.00000000000E+00 -0.00000000000E+00 -0.78888370800E+03  0.78888370800E+03  0.00000000000E+00 0.  1.
         24    2    1    2    0    0 -0.76643472012E+02  0.27046898276E+02 -0.66805765004E+03  0.67787300198E+03  0.81271314280E+02 0.  0.
         25    2    1    2    0    0  0.13743278467E+03 -0.41147685087E+02 -0.23526850778E+02  0.19178604300E+03  0.12508985287E+03 0.  0.
        -24    2    1    2    0    0 -0.60789312663E+02  0.14100786811E+02  0.31573568107E+03  0.33225955126E+03  0.82542209683E+02 0.  0.
        -11    1    3    3    0    0 -0.37217782615E+02  0.36253709467E+02 -0.56124447711E+03  0.56364426536E+03  0.00000000000E+00 0.  1.
         12    1    3    3    0    0 -0.39425689397E+02 -0.92068111910E+01 -0.10681317294E+03  0.11422873662E+03  0.00000000000E+00 0. -1.
         13    1    5    5    0    0  0.61674671898E+01  0.21908195780E+02  0.17202584534E+03  0.17352492085E+03  0.00000000000E+00 0. -1.
        -14    1    5    5    0    0 -0.66956779852E+02 -0.78074089691E+01  0.14370983573E+03  0.15873463040E+03  0.00000000000E+00 0.  1.
          5    1    4    4  501    0  0.13264627280E+02 -0.62453563079E+02 -0.13038169074E+02  0.65298270505E+02  0.41800000000E+01 0. -1.
         -5    1    4    4    0  501  0.12416815739E+03  0.21305877991E+02 -0.10488681704E+02  0.12648777250E+03  0.41800000000E+01 0. -1.
</event>
<event>
11    1  0.6455215E-009  0.1636069E+03  0.7561462E-02  0.1083733E+00
         22   -1    0    0    0    0  0.00000000000E+00  0.00000000000E+00  0.10024733464E+04  0.10024733464E+04  0.00000000000E+00 0.  1.
         22   -1    0    0    0    0 -0.00000000000E+00 -0.00000000000E+00 -0.47103656649E+03  0.47103656649E+03  0.00000000000E+00 0. -1.
        -24    2    1    2    0    0 -0.83157900336E+02  0.65355986328E+02 -0.43369582947E+03  0.45410859237E+03  0.83282049865E+02 0.  0.
         25    2    1    2    0    0  0.55208861107E+02 -0.86688383145E+02  0.24268929138E+03  0.29173332223E+03  0.12508934820E+03 0.  0.
         24    2    1    2    0    0  0.27949039228E+02  0.21332396817E+02  0.72244331800E+03  0.72766799830E+03  0.79625046777E+02 0.  0.
        -13    1    5    5    0    0 -0.37567386828E+01  0.11330506277E+02  0.61683057865E+03  0.61694607238E+03  0.00000000000E+00 0.  1.
         14    1    5    5    0    0  0.31705777911E+02  0.10001890540E+02  0.10561273935E+03  0.11072192592E+03  0.00000000000E+00 0. -1.
         11    1    3    3    0    0 -0.54459086602E+02  0.79901228821E+02 -0.37396003830E+03  0.38625912122E+03  0.00000000000E+00 0. -1.
        -12    1    3    3    0    0 -0.28698813734E+02 -0.14545242493E+02 -0.59735791167E+02  0.67849471149E+02  0.00000000000E+00 0.  1.
          5    1    4    4  501    0  0.30095065107E+02 -0.10303225284E+03  0.10305642080E+03  0.14886052646E+03  0.41800000000E+01 0. -1.
         -5    1    4    4    0  501  0.25113796000E+02  0.16343869696E+02  0.13963287058E+03  0.14287279577E+03  0.41800000000E+01 0. -1.
</event>
<event>
11    1  0.6455215E-009  0.1473059E+03  0.7561462E-02  0.1099664E+00
         22   -1    0    0    0    0  0.00000000000E+00  0.00000000000E+00  0.65016642273E+03  0.65016642273E+03  0.00000000000E+00 0. -1.
         22   -1    0    0    0    0 -0.00000000000E+00 -0.00000000000E+00 -0.55981934964E+03  0.55981934964E+03  0.00000000000E+00 0. -1.
        -24    2    1    2    0    0  0.75369751227E+02 -0.19352250753E+02 -0.52815914445E+03  0.53959480091E+03  0.78456091539E+02 0.  0.
         25    2    1    2    0    0 -0.69451719714E+02  0.37883087198E+02  0.23251409049E+03  0.27562485736E+03  0.12509032757E+03 0.  0.
         24    2    1    2    0    0 -0.59180315126E+01 -0.18530836444E+02  0.38599212704E+03  0.39476611409E+03  0.80448416395E+02 0.  0.
        -11    1    5    5    0    0  0.82111580707E+00 -0.10159570208E+01 -0.40588788149E+01  0.42639063159E+01  0.00000000000E+00 0.  1.
         12    1    5    5    0    0 -0.67391473197E+01 -0.17514879424E+02  0.39005100586E+03  0.39050220778E+03  0.00000000000E+00 0. -1.
         13    1    3    3    0    0  0.82124234912E+01 -0.20505432724E+00 -0.31860679687E+03  0.31871268716E+03  0.00000000000E+00 0. -1.
        -14    1    3    3    0    0  0.67157327735E+02 -0.19147196426E+02 -0.20955234758E+03  0.22088211376E+03  0.00000000000E+00 0.  1.
          5    1    4    4  501    0 -0.10243774671E+03  0.30069467900E+02  0.13413731675E+03  0.17148748350E+03  0.41800000000E+01 0.  1.
         -5    1    4    4    0  501  0.32986026999E+02  0.78136192974E+01  0.98376773739E+02  0.10413737386E+03  0.41800000000E+01 0.  1.
</event>
<event>
11    1  0.7520942E-009  0.1441462E+03  0.7561462E-02  0.1103015E+00
         22   -1    0    0    0    0  0.00000000000E+00  0.00000000000E+00  0.38751476448E+03  0.38751476448E+03  0.00000000000E+00 0. -1.
         22   -1    0    0    0    0 -0.00000000000E+00 -0.00000000000E+00 -0.11079816955E+04  0.11079816955E+04  0.00000000000E+00 0. -1.
         24    2    1    2    0    0  0.48035539068E+02 -0.25942236932E+02 -0.84785527576E+03  0.85346871293E+03  0.81054689198E+02 0.  0.
         25    2    1    2    0    0 -0.48782105913E+02 -0.46443859072E+02 -0.22919891334E+03  0.26966062003E+03  0.12509189507E+03 0.  0.
        -24    2    1    2    0    0  0.74656684510E+00  0.72386096004E+02  0.35658725810E+03  0.37236712701E+03  0.79135961344E+02 0.  0.
        -13    1    3    3    0    0  0.34005935040E+02  0.18330972862E+02 -0.18511435071E+03  0.18910248814E+03  0.00000000000E+00 0.  1.
         14    1    3    3    0    0  0.14029604028E+02 -0.44273209794E+02 -0.66274092505E+03  0.66436622478E+03  0.00000000000E+00 0. -1.
         13    1    5    5    0    0 -0.95803915941E+01  0.82806291885E+02  0.34067003215E+03  0.35072031119E+03  0.00000000000E+00 0. -1.
        -14    1    5    5    0    0  0.10326958439E+02 -0.10420195882E+02  0.15917225951E+02  0.21646815812E+02  0.00000000000E+00 0.  1.
          5    1    4    4  501    0 -0.10355621456E+02 -0.30202817029E+02  0.42465361047E+01  0.32480063440E+02  0.41800000000E+01 0.  1.
         -5    1    4    4    0  501 -0.38426484457E+02 -0.16241042043E+02 -0.23344544945E+03  0.23718055659E+03  0.41800000000E+01 0.  1.
</event>
<event>
11    1  0.6455215E-009  0.1381809E+03  0.7561462E-02  0.1109607E+00
         22   -1    0    0    0    0  0.00000000000E+00  0.00000000000E+00  0.27814408576E+03  0.27814408576E+03  0.00000000000E+00 0. -1.
         22   -1    0    0    0    0 -0.00000000000E+00 -0.00000000000E+00 -0.72097298902E+03  0.72097298902E+03  0.00000000000E+00 0. -1.
         24    2    1    2    0    0 -0.18951832297E+01 -0.48817219233E+00 -0.65823249529E+03  0.66311098784E+03  0.80264153358E+02 0.  0.
         25    2    1    2    0    0 -0.15373255297E+02 -0.55873621008E+02  0.56798561467E+02  0.14910212679E+03  0.12508864507E+03 0.  0.
        -24    2    1    2    0    0  0.17268438526E+02  0.56361793201E+02  0.15860503056E+03  0.18690396015E+03  0.79389444514E+02 0.  0.
        -11    1    3    3    0    0 -0.27807865898E+02 -0.13301339470E+02 -0.11348332198E+03  0.11759535453E+03  0.00000000000E+00 0.  1.
         12    1    3    3    0    0  0.25912682669E+02  0.12813167278E+02 -0.54474917330E+03  0.54551563332E+03  0.00000000000E+00 0. -1.
         11    1    5    5    0    0  0.36107279421E+02  0.23621749256E+01  0.93438958915E+02  0.10020057156E+03  0.00000000000E+00 0. -1.
        -12    1    5    5    0    0 -0.18838840895E+02  0.53999618275E+02  0.65166071640E+02  0.86703388591E+02  0.00000000000E+00 0.  1.
          5    1    4    4  501    0  0.21233495589E+02  0.26107797580E+02 -0.11938034469E+02  0.35950903972E+02  0.41800000000E+01 0.  1.
         -5    1    4    4    0  501 -0.36606750886E+02 -0.81981418588E+02  0.68736595936E+02  0.11315122282E+03  0.41800000000E+01 0.  1.
</event>
<event>
11    1  0.6455215E-009  0.1277508E+03  0.7561462E-02  0.1122064E+00
         22   -1    0    0    0    0  0.00000000000E+00  0.00000000000E+00  0.29719574800E+03  0.29719574800E+03  0.00000000000E+00 0. -1.
         22   -1    0    0    0    0 -0.00000000000E+00 -0.00000000000E+00 -0.33410431517E+04  0.33410431517E+04  0.00000000000E+00 0.  1.
         24    2    1    2    0    0  0.26158567273E+02 -0.86814062735E+00 -0.32674054296E+04  0.32685114753E+04  0.80894983171E+02 0.  0.
         25    2    1    2    0    0 -0.16115895315E+01 -0.12196514682E+02 -0.54541569923E+01  0.12581008383E+03  0.12508827752E+03 0.  0.
        -24    2    1    2    0    0 -0.24546977741E+02  0.13064655309E+02  0.22901218292E+03  0.24391734057E+03  0.79220261094E+02 0.  0.
        -11    1    3    3    0    0  0.40266398748E+02  0.22722186115E+02 -0.27401620827E+04  0.27405521195E+04  0.00000000000E+00 0.  1.
         12    1    3    3    0    0 -0.14107831475E+02 -0.23590326743E+02 -0.52724334698E+03  0.52795935578E+03  0.00000000000E+00 0. -1.
         13    1    5    5    0    0 -0.35781421918E+02 -0.16485127999E+02  0.58692550551E+02  0.70688648946E+02  0.00000000000E+00 0. -1.
        -14    1    5    5    0    0  0.11234444177E+02  0.29549783308E+02  0.17031963237E+03  0.17322869162E+03  0.00000000000E+00 0.  1.
          5    1    4    4  501    0 -0.79029740519E+01 -0.63772514341E+02  0.20499289069E+02  0.67580202993E+02  0.41800000000E+01 0.  1.
         -5    1    4    4    0  501  0.62913845204E+01  0.51575999659E+02 -0.25953446061E+02  0.58229880839E+02  0.41800000000E+01 0.  1.
</event>
<event>
11    1  0.6455215E-009  0.1474067E+03  0.7561462E-02  0.1099558E+00
         22   -1    0    0    0    0  0.00000000000E+00  0.00000000000E+00  0.44243362369E+03  0.44243362369E+03  0.00000000000E+00 0. -1.
         22   -1    0    0    0    0 -0.00000000000E+00 -0.00000000000E+00 -0.34636918902E+03  0.34636918902E+03  0.00000000000E+00 0. -1.
         24    2    1    2    0    0 -0.31545871732E+02 -0.76379169306E+02 -0.19082630897E+03  0.22435219055E+03  0.84203952893E+02 0.  0.
         25    2    1    2    0    0  0.66955258333E+02  0.39965567548E+02 -0.91952288871E+02  0.17373815121E+03  0.12509783591E+03 0.  0.
        -24    2    1    2    0    0 -0.35409386601E+02  0.36413601758E+02  0.37884303251E+03  0.39071247095E+03  0.80959351677E+02 0.  0.
        -11    1    3    3    0    0  0.77906074568E+01  0.10460779187E+02 -0.25137119651E+01  0.13283079974E+02  0.00000000000E+00 0.  1.
         12    1    3    3    0    0 -0.39336479189E+02 -0.86839948493E+02 -0.18831259700E+03  0.21106911058E+03  0.00000000000E+00 0. -1.
         11    1    5    5    0    0 -0.59656202399E+02  0.38865522327E+02  0.28092088727E+03  0.28980327157E+03  0.00000000000E+00 0. -1.
        -12    1    5    5    0    0  0.24246815798E+02 -0.24519205687E+01  0.97922145241E+02  0.10090919938E+03  0.00000000000E+00 0.  1.
          5    1    4    4  501    0  0.49063770638E+02 -0.37611903427E+02 -0.64448934205E+02  0.89403838781E+02  0.41800000000E+01 0.  1.
         -5    1    4    4    0  501  0.17891487695E+02  0.77577470975E+02 -0.27503354666E+02  0.84334312428E+02  0.41800000000E+01 0.  1.
</event>
<event>
11    1  0.6455215E-009  0.1326484E+03  0.7561462E-02  0.1116057E+00
         22   -1    0    0    0    0  0.00000000000E+00  0.00000000000E+00  0.19342352034E+04  0.19342352034E+04  0.00000000000E+00 0.  1.
         22   -1    0    0    0    0 -0.00000000000E+00 -0.00000000000E+00 -0.20777442872E+03  0.20777442872E+03  0.00000000000E+00 0.  1.
        -24    2    1    2    0    0  0.29654548471E+02  0.31971723754E+02 -0.17807737409E+03  0.20059882759E+03  0.81404883790E+02 0.  0.
         25    2    1    2    0    0 -0.50038597193E+02 -0.31424668467E+02  0.25749492220E+03  0.29230494875E+03  0.12508867696E+03 0.  0.
         24    2    1    2    0    0  0.20384048722E+02 -0.54705528649E+00  0.16470432265E+04  0.16491058557E+04  0.79893207824E+02 0.  0.
        -13    1    5    5    0    0 -0.12472220325E+02 -0.10772197614E+01  0.13788732027E+04  0.13789300294E+04  0.00000000000E+00 0.  1.
         14    1    5    5    0    0  0.32856269047E+02  0.53016447495E+00  0.26817002379E+03  0.27017582636E+03  0.00000000000E+00 0. -1.
         13    1    3    3    0    0 -0.17695033439E+02 -0.51128504849E+01 -0.77827772708E+01  0.19995676296E+02  0.00000000000E+00 0. -1.
        -14    1    3    3    0    0  0.47349581909E+02  0.37084574239E+02 -0.17029459682E+03  0.18060315130E+03  0.00000000000E+00 0.  1.
          5    1    4    4  501    0  0.35228963662E+02 -0.19836076512E+02  0.14512517684E+03  0.15070945280E+03  0.41800000000E+01 0. -1.
         -5    1    4    4    0  501 -0.85267560855E+02 -0.11588591956E+02  0.11236974537E+03  0.14159549594E+03  0.41800000000E+01 0. -1.
</event>
<event>
11    1  0.6455215E-009  0.1288565E+03  0.7561462E-02  0.1120682E+00
         22   -1    0    0    0    0  0.00000000000E+00  0.00000000000E+00  0.48576544281E+03  0.48576544281E+03  0.00000000000E+00 0. -1.
         22   -1    0    0    0    0 -0.00000000000E+00 -0.00000000000E+00 -0.15838061378E+04  0.15838061378E+04  0.00000000000E+00 0. -1.
        -24    2    1    2    0    0  0.10499809118E+02 -0.28653335771E+02 -0.15149402724E+04  0.15173877812E+04  0.80562954773E+02 0.  0.
         25    2    1    2    0    0 -0.27386251849E+02  0.48439462589E+02  0.10606897811E+02  0.13732163004E+03  0.12509330705E+03 0.  0.
         24    2    1    2    0    0  0.16886442731E+02 -0.19786126818E+02  0.40629267967E+03  0.41486216938E+03  0.79751083203E+02 0.  0.
        -13    1    5    5    0    0  0.10906491866E+02 -0.23135102369E+02  0.34199431607E+02  0.42705803454E+02  0.00000000000E+00 0.  1.
         14    1    5    5    0    0  0.59799508655E+01  0.33489755510E+01  0.37209324806E+03  0.37215636593E+03  0.00000000000E+00 0. -1.
         11    1    3    3    0    0  0.65539329437E+01  0.59692272727E+01 -0.12648926509E+04  0.12649237147E+04  0.00000000000E+00 0. -1.
        -12    1    3    3    0    0  0.39458761739E+01 -0.34622563043E+02 -0.25004762153E+03  0.25246406644E+03  0.00000000000E+00 0.  1.
          5    1    4    4  501    0  0.18686484792E+02 -0.12920866007E+02  0.46942638798E+02  0.52318421513E+02  0.41800000000E+01 0. -1.
         -5    1    4    4    0  501 -0.46072736641E+02  0.61360328596E+02 -0.36335740988E+02  0.85003208528E+02  0.41800000000E+01 0. -1.
</event>
<event>
11    1  0.6455215E-009  0.1345665E+03  0.7561462E-02  0.1113782E+00
         22   -1    0    0    0    0  0.00000000000E+00  0.00000000000E+00  0.28263846300E+03  0.28263846300E+03  0.00000000000E+00 0. -1.
         22   -1    0    0    0    0 -0.00000000000E+00 -0.00000000000E+00 -0.11907478659E+03  0.11907478659E+03  0.00000000000E+00 0.  1.
        -24    2    1    2    0    0  0.72530183224E+02  0.79037602054E+01 -0.28448641701E+01  0.10898460038E+03  0.80910153649E+02 0.  0.
         25    2    1    2    0    0 -0.33643840746E+00 -0.31920223176E+02  0.78423641290E+02  0.15105259918E+03  0.12509039279E+03 0.  0.
         24    2    1    2    0    0 -0.72193744816E+02  0.24016462970E+02  0.87984899294E+02  0.14167605002E+03  0.80882837254E+02 0.  0.
        -11    1    5    5    0    0 -0.35396481396E+02  0.34265777913E+02  0.40177258262E+01  0.49428701703E+02  0.00000000000E+00 0.  1.
         12    1    5    5    0    0 -0.36797263420E+02 -0.10249314943E+02  0.83967173468E+02  0.92247348321E+02  0.00000000000E+00 0. -1.
         11    1    3    3    0    0  0.76846730597E+02  0.28097809477E+02  0.13139588158E+02  0.82870716648E+02  0.00000000000E+00 0. -1.
        -12    1    3    3    0    0 -0.43165473733E+01 -0.20194049271E+02 -0.15984452328E+02  0.26113883729E+02  0.00000000000E+00 0.  1.
          5    1    4    4  501    0 -0.28028161728E+02  0.41013792094E+02  0.40391608657E+02  0.64161230051E+02  0.41800000000E+01 0.  1.
         -5    1    4    4    0  501  0.27691723320E+02 -0.72934015269E+02  0.38032032633E+02  0.86891369134E+02  0.41800000000E+01 0.  1.
</event>
<event>
11    1  0.6455215E-009  0.1511764E+03  0.7561462E-02  0.1095683E+00
         22   -1    0    0    0    0  0.00000000000E+00  0.00000000000E+00  0.48572462306E+03  0.48572462306E+03  0.00000000000E+00 0. -1.
         22   -1    0    0    0    0 -0.00000000000E+00 -0.00000000000E+00 -0.28102763254E+04  0.28102763254E+04  0.00000000000E+00 0. -1.
        -24    2    1    2    0    0  0.18966559983E+02 -0.46884596723E+02 -0.23409855090E+04  0.23428886276E+04  0.79724976099E+02 0.  0.
         25    2    1    2    0    0 -0.90445242963E+02  0.82588301993E+00 -0.44844070062E+03  0.47426490642E+03  0.12508843045E+03 0.  0.
         24    2    1    2    0    0  0.71478682980E+02  0.46058713704E+02  0.46487450734E+03  0.47884741445E+03  0.77174681850E+02 0.  0.
        -13    1    5    5    0    0  0.24970232044E+02 -0.76521283508E+01  0.38053168526E+02  0.46153127646E+02  0.00000000000E+00 0.  1.
         14    1    5    5    0    0  0.46508450936E+02  0.53710842054E+02  0.42682133882E+03  0.43269428680E+03  0.00000000000E+00 0. -1.
         11    1    3    3    0    0  0.26541331494E+02 -0.62889082500E+02 -0.21501990838E+04  0.21512823104E+04  0.00000000000E+00 0. -1.
        -12    1    3    3    0    0 -0.75747715111E+01  0.16004485776E+02 -0.19078642526E+03  0.19160631720E+03  0.00000000000E+00 0.  1.
          5    1    4    4  501    0 -0.11362805400E+03  0.49901935299E+01 -0.42776165050E+03  0.44264403161E+03  0.41800000000E+01 0.  1.
         -5    1    4    4    0  501  0.23182811038E+02 -0.41643105099E+01 -0.20679050127E+02  0.31620874811E+02  0.41800000000E+01 0.  1.
</event>
<event>
11    1  0.6455215E-009  0.1606771E+03  0.7561462E-02  0.1086442E+00
         22   -1    0    0    0    0  0.00000000000E+00  0.00000000000E+00  0.19614973613E+04  0.19614973613E+04  0.00000000000E+00 0.  1.
         22   -1    0    0    0    0 -0.00000000000E+00 -0.00000000000E+00 -0.16740782227E+03  0.16740782227E+03  0.00000000000E+00 0.  1.
         24    2    1    2    0    0  0.43427661991E+02 -0.74165045768E+02 -0.55716212494E+02  0.13106406933E+03  0.81774556527E+02 0.  0.
         25    2    1    2    0    0 -0.91376844039E+01 -0.23439173138E+02 -0.14930655447E+02  0.12848422196E+03  0.12510946690E+03 0.  0.
        -24    2    1    2    0    0 -0.34289977587E+02  0.97604218906E+02  0.18647364070E+04  0.18693568923E+04  0.80937859519E+02 0.  0.
        -13    1    3    3    0    0  0.10223207714E+02 -0.65012462515E+01 -0.54345636040E+02  0.55679694102E+02  0.00000000000E+00 0.  1.
         14    1    3    3    0    0  0.33204454277E+02 -0.67663799517E+02 -0.13705764546E+01  0.75384375229E+02  0.00000000000E+00 0. -1.
         11    1    5    5    0    0  0.20969749286E+02  0.25902266508E+01  0.25649034497E+03  0.25735915900E+03  0.00000000000E+00 0. -1.
        -12    1    5    5    0    0 -0.55259726873E+02  0.95013992256E+02  0.16082460620E+04  0.16119977333E+04  0.00000000000E+00 0.  1.
          5    1    4    4  501    0 -0.86249472573E+01 -0.12628135724E+02 -0.70221674396E+02  0.71988995562E+02  0.41800000000E+01 0. -1.
         -5    1    4    4    0  501 -0.51273714664E+00 -0.10811037414E+02  0.55291018949E+02  0.56495226398E+02  0.41800000000E+01 0. -1.
</event>
<event>
11    1  0.6455215E-009  0.2601391E+03  0.7561462E-02  0.1018632E+00
         22   -1    0    0    0    0  0.00000000000E+00  0.00000000000E+00  0.23060446618E+03  0.23060446618E+03  0.00000000000E+00 0. -1.
         22   -1    0    0    0    0 -0.00000000000E+00 -0.00000000000E+00 -0.69141695719E+03  0.69141695719E+03  0.00000000000E+00 0.  1.
        -24    2    1    2    0    0 -0.77541820468E+01  0.72300548592E+02 -0.38676326961E+03  0.40211550173E+03  0.82604802207E+02 0.  0.
         25    2    1    2    0    0  0.19899148477E+03  0.75736234071E+02 -0.94578027533E+02  0.26444483478E+03  0.12510986845E+03 0.  0.
         24    2    1    2    0    0 -0.19123730273E+03 -0.14803678266E+03  0.20528806129E+02  0.25546108686E+03  0.79701568625E+02 0.  0.
        -11    1    5    5    0    0 -0.32824360587E+02 -0.54108408161E+02 -0.20983350002E+02  0.66674278841E+02  0.00000000000E+00 0.  1.
         12    1    5    5    0    0 -0.15841294214E+03 -0.93928374503E+02  0.41512156131E+02  0.18878680802E+03  0.00000000000E+00 0. -1.
         13    1    3    3    0    0  0.19026688000E+02  0.71176622194E+02 -0.19438666454E+03  0.20788049873E+03  0.00000000000E+00 0. -1.
        -14    1    3    3    0    0 -0.26780870047E+02  0.11239263985E+01 -0.19237660507E+03  0.19423500300E+03  0.00000000000E+00 0.  1.
          5    1    4    4  501    0  0.11047613381E+02  0.36651816954E+02  0.17302757198E+02  0.42216859833E+02  0.41800000000E+01 0. -1.
         -5    1    4    4    0  501  0.18794387139E+03  0.39084417117E+02 -0.11188078473E+03  0.22222797494E+03  0.41800000000E+01 0. -1.
</event>
<event>
11    1  0.6455215E-009  0.1380265E+03  0.7561462E-02  0.1109782E+00
         22   -1    0    0    0    0  0.00000000000E+00  0.00000000000E+00  0.73535445349E+03  0.73535445349E+03  0.00000000000E+00 0. -1.
         22   -1    0    0    0    0 -0.00000000000E+00 -0.00000000000E+00 -0.14076605717E+03  0.14076605717E+03  0.00000000000E+00 0. -1.
         24    2    1    2    0    0  0.75142889036E+01 -0.49132767051E+02 -0.62283164878E+02  0.11271992156E+03  0.79725119959E+02 0.  0.
         25    2    1    2    0    0 -0.59433649187E+02  0.19664323679E+02  0.50251350956E+02  0.14859189492E+03  0.12504122793E+03 0.  0.
        -24    2    1    2    0    0  0.51919360283E+02  0.29468443372E+02  0.60662021024E+03  0.61480869419E+03  0.80234916695E+02 0.  0.
        -11    1    3    3    0    0 -0.16883906620E+02  0.97318346962E+01  0.49311419370E+01  0.20102016568E+02  0.00000000000E+00 0.  1.
         12    1    3    3    0    0  0.24398195524E+02 -0.58864601747E+02 -0.67214306815E+02  0.92617904987E+02  0.00000000000E+00 0. -1.
         13    1    5    5    0    0  0.21183626022E+02  0.53620668848E+02  0.43432501129E+03  0.43813483949E+03  0.00000000000E+00 0. -1.
        -14    1    5    5    0    0  0.30735734261E+02 -0.24152225476E+02  0.17229519895E+03  0.17667385470E+03  0.00000000000E+00 0.  1.
          5    1    4    4  501    0 -0.32728019046E+02  0.60571776318E+02 -0.11304346813E+02  0.69895092630E+02  0.41800000000E+01 0.  1.
         -5    1    4    4    0  501 -0.26705630141E+02 -0.40907452639E+02  0.61555697769E+02  0.78696802289E+02  0.41800000000E+01 0.  1.
</event>
<event>
11    1  0.6455215E-009  0.1411275E+03  0.7561462E-02  0.1106306E+00
         22   -1    0    0    0    0  0.00000000000E+00  0.00000000000E+00  0.33446635194E+03  0.33446635194E+03  0.00000000000E+00 0.  1.
         22   -1    0    0    0    0 -0.00000000000E+00 -0.00000000000E+00 -0.89474999340E+03  0.89474999340E+03  0.00000000000E+00 0. -1.
         24    2    1    2    0    0 -0.37680306125E+02 -0.55560562253E+02 -0.80923574153E+03  0.81585345766E+03  0.79041745103E+02 0.  0.
         25    2    1    2    0    0  0.57184533506E+02 -0.36417068987E+01 -0.71437531763E+01  0.13777469163E+03  0.12508996580E+03 0.  0.
        -24    2    1    2    0    0 -0.19504227381E+02  0.59202269151E+02  0.25609585324E+03  0.27558819604E+03  0.80488783005E+02 0.  0.
        -13    1    3    3    0    0  0.14832671612E+02 -0.52890872351E+01 -0.37109400596E+02  0.40312407563E+02  0.00000000000E+00 0.  1.
         14    1    3    3    0    0 -0.52512977737E+02 -0.50271475018E+02 -0.77212634093E+03  0.77554105010E+03  0.00000000000E+00 0. -1.
         13    1    5    5    0    0 -0.22072337011E+02  0.79741060425E+01  0.12380823293E+02  0.26534114150E+02  0.00000000000E+00 0. -1.
        -14    1    5    5    0    0  0.25681096291E+01  0.51228163109E+02  0.24371502995E+03  0.24905408189E+03  0.00000000000E+00 0.  1.
          5    1    4    4  501    0 -0.17230824796E+02 -0.26558432020E+02 -0.41668237526E+02  0.52497295673E+02  0.41800000000E+01 0. -1.
         -5    1    4    4    0  501  0.74415358302E+02  0.22916725121E+02  0.34524484349E+02  0.85277395957E+02  0.41800000000E+01 0. -1.
</event>
<event>
11    1  0.6455215E-009  0.1574186E+03  0.7561462E-02  0.1089531E+00
         22   -1    0    0    0    0  0.00000000000E+00  0.00000000000E+00  0.42730454381E+03  0.42730454381E+03  0.00000000000E+00 0. -1.
         22   -1    0    0    0    0 -0.00000000000E+00 -0.00000000000E+00 -0.60600402215E+03  0.60600402215E+03  0.00000000000E+00 0.  1.
         24    2    1    2    0    0 -0.10734040605E+02  0.14666542847E+02 -0.50857152780E+03  0.51523566789E+03  0.80575849216E+02 0.  0.
         25    2    1    2    0    0 -0.47337326877E+02  0.63886851040E+02 -0.17037140930E+02  0.14919865259E+03  0.12509045332E+03 0.  0.
        -24    2    1    2    0    0  0.58071367482E+02 -0.78553393887E+02  0.34690919039E+03  0.36887424547E+03  0.78608543955E+02 0.  0.
        -13    1    3    3    0    0 -0.18507658057E+02 -0.28724375014E+02 -0.14349538961E+03  0.14750779629E+03  0.00000000000E+00 0.  1.
         14    1    3    3    0    0  0.77736174515E+01  0.43390917861E+02 -0.36507613819E+03  0.36772787161E+03  0.00000000000E+00 0. -1.
         13    1    5    5    0    0  0.65590424951E+02 -0.23539510025E+02  0.18329907754E+03  0.19609886335E+03  0.00000000000E+00 0. -1.
        -14    1    5    5    0    0 -0.75190574692E+01 -0.55013883861E+02  0.16361011285E+03  0.17277538213E+03  0.00000000000E+00 0.  1.
          5    1    4    4  501    0 -0.16671057083E+02 -0.34965044884E+02  0.13457221598E+02  0.41219506561E+02  0.41800000000E+01 0. -1.
         -5    1    4    4    0  501 -0.30666269794E+02  0.98851895924E+02 -0.30494362527E+02  0.10797914603E+03  0.41800000000E+01 0. -1.
</event>
<event>
11    1  0.6455215E-009  0.4102879E+03  0.7561462E-02  0.9619881E-01
         22   -1    0    0    0    0  0.00000000000E+00  0.00000000000E+00  0.22128849948E+03  0.22128849948E+03  0.00000000000E+00 0. -1.
         22   -1    0    0    0    0 -0.00000000000E+00 -0.00000000000E+00 -0.12401850824E+04  0.12401850824E+04  0.00000000000E+00 0. -1.
         24    2    1    2    0    0  0.11232652532E+03  0.13665138632E+03 -0.10332422133E+04  0.10509350096E+04  0.74726658164E+02 0.  0.
         25    2    1    2    0    0  0.26741834074E+02 -0.42497837174E+02 -0.11372391091E+03  0.17635538545E+03  0.12508757817E+03 0.  0.
        -24    2    1    2    0    0 -0.13906835940E+03 -0.94153549143E+02  0.12806954133E+03  0.23418318675E+03  0.10116846416E+03 0.  0.
        -11    1    3    3    0    0  0.30419395936E+02  0.83363537069E+02 -0.36764256955E+03  0.37820084334E+03  0.00000000000E+00 0.  1.
         12    1    3    3    0    0  0.81907129386E+02  0.53287849248E+02 -0.66559964377E+03  0.67273416630E+03  0.00000000000E+00 0. -1.
         13    1    5    5    0    0 -0.12193383678E+03 -0.10798001194E+03  0.13451828177E+03  0.21124088539E+03  0.00000000000E+00 0. -1.
        -14    1    5    5    0    0 -0.17134522617E+02  0.13826462792E+02 -0.64487404408E+01  0.22942301365E+02  0.00000000000E+00 0.  1.
          5    1    4    4  501    0  0.68000164415E+02 -0.43905655314E+02 -0.10713897696E+03  0.13434270249E+03  0.41800000000E+01 0.  1.
         -5    1    4    4    0  501 -0.41258330341E+02  0.14078181406E+01 -0.65849339530E+01  0.42012682961E+02  0.41800000000E+01 0.  1.
</event>
<event>
11    1  0.6455215E-009  0.1806374E+03  0.7561462E-02  0.1069128E+00
         22   -1    0    0    0    0  0.00000000000E+00  0.00000000000E+00  0.26414674243E+03  0.26414674243E+03  0.00000000000E+00 0. -1.
         22   -1    0    0    0    0 -0.00000000000E+00 -0.00000000000E+00 -0.28074846688E+04  0.28074846688E+04  0.00000000000E+00 0. -1.
        -24    2    1    2    0    0  0.14334846026E+03 -0.38302487143E+02 -0.24008758115E+04  0.24069188081E+04  0.83890551546E+02 0.  0.
         25    2    1    2    0    0 -0.28975469026E+02  0.67879237786E+02 -0.36843110943E+03  0.39602532475E+03  0.12508959477E+03 0.  0.
         24    2    1    2    0    0 -0.11437299123E+03 -0.29576750643E+02  0.22596899464E+03  0.26868727836E+03  0.84704791555E+02 0.  0.
        -13    1    5    5    0    0  0.20129155809E+01 -0.27464154162E+02  0.59420761779E+02  0.65491667588E+02  0.00000000000E+00 0.  1.
         14    1    5    5    0    0 -0.11638590681E+03 -0.21125964809E+01  0.16654823286E+03  0.20319561078E+03  0.00000000000E+00 0. -1.
         13    1    3    3    0    0  0.98702198027E+02 -0.34120707218E+02 -0.10236964068E+04  0.10290095626E+04  0.00000000000E+00 0. -1.
        -14    1    3    3    0    0  0.44646262230E+02 -0.41817799251E+01 -0.13771794048E+04  0.13779092455E+04  0.00000000000E+00 0.  1.
          5    1    4    4  501    0  0.39617147538E+02 -0.47567202015E+01 -0.63444387477E+02  0.75065354648E+02  0.41800000000E+01 0.  1.
         -5    1    4    4    0  501 -0.68592616563E+02  0.72635957988E+02 -0.30498672196E+03  0.32095997011E+03  0.41800000000E+01 0.  1.
</event>
<event>
11    1  0.6455215E-009  0.1318614E+03  0.7561462E-02  0.1117003E+00
         22   -1    0    0    0    0  0.00000000000E+00  0.00000000000E+00  0.29640455446E+04  0.29640455446E+04  0.00000000000E+00 0. -1.
         22   -1    0    0    0    0 -0.00000000000E+00 -0.00000000000E+00 -0.83029759307E+03  0.83029759307E+03  0.00000000000E+00 0.  1.
         24    2    1    2    0    0  0.11452860438E+02  0.37151837831E+02 -0.75108559520E+03  0.75589281735E+03  0.75716265935E+02 0.  0.
         25    2    1    2    0    0  0.27923650201E+02 -0.50860387711E+02 -0.13661905714E+02  0.13856755250E+03  0.12509120537E+03 0.  0.
        -24    2    1    2    0    0 -0.39376510640E+02  0.13708549880E+02  0.28984954525E+04  0.28998827678E+04  0.79408722921E+02 0.  0.
        -13    1    3    3    0    0 -0.10807624354E+02  0.45846740719E+02 -0.66148249893E+03  0.66315746604E+03  0.00000000000E+00 0.  1.
         14    1    3    3    0    0  0.22260484793E+02 -0.86949028880E+01 -0.89603096273E+02  0.92735351303E+02  0.00000000000E+00 0. -1.
         11    1    5    5    0    0 -0.47367062344E+02  0.59547551710E+01  0.83894173477E+03  0.84029895397E+03  0.00000000000E+00 0. -1.
        -12    1    5    5    0    0  0.79905517042E+01  0.77537947092E+01  0.20595537177E+04  0.20595838139E+04  0.00000000000E+00 0.  1.
          5    1    4    4  501    0  0.38271319107E+02  0.54927143503E+00  0.45363890292E+02  0.59500844596E+02  0.41800000000E+01 0.  1.
         -5    1    4    4    0  501 -0.10347668906E+02 -0.51409659146E+02 -0.59025796005E+02  0.79066707908E+02  0.41800000000E+01 0.  1.
</event>
<event>
11    1  0.6455215E-009  0.1325160E+03  0.7561462E-02  0.1116216E+00
         22   -1    0    0    0    0  0.00000000000E+00  0.00000000000E+00  0.30927932337E+03  0.30927932337E+03  0.00000000000E+00 0. -1.
         22   -1    0    0    0    0 -0.00000000000E+00 -0.00000000000E+00 -0.32298003748E+03  0.32298003748E+03  0.00000000000E+00 0.  1.
        -24    2    1    2    0    0  0.19262734639E+02  0.40951115862E+02 -0.23632767568E+03  0.25396027568E+03  0.81221945902E+02 0.  0.
         25    2    1    2    0    0 -0.39128813902E+02 -0.16894275475E+02 -0.82831940325E+01  0.13240977478E+03  0.12508899445E+03 0.  0.
         24    2    1    2    0    0  0.19866079264E+02 -0.24056840387E+02  0.23091015560E+03  0.24588931040E+03  0.78540819535E+02 0.  0.
        -11    1    5    5    0    0  0.14691482209E+01  0.56571514124E+01 -0.48241432844E+01  0.75785300044E+01  0.00000000000E+00 0.  1.
         12    1    5    5    0    0  0.18396931043E+02 -0.29713991799E+02  0.23573429889E+03  0.23831078039E+03  0.00000000000E+00 0. -1.
         13    1    3    3    0    0 -0.25141872231E+02 -0.64944471910E+01 -0.45718173715E+02  0.52577970591E+02  0.00000000000E+00 0. -1.
        -14    1    3    3    0    0  0.44404606869E+02  0.47445563053E+02 -0.19060950196E+03  0.20138230509E+03  0.00000000000E+00 0.  1.
          5    1    4    4  501    0  0.14061972145E+02 -0.31686303667E+02  0.44058964907E+02  0.56217663500E+02  0.41800000000E+01 0. -1.
         -5    1    4    4    0  501 -0.53190786047E+02  0.14792028192E+02 -0.52342158940E+02  0.76192111277E+02  0.41800000000E+01 0. -1.
</event>
<event>
11    1  0.6455215E-009  0.1565599E+03  0.7561462E-02  0.1090358E+00
         22   -1    0    0    0    0  0.00000000000E+00  0.00000000000E+00  0.25699917671E+03  0.25699917671E+03  0.00000000000E+00 0.  1.
         22   -1    0    0    0    0 -0.00000000000E+00 -0.00000000000E+00 -0.36398787936E+03  0.36398787936E+03  0.00000000000E+00 0. -1.
        -24    2    1    2    0    0 -0.19287006567E+01 -0.56271450646E+02 -0.22084302030E+03  0.24140668868E+03  0.79594934997E+02 0.  0.
         25    2    1    2    0    0  0.57382526034E+02  0.12318873896E+03 -0.35436738925E+02  0.18807306228E+03  0.12508994600E+03 0.  0.
         24    2    1    2    0    0 -0.55453825378E+02 -0.66917288310E+02  0.14929105658E+03  0.19150730511E+03  0.82669088004E+02 0.  0.
        -13    1    5    5    0    0 -0.75303693232E+02 -0.65537811810E+02  0.11997605375E+03  0.15607723878E+03  0.00000000000E+00 0.  1.
         14    1    5    5    0    0  0.19849867855E+02 -0.13794765000E+01  0.29315002829E+02  0.35430066329E+02  0.00000000000E+00 0. -1.
         11    1    3    3    0    0 -0.40363253999E+02 -0.35510087486E+02 -0.11788089193E+03  0.12956104071E+03  0.00000000000E+00 0. -1.
        -12    1    3    3    0    0  0.38434553342E+02 -0.20761363160E+02 -0.10296212837E+03  0.11184564797E+03  0.00000000000E+00 0.  1.
          5    1    4    4  501    0  0.32690308482E+02  0.14177010839E+03 -0.49673068810E+02  0.15379306248E+03  0.41800000000E+01 0. -1.
         -5    1    4    4    0  501  0.24692217552E+02 -0.18581369436E+02  0.14236329885E+02  0.34279999801E+02  0.41800000000E+01 0. -1.
</event>
<event>
11    1  0.6455215E-009  0.1979283E+03  0.7561462E-02  0.1055998E+00
         22   -1    0    0    0    0  0.00000000000E+00  0.00000000000E+00  0.69910754842E+03  0.69910754842E+03  0.00000000000E+00 0. -1.
         22   -1    0    0    0    0 -0.00000000000E+00 -0.00000000000E+00 -0.23796203281E+04  0.23796203281E+04  0.00000000000E+00 0.  1.
         24    2    1    2    0    0  0.14925486936E+03  0.24140764315E+02 -0.21057395880E+04  0.21124553855E+04  0.73951002004E+02 0.  0.
         25    2    1    2    0    0 -0.18621792401E+03 -0.99475142947E+00 -0.21997722419E+03  0.31419049312E+03  0.12509029560E+03 0.  0.
        -24    2    1    2    0    0  0.36963054648E+02 -0.23146012886E+02  0.64520403252E+03  0.65208199790E+03  0.83789516589E+02 0.  0.
        -11    1    3    3    0    0  0.11744698721E+03  0.31724470919E+02 -0.12057180888E+04  0.12118400664E+04  0.00000000000E+00 0.  1.
         12    1    3    3    0    0  0.31807882157E+02 -0.75837066035E+01 -0.90002149919E+03  0.90061531909E+03  0.00000000000E+00 0. -1.
         11    1    5    5    0    0 -0.88487583505E+01 -0.63590998473E+01  0.47230472301E+03  0.47243040762E+03  0.00000000000E+00 0. -1.
        -12    1    5    5    0    0  0.45811812998E+02 -0.16786913038E+02  0.17289930951E+03  0.17965159028E+03  0.00000000000E+00 0.  1.
          5    1    4    4  501    0 -0.28628827729E+02  0.50669237891E+02 -0.53338699408E+02  0.79053593847E+02  0.41800000000E+01 0. -1.
         -5    1    4    4    0  501 -0.15758909628E+03 -0.51663989320E+02 -0.16663852478E+03  0.23513689928E+03  0.41800000000E+01 0. -1.
</event>
<event>
11    1  0.6455215E-009  0.2637078E+03  0.7561462E-02  0.1016840E+00
         22   -1    0    0    0    0  0.00000000000E+00  0.00000000000E+00  0.13113191469E+04  0.13113191469E+04  0.00000000000E+00 0. -1.
         22   -1    0    0    0    0 -0.00000000000E+00 -0.00000000000E+00 -0.28736414605E+03  0.28736414605E+03  0.00000000000E+00 0. -1.
         24    2    1    2    0    0 -0.30629362735E+02 -0.31269924501E+02 -0.12995905237E+03  0.15747101779E+03  0.77406718764E+02 0.  0.
         25    2    1    2    0    0 -0.19971738425E+03 -0.17435631254E+02 -0.23700302654E+02  0.23749836274E+03  0.12511088341E+03 0.  0.
        -24    2    1    2    0    0  0.23034674699E+03  0.48705555755E+02  0.11776143559E+04  0.12037139124E+04  0.81974122753E+02 0.  0.
        -13    1    3    3    0    0 -0.26422667622E+02 -0.50767957888E+02 -0.53119561939E+02  0.78084766587E+02  0.00000000000E+00 0.  1.
         14    1    3    3    0    0 -0.42066951133E+01  0.19498033386E+02 -0.76839490434E+02  0.79386251202E+02  0.00000000000E+00 0. -1.
         11    1    5    5    0    0  0.20151341416E+03  0.35374300226E+02  0.11137445356E+04  0.11323806284E+04  0.00000000000E+00 0. -1.
        -12    1    5    5    0    0  0.28833332823E+02  0.13331255530E+02  0.63869820314E+02  0.71333283974E+02  0.00000000000E+00 0.  1.
          5    1    4    4  501    0 -0.50725871884E+02 -0.24725480760E+02  0.45877285869E+02  0.72846834083E+02  0.41800000000E+01 0. -1.
         -5    1    4    4    0  501 -0.14899151237E+03  0.72898495060E+01 -0.69577588523E+02  0.16465152865E+03  0.41800000000E+01 0. -1.
</event>
<event>
11    1  0.6455215E-009  0.2195258E+03  0.7561462E-02  0.1041515E+00
         22   -1    0    0    0    0  0.00000000000E+00  0.00000000000E+00  0.32406835062E+03  0.32406835062E+03  0.00000000000E+00 0. -1.
         22   -1    0    0    0    0 -0.00000000000E+00 -0.00000000000E+00 -0.10664916767E+04  0.10664916767E+04  0.00000000000E+00 0. -1.
         24    2    1    2    0    0 -0.17670680913E+03 -0.26830633800E+02 -0.95439557222E+03  0.97564635459E+03  0.95235086216E+02 0.  0.
         25    2    1    2    0    0  0.20184013894E+03  0.69072830423E+02  0.10850016531E+03  0.27005507256E+03  0.12508780416E+03 0.  0.
        -24    2    1    2    0    0 -0.25133329815E+02 -0.42242196623E+02  0.10347208082E+03  0.14485860018E+03  0.88664847004E+02 0.  0.
        -11    1    3    3    0    0 -0.69343652385E+02 -0.51697488727E+02 -0.53826434496E+03  0.54516940259E+03  0.00000000000E+00 0.  1.
         12    1    3    3    0    0 -0.10736315674E+03  0.24866854926E+02 -0.41613122726E+03  0.43047695200E+03  0.00000000000E+00 0. -1.
         11    1    5    5    0    0 -0.41737646904E+02 -0.24005762421E+02  0.11317794855E+02  0.49461098642E+02  0.00000000000E+00 0. -1.
        -12    1    5    5    0    0  0.16604317088E+02 -0.18236434202E+02  0.92154285964E+02  0.95397501539E+02  0.00000000000E+00 0.  1.
          5    1    4    4  501    0  0.52414969860E+02  0.56864376783E+02 -0.11080406148E+02  0.78237677706E+02  0.41800000000E+01 0.  1.
         -5    1    4    4    0  501  0.14942516908E+03  0.12208453640E+02  0.11958057146E+03  0.19181739485E+03  0.41800000000E+01 0.  1.
</event>
<event>
11    1  0.6455215E-009  0.1465358E+03  0.7561462E-02  0.1100472E+00
         22   -1    0    0    0    0  0.00000000000E+00  0.00000000000E+00  0.13200625010E+03  0.13200625010E+03  0.00000000000E+00 0. -1.
         22   -1    0    0    0    0 -0.00000000000E+00 -0.00000000000E+00 -0.82518460450E+03  0.82518460450E+03  0.00000000000E+00 0. -1.
         24    2    1    2    0    0 -0.20132420478E+02 -0.38673389173E+02 -0.58911443907E+03  0.59604989801E+03  0.79490334102E+02 0.  0.
         25    2    1    2    0    0  0.87471196007E+02  0.63832079227E+02 -0.16744334116E+03  0.23539270938E+03  0.12508681249E+03 0.  0.
        -24    2    1    2    0    0 -0.67338775530E+02 -0.25158690054E+02  0.63379425826E+02  0.12574824721E+03  0.81413756105E+02 0.  0.
        -11    1    3    3    0    0 -0.36947429181E+02  0.10596175750E+02 -0.23257878145E+03  0.23573349581E+03  0.00000000000E+00 0.  1.
         12    1    3    3    0    0  0.16815008703E+02 -0.49269564923E+02 -0.35653565762E+03  0.36031640220E+03  0.00000000000E+00 0. -1.
         13    1    5    5    0    0 -0.23344421983E+02 -0.41756810967E+02  0.62514721210E+02  0.78719017193E+02  0.00000000000E+00 0. -1.
        -14    1    5    5    0    0 -0.43994353547E+02  0.16598120914E+02  0.86470461636E+00  0.47029230016E+02  0.00000000000E+00 0.  1.
          5    1    4    4  501    0  0.66417101905E+02 -0.24564985129E+02 -0.97851626888E+02  0.12085976669E+03  0.41800000000E+01 0.  1.
         -5    1    4    4    0  501  0.21054094102E+02  0.88397064356E+02 -0.69591714272E+02  0.11453294269E+03  0.41800000000E+01 0.  1.
</event>
<event>
11    1  0.6455215E-009  0.2854499E+03  0.7561462E-02  0.1006544E+00
         22   -1    0    0    0    0  0.00000000000E+00  0.00000000000E+00  0.23717626074E+04  0.23717626074E+04  0.00000000000E+00 0. -1.
         22   -1    0    0    0    0 -0.00000000000E+00 -0.00000000000E+00 -0.36755802534E+03  0.36755802534E+03  0.00000000000E+00 0. -1.
        -24    2    1    2    0    0  0.15890636113E+03 -0.21729181685E+03 -0.18824420514E+03  0.33933542238E+03  0.85121576787E+02 0.  0.
         25    2    1    2    0    0 -0.65759831148E+02  0.22835672331E+03  0.74806308502E+02  0.27877640709E+03  0.12509657423E+03 0.  0.
         24    2    1    2    0    0 -0.93146529985E+02 -0.11064906464E+02  0.21176424787E+04  0.21212088033E+04  0.79488434889E+02 0.  0.
        -13    1    5    5    0    0 -0.47090936371E+02  0.30219405675E+02  0.70683184395E+03  0.70904303423E+03  0.00000000000E+00 0.  1.
         14    1    5    5    0    0 -0.46055593614E+02 -0.41284312138E+02  0.14108106348E+04  0.14121657691E+04  0.00000000000E+00 0. -1.
         13    1    3    3    0    0  0.62547423024E+02 -0.13156470829E+03 -0.13878625504E+03  0.20120406851E+03  0.00000000000E+00 0. -1.
        -14    1    3    3    0    0  0.96358938109E+02 -0.85727108561E+02 -0.49457950099E+02  0.13813135388E+03  0.00000000000E+00 0.  1.
          5    1    4    4  501    0 -0.51374601602E+02  0.23714406088E+03  0.48854959543E+02  0.24754986320E+03  0.41800000000E+01 0. -1.
         -5    1    4    4    0  501 -0.14385229546E+02 -0.87873375633E+01  0.25951348959E+02  0.31226543890E+02  0.41800000000E+01 0. -1.
</event>
<event>
11    1  0.6455215E-009  0.1753946E+03  0.7561462E-02  0.1073430E+00
         22   -1    0    0    0    0  0.00000000000E+00  0.00000000000E+00  0.48726997522E+03  0.48726997522E+03  0.00000000000E+00 0. -1.
         22   -1    0    0    0    0 -0.00000000000E+00 -0.00000000000E+00 -0.31627081136E+03  0.31627081136E+03  0.00000000000E+00 0.  1.
         24    2    1    2    0    0  0.13069403529E+02 -0.55468705684E+02 -0.24165141253E+03  0.26019818140E+03  0.77846655732E+02 0.  0.
         25    2    1    2    0    0 -0.12609506676E+03  0.79509706517E+02  0.15127166762E+03  0.24647389750E+03  0.12507799741E+03 0.  0.
        -24    2    1    2    0    0  0.11302566323E+03 -0.24041000833E+02  0.26137890877E+03  0.29686870768E+03  0.80369928326E+02 0.  0.
        -13    1    3    3    0    0 -0.27489281338E+02 -0.47278786047E+02 -0.12556697781E+03  0.13695988506E+03  0.00000000000E+00 0.  1.
         14    1    3    3    0    0  0.40558684868E+02 -0.81899196371E+01 -0.11608443472E+03  0.12323829634E+03  0.00000000000E+00 0. -1.
         13    1    5    5    0    0  0.11005423390E+03 -0.24982526178E+02  0.26731669719E+03  0.29016250208E+03  0.00000000000E+00 0. -1.
        -14    1    5    5    0    0  0.29714293238E+01  0.94152534564E+00 -0.59377884219E+01  0.67062055998E+01  0.00000000000E+00 0.  1.
          5    1    4    4  501    0 -0.10765261945E+03  0.22987470558E+02  0.34608264902E+02  0.11546737494E+03  0.41800000000E+01 0. -1.
         -5    1    4    4    0  501 -0.18442447308E+02  0.56522235959E+02  0.11666340271E+03  0.13100652256E+03  0.41800000000E+01 0. -1.
</event>
<event>
11    1  0.6455215E-009  0.1439226E+03  0.7561462E-02  0.1103256E+00
         22   -1    0    0    0    0  0.00000000000E+00  0.00000000000E+00  0.19042842590E+03  0.19042842590E+03  0.00000000000E+00 0.  1.
         22   -1    0    0    0    0 -0.00000000000E+00 -0.00000000000E+00 -0.26865140718E+04  0.26865140718E+04  0.00000000000E+00 0.  1.
        -24    2    1    2    0    0 -0.67608472806E+02 -0.15864819949E+02 -0.22761880561E+04  0.22786609393E+04  0.80255913159E+02 0.  0.
         25    2    1    2    0    0  0.63890977104E+02  0.86349743392E+02 -0.37400257462E+03  0.40873447978E+03  0.12509042330E+03 0.  0.
         24    2    1    2    0    0  0.37174957027E+01 -0.70484923442E+02  0.15410498480E+03  0.18954707860E+03  0.84839875419E+02 0.  0.
        -13    1    5    5    0    0 -0.34279472966E+02 -0.38468807971E+02  0.11600659311E+03  0.12693486952E+03  0.00000000000E+00 0.  1.
         14    1    5    5    0    0  0.37996968668E+02 -0.32016115472E+02  0.38098391683E+02  0.62612209087E+02  0.00000000000E+00 0. -1.
         13    1    3    3    0    0 -0.42115572693E+02 -0.10939467119E+02 -0.41188198951E+03  0.41417407776E+03  0.00000000000E+00 0. -1.
        -14    1    3    3    0    0 -0.25492900114E+02 -0.49253528304E+01 -0.18643060666E+04  0.18644868615E+04  0.00000000000E+00 0.  1.
          5    1    4    4  501    0 -0.32012146432E+02  0.33714960165E+02 -0.18020249394E+03  0.18615017400E+03  0.41800000000E+01 0. -1.
         -5    1    4    4    0  501  0.95903123536E+02  0.52634783226E+02 -0.19380008068E+03  0.22258430579E+03  0.41800000000E+01 0. -1.
</event>
<event>
11    1  0.6455215E-009  0.1755945E+03  0.7561462E-02  0.1073263E+00
         22   -1    0    0    0    0  0.00000000000E+00  0.00000000000E+00  0.15420472449E+04  0.15420472449E+04  0.00000000000E+00 0. -1.
         22   -1    0    0    0    0 -0.00000000000E+00 -0.00000000000E+00 -0.44661735325E+03  0.44661735325E+03  0.00000000000E+00 0. -1.
         24    2    1    2    0    0  0.56627974628E+02 -0.10965779361E+03 -0.40268661288E+03  0.43523892189E+03  0.10974903974E+03 0.  0.
         25    2    1    2    0    0 -0.41559490554E+02  0.11334437709E+03  0.26136505534E+03  0.31390303243E+03  0.12509709246E+03 0.  0.
        -24    2    1    2    0    0 -0.15068484074E+02 -0.36865834799E+01  0.12367514492E+04  0.12395226438E+04  0.81373136663E+02 0.  0.
        -11    1    3    3    0    0  0.17508258874E+02 -0.14567390186E+02 -0.35257703666E+01  0.23047321803E+02  0.00000000000E+00 0.  1.
         12    1    3    3    0    0  0.39119715754E+02 -0.95090403424E+02 -0.39916084252E+03  0.41219160009E+03  0.00000000000E+00 0. -1.
         11    1    5    5    0    0 -0.17912462959E+02 -0.39591246052E+02  0.49745696483E+03  0.49935133419E+03  0.00000000000E+00 0. -1.
        -12    1    5    5    0    0  0.28439788853E+01  0.35904662572E+02  0.73929448437E+03  0.74017130965E+03  0.00000000000E+00 0.  1.
          5    1    4    4  501    0 -0.81663953182E+01  0.10548267575E+03  0.25835823946E+03  0.27921270958E+03  0.41800000000E+01 0.  1.
         -5    1    4    4    0  501 -0.33393095236E+02  0.78617013425E+01  0.30068158824E+01  0.34690322847E+02  0.41800000000E+01 0.  1.
</event>
<event>
11    1  0.6455215E-009  0.1393810E+03  0.7561462E-02  0.1108252E+00
         22   -1    0    0    0    0  0.00000000000E+00  0.00000000000E+00  0.36920594277E+04  0.36920594277E+04  0.00000000000E+00 0. -1.
         22   -1    0    0    0    0 -0.00000000000E+00 -0.00000000000E+00 -0.49187516823E+02  0.49187516823E+02  0.00000000000E+00 0. -1.
         24    2    1    2    0    0 -0.34054769385E+01  0.10929115325E+02  0.85171348755E+02  0.11861198585E+03  0.81753297815E+02 0.  0.
         25    2    1    2    0    0  0.52426932043E+02 -0.47662747833E+02  0.13117906484E+03  0.19461918515E+03  0.12509340286E+03 0.  0.
        -24    2    1    2    0    0 -0.49021455104E+02  0.36733632507E+02  0.34265214972E+04  0.34280157735E+04  0.80561215210E+02 0.  0.
        -13    1    3    3    0    0  0.13749188027E+02  0.26504919480E+02  0.90103494927E+02  0.94922024452E+02  0.00000000000E+00 0.  1.
         14    1    3    3    0    0 -0.17154664966E+02 -0.15575804155E+02 -0.49321461723E+01  0.23689961398E+02  0.00000000000E+00 0. -1.
         11    1    5    5    0    0  0.54617772099E+01 -0.20959199452E+02  0.82550290645E+03  0.82578699893E+03  0.00000000000E+00 0. -1.
        -12    1    5    5    0    0 -0.54483232314E+02  0.57692831959E+02  0.26010185908E+04  0.26022287746E+04  0.00000000000E+00 0.  1.
          5    1    4    4  501    0  0.11689185388E+02 -0.84885297298E+02  0.61092764335E+02  0.10531832227E+03  0.41800000000E+01 0. -1.
         -5    1    4    4    0  501  0.40737746655E+02  0.37222549466E+02  0.70086300509E+02  0.89300862875E+02  0.41800000000E+01 0. -1.
</event>
<event>
11    1  0.6455215E-009  0.1392432E+03  0.7561462E-02  0.1108406E+00
         22   -1    0    0    0    0  0.00000000000E+00  0.00000000000E+00  0.17754985980E+03  0.17754985980E+03  0.00000000000E+00 0. -1.
         22   -1    0    0    0    0 -0.00000000000E+00 -0.00000000000E+00 -0.85775611772E+03  0.85775611772E+03  0.00000000000E+00 0.  1.
         24    2    1    2    0    0  0.28777812965E+02  0.13218548996E+02 -0.75023110047E+03  0.75500479819E+03  0.78629820166E+02 0.  0.
         25    2    1    2    0    0 -0.72855935487E+02  0.24478064334E+02 -0.17278949907E+02  0.14782867343E+03  0.12509033380E+03 0.  0.
        -24    2    1    2    0    0  0.44078122521E+02 -0.37696613330E+02  0.87303792450E+02  0.13247250590E+03  0.81012944041E+02 0.  0.
        -11    1    3    3    0    0  0.38149794621E+02  0.13881240988E+02 -0.74000557952E+03  0.74111831269E+03  0.00000000000E+00 0.  1.
         12    1    3    3    0    0 -0.93719816554E+01 -0.66269199208E+00 -0.10225520944E+02  0.13886485495E+02  0.00000000000E+00 0. -1.
         13    1    5    5    0    0  0.25008815059E+02 -0.30259685302E+02  0.10065187206E+03  0.10803651575E+03  0.00000000000E+00 0. -1.
        -14    1    5    5    0    0  0.19069307462E+02 -0.74369280283E+01 -0.13348079611E+02  0.24435990155E+02  0.00000000000E+00 0.  1.
          5    1    4    4  501    0 -0.95902978788E+02  0.51649898108E+02 -0.25173319218E+01  0.10903624478E+03  0.41800000000E+01 0. -1.
         -5    1    4    4    0  501  0.23047043302E+02 -0.27171833774E+02 -0.14761617985E+02  0.38792428657E+02  0.41800000000E+01 0. -1.
</event>
<event>
11    1  0.6455215E-009  0.1341735E+03  0.7561462E-02  0.1114245E+00
         22   -1    0    0    0    0  0.00000000000E+00  0.00000000000E+00  0.35532431030E+03  0.35532431030E+03  0.00000000000E+00 0.  1.
         22   -1    0    0    0    0 -0.00000000000E+00 -0.00000000000E+00 -0.84230242818E+03  0.84230242818E+03  0.00000000000E+00 0. -1.
         24    2    1    2    0    0 -0.12295241617E+02  0.37958291538E+01 -0.47886022616E+03  0.48550664442E+03  0.79019012198E+02 0.  0.
         25    2    1    2    0    0 -0.20778900467E+02  0.32037118233E+02 -0.34046296001E+03  0.36471964535E+03  0.12508897999E+03 0.  0.
        -24    2    1    2    0    0  0.33074142085E+02 -0.35832947386E+02  0.33234506829E+03  0.34740044872E+03  0.88633675077E+02 0.  0.
        -13    1    3    3    0    0  0.32601755857E+02 -0.80699839924E+01 -0.19385938199E+03  0.19674719594E+03  0.00000000000E+00 0.  1.
         14    1    3    3    0    0 -0.44896997474E+02  0.11865813146E+02 -0.28500084418E+03  0.28875944848E+03  0.00000000000E+00 0. -1.
         11    1    5    5    0    0 -0.87579985352E+01 -0.52221527714E+02  0.13516497130E+03  0.14516666271E+03  0.00000000000E+00 0. -1.
        -12    1    5    5    0    0  0.41832140620E+02  0.16388580327E+02  0.19718009699E+03  0.20223378601E+03  0.00000000000E+00 0.  1.
          5    1    4    4  501    0 -0.23939954200E+02 -0.39111298126E+02 -0.21957000671E+03  0.22434632890E+03  0.41800000000E+01 0. -1.
         -5    1    4    4    0  501  0.31610537331E+01  0.71148416358E+02 -0.12089295330E+03  0.14037331644E+03  0.41800000000E+01 0. -1.
</event>
<event>
11    1  0.6455215E-009  0.1668329E+03  0.7561462E-02  0.1080821E+00
         22   -1    0    0    0    0  0.00000000000E+00  0.00000000000E+00  0.10118977539E+04  0.10118977539E+04  0.00000000000E+00 0. -1.
         22   -1    0    0    0    0 -0.00000000000E+00 -0.00000000000E+00 -0.32223594078E+03  0.32223594078E+03  0.00000000000E+00 0. -1.
        -24    2    1    2    0    0  0.10068675389E+03  0.50655118660E+02 -0.27776244328E+03  0.31033040741E+03  0.80307057044E+02 0.  0.
         25    2    1    2    0    0 -0.83372544742E+02 -0.88539382412E+01  0.19656705535E+03  0.24761935524E+03  0.12508942562E+03 0.  0.
         24    2    1    2    0    0 -0.17314209148E+02 -0.41801180419E+02  0.77085720102E+03  0.77618393200E+03  0.78699119468E+02 0.  0.
        -11    1    5    5    0    0 -0.28898973626E+02 -0.20328726363E+02  0.12586065161E+03  0.13072609310E+03  0.00000000000E+00 0.  1.
         12    1    5    5    0    0  0.11584764478E+02 -0.21472454057E+02  0.64499654940E+03  0.64545783890E+03  0.00000000000E+00 0. -1.
         13    1    3    3    0    0  0.38236212855E+02 -0.13098991977E+02 -0.14372795071E+03  0.14930276414E+03  0.00000000000E+00 0. -1.
        -14    1    3    3    0    0  0.62450541035E+02  0.63754110637E+02 -0.13403449256E+03  0.16102764327E+03  0.00000000000E+00 0.  1.
          5    1    4    4  501    0 -0.77968301906E+02 -0.43666187012E+02  0.19204017258E+03  0.21185535697E+03  0.41800000000E+01 0.  1.
         -5    1    4    4    0  501 -0.54042428365E+01  0.34812248771E+02  0.45268827691E+01  0.35763998276E+02  0.41800000000E+01 0.  1.
</event>
<event>
11    1  0.6455215E-009  0.1680949E+03  0.7561462E-02  0.1079702E+00
         22   -1    0    0    0    0  0.00000000000E+00  0.00000000000E+00  0.28360125093E+03  0.28360125093E+03  0.00000000000E+00 0. -1.
         22   -1    0    0    0    0 -0.00000000000E+00 -0.00000000000E+00 -0.44431240906E+03  0.44431240906E+03  0.00000000000E+00 0. -1.
        -24    2    1    2    0    0  0.82959987855E+02  0.10700631551E+03 -0.30856495419E+03  0.35167079072E+03  0.10063450176E+03 0.  0.
         25    2    1    2    0    0 -0.11552629161E+02 -0.63321057344E+02 -0.47940165515E+02  0.14862449917E+03  0.12509181724E+03 0.  0.
         24    2    1    2    0    0 -0.71407358693E+02 -0.43685258166E+02  0.19579396158E+03  0.22761837010E+03  0.80420360343E+02 0.  0.
        -11    1    5    5    0    0  0.15282350895E+02  0.16080948439E+01  0.12295985539E+02  0.19680637142E+02  0.00000000000E+00 0.  1.
         12    1    5    5    0    0 -0.86689709589E+02 -0.45293353010E+02  0.18349797604E+03  0.20793773296E+03  0.00000000000E+00 0. -1.
         13    1    3    3    0    0  0.80845690593E+02  0.23907555261E+02 -0.17687821597E+03  0.19594259407E+03  0.00000000000E+00 0. -1.
        -14    1    3    3    0    0  0.21142972618E+01  0.83098760250E+02 -0.13168673821E+03  0.15572819664E+03  0.00000000000E+00 0.  1.
          5    1    4    4  501    0  0.26647727219E+02  0.29482522171E+02 -0.94889694395E+01  0.41071077665E+02  0.41800000000E+01 0.  1.
         -5    1    4    4    0  501 -0.38200356381E+02 -0.92803579516E+02 -0.38451196075E+02  0.10755342151E+03  0.41800000000E+01 0.  1.
</event>
<event>
11    1  0.6455215E-009  0.1395907E+03  0.7561462E-02  0.1108016E+00
         22   -1    0    0    0    0  0.00000000000E+00  0.00000000000E+00  0.77903907998E+03  0.77903907998E+03  0.00000000000E+00 0. -1.
         22   -1    0    0    0    0 -0.00000000000E+00 -0.00000000000E+00 -0.36532583102E+03  0.36532583102E+03  0.00000000000E+00 0.  1.
         24    2    1    2    0    0  0.16674098848E+02  0.59634777914E+02 -0.28811654466E+03  0.30402363162E+03  0.74732141450E+02 0.  0.
         25    2    1    2    0    0 -0.15550470001E+02 -0.60292433188E+02  0.59291243678E+01  0.13985465417E+03  0.12508866920E+03 0.  0.
        -24    2    1    2    0    0 -0.11236288469E+01  0.65765527430E+00  0.69590066925E+03  0.70048662520E+03  0.80012971242E+02 0.  0.
        -13    1    3    3    0    0 -0.13078564170E+02  0.65411695399E+02 -0.19411984432E+03  0.20526142525E+03  0.00000000000E+00 0.  1.
         14    1    3    3    0    0  0.29752663017E+02 -0.57769174855E+01 -0.93996700346E+02  0.98762206375E+02  0.00000000000E+00 0. -1.
         13    1    5    5    0    0  0.26615378316E+02  0.10285385542E+02  0.58711704890E+03  0.58781000045E+03  0.00000000000E+00 0. -1.
        -14    1    5    5    0    0 -0.27739007163E+02 -0.96277302677E+01  0.10878362035E+03  0.11267662475E+03  0.00000000000E+00 0.  1.
          5    1    4    4  501    0 -0.49155786687E+02 -0.21178316078E+02 -0.42894027331E+02  0.68718137470E+02  0.41800000000E+01 0.  1.
         -5    1    4    4    0  501  0.33605316686E+02 -0.39114117110E+02  0.48823151699E+02  0.71136516704E+02  0.41800000000E+01 0.  1.
</event>
<event>
11    1  0.6455215E-009  0.1511742E+03  0.7561462E-02  0.1095685E+00
         22   -1    0    0    0    0  0.00000000000E+00  0.00000000000E+00  0.12469412808E+04  0.12469412808E+04  0.00000000000E+00 0.  1.
         22   -1    0    0    0    0 -0.00000000000E+00 -0.00000000000E+00 -0.17028808469E+03  0.17028808469E+03  0.00000000000E+00 0. -1.
        -24    2    1    2    0    0 -0.35852653645E+02 -0.90936188325E+01 -0.12575208222E+03  0.15441762614E+03  0.81627877606E+02 0.  0.
         25    2    1    2    0    0  0.11432835741E+03 -0.58137205922E+01  0.25385651300E+03  0.30527662492E+03  0.12508363550E+03 0.  0.
         24    2    1    2    0    0 -0.78475703768E+02  0.14907339425E+02  0.94854876532E+03  0.95753511442E+03  0.10367290052E+03 0.  0.
        -13    1    5    5    0    0 -0.16050862656E+01 -0.24691053872E+02  0.50675148808E+03  0.50735519620E+03  0.00000000000E+00 0.  1.
         14    1    5    5    0    0 -0.76870617503E+02  0.39598393296E+02  0.44179727724E+03  0.45017991822E+03  0.00000000000E+00 0. -1.
         13    1    3    3    0    0 -0.56003303129E+02 -0.20145962922E+02 -0.58937306911E+02  0.83760586968E+02  0.00000000000E+00 0. -1.
        -14    1    3    3    0    0  0.20150649484E+02  0.11052344090E+02 -0.66814775312E+02  0.70657039171E+02  0.00000000000E+00 0.  1.
          5    1    4    4  501    0  0.34747816079E+02  0.45168627205E+02  0.35405549991E+02  0.67220837364E+02  0.41800000000E+01 0. -1.
         -5    1    4    4    0  501  0.79580541334E+02 -0.50982347797E+02  0.21845096301E+03  0.23805578755E+03  0.41800000000E+01 0. -1.
</event>
<event>
11    1  0.6455215E-009  0.2088912E+03  0.7561462E-02  0.1048408E+00
         22   -1    0    0    0    0  0.00000000000E+00  0.00000000000E+00  0.97501860396E+03  0.97501860396E+03  0.00000000000E+00 0.  1.
         22   -1    0    0    0    0 -0.00000000000E+00 -0.00000000000E+00 -0.71905495607E+03  0.71905495607E+03  0.00000000000E+00 0. -1.
        -24    2    1    2    0    0  0.11809600646E+03  0.13064835444E+03 -0.66692914857E+03  0.69462390594E+03  0.81806003649E+02 0.  0.
         25    2    1    2    0    0 -0.52525684154E+02 -0.44075254865E+02  0.12346035277E+03  0.18865685408E+03  0.12508946517E+03 0.  0.
         24    2    1    2    0    0 -0.65570322302E+02 -0.86573099572E+02  0.79943244368E+03  0.81079280001E+03  0.80612429509E+02 0.  0.
        -13    1    5    5    0    0 -0.60454216227E+02 -0.22371189477E+02  0.52295588536E+03  0.52691369351E+03  0.00000000000E+00 0.  1.
         14    1    5    5    0    0 -0.51161060756E+01 -0.64201910095E+02  0.27647655833E+03  0.28387910650E+03  0.00000000000E+00 0. -1.
         13    1    3    3    0    0  0.13040127687E+03  0.12469440693E+03 -0.62511372556E+03  0.65063073861E+03  0.00000000000E+00 0. -1.
        -14    1    3    3    0    0 -0.12305270417E+02  0.59539475024E+01 -0.41815423009E+02  0.43993167337E+02  0.00000000000E+00 0.  1.
          5    1    4    4  501    0 -0.33889665211E+02  0.30676226845E+02  0.35099869822E+01  0.46036210858E+02  0.41800000000E+01 0.  1.
         -5    1    4    4    0  501 -0.18636018943E+02 -0.74751481710E+02  0.11995036579E+03  0.14262064322E+03  0.41800000000E+01 0.  1.
</event>
<event>
11    1  0.6455215E-009  0.1393394E+03  0.7561462E-02  0.1108298E+00
         22   -1    0    0    0    0  0.00000000000E+00  0.00000000000E+00  0.10587873408E+04  0.10587873408E+04  0.00000000000E+00 0.  1.
         22   -1    0    0    0    0 -0.00000000000E+00 -0.00000000000E+00 -0.57736508611E+03  0.57736508611E+03  0.00000000000E+00 0.  1.
         24    2    1    2    0    0  0.30166107086E+02  0.53905631351E+02 -0.55405960661E+03  0.56315503395E+03  0.79660112269E+02 0.  0.
         25    2    1    2    0    0 -0.52884205056E+01 -0.41232584659E+02  0.24618511197E+03  0.27925512669E+03  0.12509285751E+03 0.  0.
        -24    2    1    2    0    0 -0.24877686581E+02 -0.12673046691E+02  0.78929674937E+03  0.79374226631E+03  0.79107024745E+02 0.  0.
        -11    1    3    3    0    0  0.58736877524E+01  0.70656925120E+02 -0.36760984293E+03  0.37438469239E+03  0.00000000000E+00 0.  1.
         12    1    3    3    0    0  0.24292419334E+02 -0.16751293769E+02 -0.18644976367E+03  0.18877034156E+03  0.00000000000E+00 0. -1.
         11    1    5    5    0    0 -0.52925548402E+02 -0.31961330862E+01  0.43730262944E+03  0.44050529924E+03  0.00000000000E+00 0. -1.
        -12    1    5    5    0    0  0.28047861822E+02 -0.94769136052E+01  0.35199411992E+03  0.35323696707E+03  0.00000000000E+00 0.  1.
          5    1    4    4  501    0 -0.12384374624E+02 -0.85637880447E+02  0.15911955877E+03  0.18117319251E+03  0.41800000000E+01 0.  1.
         -5    1    4    4    0  501  0.70959541187E+01  0.44405295787E+02  0.87065553200E+02  0.98081934182E+02  0.41800000000E+01 0.  1.
</event>
<event>
11    1  0.6455215E-009  0.1855500E+03  0.7561462E-02  0.1065240E+00
         22   -1    0    0    0    0  0.00000000000E+00  0.00000000000E+00  0.36861199678E+04  0.36861199678E+04  0.00000000000E+00 0.  1.
         22   -1    0    0    0    0 -0.00000000000E+00 -0.00000000000E+00 -0.82393143279E+03  0.82393143279E+03  0.00000000000E+00 0. -1.
         24    2    1    2    0    0 -0.11062914999E+03 -0.82494810975E+02 -0.78922863484E+03  0.80524958468E+03  0.80627866854E+02 0.  0.
         25    2    1    2    0    0  0.58440921037E+02  0.96104767218E+02  0.24605077452E+03  0.29806162400E+03  0.12509308745E+03 0.  0.
        -24    2    1    2    0    0  0.52188228955E+02 -0.13609956243E+02  0.34053663953E+04  0.34067401919E+04  0.80309442502E+02 0.  0.
        -11    1    3    3    0    0 -0.27923083215E+02 -0.55703867122E+02 -0.48017332571E+03  0.48419938260E+03  0.00000000000E+00 0.  1.
         12    1    3    3    0    0 -0.82706066777E+02 -0.26790943853E+02 -0.30905530913E+03  0.32105020208E+03  0.00000000000E+00 0. -1.
         13    1    5    5    0    0  0.30709347137E+01  0.27091516913E+02  0.56488083553E+03  0.56553845075E+03  0.00000000000E+00 0. -1.
        -14    1    5    5    0    0  0.49117294242E+02 -0.40701473156E+02  0.28404855598E+04  0.28412017412E+04  0.00000000000E+00 0.  1.
          5    1    4    4  501    0  0.69349408014E+02  0.34753941383E+02  0.50193280136E+02  0.92487915991E+02  0.41800000000E+01 0. -1.
         -5    1    4    4    0  501 -0.10908486978E+02  0.61350825835E+02  0.19585749439E+03  0.20557370801E+03  0.41800000000E+01 0. -1.
</event>
<event>
11    1  0.6455215E-009  0.1333396E+03  0.7561462E-02  0.1115232E+00
         22   -1    0    0    0    0  0.00000000000E+00  0.00000000000E+00  0.14300192765E+04  0.14300192765E+04  0.00000000000E+00 0.  1.
         22   -1    0    0    0    0 -0.00000000000E+00 -0.00000000000E+00 -0.18173327171E+03  0.18173327171E+03  0.00000000000E+00 0. -1.
        -24    2    1    2    0    0 -0.79019547750E+01 -0.16796268356E+02 -0.15645134128E+03  0.17687647072E+03  0.80397190165E+02 0.  0.
         25    2    1    2    0    0 -0.72134378591E+01 -0.29427481700E+02  0.30413564190E+03  0.33024840602E+03  0.12509001014E+03 0.  0.
         24    2    1    2    0    0  0.15115392634E+02  0.46223750057E+02  0.11006017042E+04  0.11046276715E+04  0.80703600989E+02 0.  0.
        -13    1    5    5    0    0 -0.75797203725E+01  0.33848608069E+02  0.10048359363E+04  0.10054344530E+04  0.00000000000E+00 0.  1.
         14    1    5    5    0    0  0.22695113007E+02  0.12375141988E+02  0.95765767859E+02  0.99193218453E+02  0.00000000000E+00 0. -1.
         11    1    3    3    0    0 -0.37640143275E+02 -0.15953413743E+02 -0.13255971657E+03  0.13872047525E+03  0.00000000000E+00 0. -1.
        -12    1    3    3    0    0  0.29738188500E+02 -0.84285461377E+00 -0.23891624705E+02  0.38155995469E+02  0.00000000000E+00 0.  1.
          5    1    4    4  501    0 -0.57600941776E+02 -0.46041009446E+02  0.15030064098E+03  0.16746760321E+03  0.41800000000E+01 0. -1.
         -5    1    4    4    0  501  0.50387503917E+02  0.16613527746E+02  0.15383500092E+03  0.16278080281E+03  0.41800000000E+01 0. -1.
</event>
<event>
11    1  0.6455215E-009  0.1685050E+03  0.7561462E-02  0.1079340E+00
         22   -1    0    0    0    0  0.00000000000E+00  0.00000000000E+00  0.23274942088E+03  0.23274942088E+03  0.00000000000E+00 0.  1.
         22   -1    0    0    0    0 -0.00000000000E+00 -0.00000000000E+00 -0.23858599946E+04  0.23858599946E+04  0.00000000000E+00 0.  1.
        -24    2    1    2    0    0  0.10291443166E+03  0.46141443806E+02 -0.22772079357E+04  0.22813487934E+04  0.78459682451E+02 0.  0.
         25    2    1    2    0    0 -0.11479493861E+03 -0.30635174468E+02 -0.16690596387E+02  0.17332664090E+03  0.12508859497E+03 0.  0.
         24    2    1    2    0    0  0.11880506955E+02 -0.15506269338E+02  0.14078795841E+03  0.16393398112E+03  0.81679312552E+02 0.  0.
        -11    1    5    5    0    0  0.32245034115E+01 -0.16754521162E+02  0.15015363804E+03  0.15111990742E+03  0.00000000000E+00 0.  1.
         12    1    5    5    0    0  0.86560035435E+01  0.12482518240E+01 -0.93656796297E+01  0.12814073704E+02  0.00000000000E+00 0. -1.
         11    1    3    3    0    0  0.32155303775E+02 -0.15280792328E+02 -0.33600775232E+03  0.33788855528E+03  0.00000000000E+00 0. -1.
        -12    1    3    3    0    0  0.70759127883E+02  0.61422236134E+02 -0.19412001834E+04  0.19434602381E+04  0.00000000000E+00 0.  1.
          5    1    4    4  501    0 -0.14165071982E+02  0.29883426595E+02 -0.41506112447E+02  0.53234370662E+02  0.41800000000E+01 0. -1.
         -5    1    4    4    0  501 -0.10062986663E+03 -0.60518601063E+02  0.24815516060E+02  0.12009227023E+03  0.41800000000E+01 0. -1.
</event>
<event>
11    1  0.6455215E-009  0.1904411E+03  0.7561462E-02  0.1061497E+00
         22   -1    0    0    0    0  0.00000000000E+00  0.00000000000E+00  0.67692625345E+03  0.67692625345E+03  0.00000000000E+00 0. -1.
         22   -1    0    0    0    0 -0.00000000000E+00 -0.00000000000E+00 -0.99927261707E+03  0.99927261707E+03  0.00000000000E+00 0. -1.
         24    2    1    2    0    0  0.14332000479E+03 -0.24181197832E+02 -0.93233682977E+03  0.94786738968E+03  0.89862507057E+02 0.  0.
         25    2    1    2    0    0 -0.10944749206E+03  0.37230311061E+02  0.75085619176E+02  0.18614624531E+03  0.12509086640E+03 0.  0.
        -24    2    1    2    0    0 -0.33872512723E+02 -0.13049113229E+02  0.53490484697E+03  0.54218523553E+03  0.80771330536E+02 0.  0.
        -11    1    3    3    0    0  0.58363607901E+02 -0.42640313831E+02 -0.25746056833E+03  0.26741438132E+03  0.00000000000E+00 0.  1.
         12    1    3    3    0    0  0.84956396886E+02  0.18459115999E+02 -0.67487626144E+03  0.68045300836E+03  0.00000000000E+00 0. -1.
         13    1    5    5    0    0 -0.11891767612E+02 -0.34049944212E+02  0.45905929951E+03  0.46047394422E+03  0.00000000000E+00 0. -1.
        -14    1    5    5    0    0 -0.21980745111E+02  0.21000830983E+02  0.75845547458E+02  0.81711291306E+02  0.00000000000E+00 0.  1.
          5    1    4    4  501    0 -0.56792881736E+02  0.29748444900E+01  0.10264607473E+03  0.11742218774E+03  0.41800000000E+01 0.  1.
         -5    1    4    4    0  501 -0.52654610328E+02  0.34255466571E+02 -0.27560455558E+02  0.68724057573E+02  0.41800000000E+01 0.  1.
</event>
<event>
11    1  0.6455215E-009  0.1623318E+03  0.7561462E-02  0.1084904E+00
         22   -1    0    0    0    0  0.00000000000E+00  0.00000000000E+00  0.33003792629E+03  0.33003792629E+03  0.00000000000E+00 0. -1.
         22   -1    0    0    0    0 -0.00000000000E+00 -0.00000000000E+00 -0.69667968938E+03  0.69667968938E+03  0.00000000000E+00 0. -1.
         24    2    1    2    0    0  0.58640917706E+02  0.88993989766E+02 -0.61820158498E+03  0.63242030584E+03  0.80147090542E+02 0.  0.
         25    2    1    2    0    0 -0.48427437847E+02 -0.48797272000E+02  0.20031621976E+02  0.14413672097E+03  0.12509091878E+03 0.  0.
        -24    2    1    2    0    0 -0.10213479859E+02 -0.40196717767E+02  0.23152819991E+03  0.25016058886E+03  0.85175827420E+02 0.  0.
        -11    1    3    3    0    0 -0.18991558330E+01 -0.44751140646E+01 -0.64596000986E+00  0.49041516192E+01  0.00000000000E+00 0.  1.
         12    1    3    3    0    0  0.60540073539E+02  0.93469103831E+02 -0.61755562497E+03  0.62751615422E+03  0.00000000000E+00 0. -1.
         13    1    5    5    0    0  0.32204118594E+01 -0.30208666744E+02  0.23143481401E+03  0.23342023848E+03  0.00000000000E+00 0. -1.
        -14    1    5    5    0    0 -0.13433891718E+02 -0.99880510225E+01  0.93385903434E-01  0.16740350380E+02  0.00000000000E+00 0.  1.
          5    1    4    4  501    0 -0.44632855092E+02  0.74500832074E+01  0.59736116341E+02  0.75056455345E+02  0.41800000000E+01 0.  1.
         -5    1    4    4    0  501 -0.37945827551E+01 -0.56247355207E+02 -0.39704494365E+02  0.69080265625E+02  0.41800000000E+01 0.  1.
</event>
<event>
11    1  0.6455215E-009  0.1532417E+03  0.7561462E-02  0.1093612E+00
         22   -1    0    0    0    0  0.00000000000E+00  0.00000000000E+00  0.47703223429E+03  0.47703223429E+03  0.00000000000E+00 0. -1.
         22   -1    0    0    0    0 -0.00000000000E+00 -0.00000000000E+00 -0.39247433878E+03  0.39247433878E+03  0.00000000000E+00 0.  1.
        -24    2    1    2    0    0  0.22198579161E+02 -0.49983520691E+02 -0.26918366832E+03  0.28605515991E+03  0.79853478099E+02 0.  0.
         25    2    1    2    0    0 -0.31912642702E+02 -0.41654503944E+02 -0.62575206447E+02  0.14938822705E+03  0.12509065295E+03 0.  0.
         24    2    1    2    0    0  0.97140635411E+01  0.91638024635E+02  0.41631677028E+03  0.43406318611E+03  0.81236111005E+02 0.  0.
        -11    1    5    5    0    0  0.42919956162E+02  0.49555609645E+02  0.17531441392E+03  0.18717111106E+03  0.00000000000E+00 0.  1.
         12    1    5    5    0    0 -0.33205892621E+02  0.42082414989E+02  0.24100235635E+03  0.24689207505E+03  0.00000000000E+00 0. -1.
         13    1    3    3    0    0 -0.55150618159E+01  0.20371151896E+02 -0.54471919871E+02  0.58417375762E+02  0.00000000000E+00 0. -1.
        -14    1    3    3    0    0  0.27713640976E+02 -0.70354672587E+02 -0.21471174845E+03  0.22763778415E+03  0.00000000000E+00 0.  1.
          5    1    4    4  501    0 -0.36060202275E+02 -0.21631954191E+02 -0.98869150411E+02  0.10752144406E+03  0.41800000000E+01 0.  1.
         -5    1    4    4    0  501  0.41475595736E+01 -0.20022549753E+02  0.36293943964E+02  0.41866782985E+02  0.41800000000E+01 0.  1.
</event>
<event>
11    1  0.6455215E-009  0.1944704E+03  0.7561462E-02  0.1058504E+00
         22   -1    0    0    0    0  0.00000000000E+00  0.00000000000E+00  0.64724075259E+03  0.64724075259E+03  0.00000000000E+00 0. -1.
         22   -1    0    0    0    0 -0.00000000000E+00 -0.00000000000E+00 -0.13801402705E+04  0.13801402705E+04  0.00000000000E+00 0. -1.
        -24    2    1    2    0    0 -0.11607382881E+02  0.78526728836E+02 -0.12207473392E+04  0.12259230967E+04  0.79763365627E+02 0.  0.
         25    2    1    2    0    0 -0.35076634720E+02 -0.21394140152E+03 -0.35701370913E+02  0.25283173060E+03  0.12509197627E+03 0.  0.
         24    2    1    2    0    0  0.46684017600E+02  0.13541467268E+03  0.52354919216E+03  0.54862619579E+03  0.79814879706E+02 0.  0.
        -13    1    5    5    0    0  0.30909346737E+02  0.16361563943E+02  0.57046004638E+02  0.66912892148E+02  0.00000000000E+00 0.  1.
         14    1    5    5    0    0  0.15774670863E+02  0.11905310874E+03  0.46650318752E+03  0.48171330364E+03  0.00000000000E+00 0. -1.
         11    1    3    3    0    0 -0.19621735397E+02  0.76776142079E+02 -0.12090042969E+04  0.12115985220E+04  0.00000000000E+00 0. -1.
        -12    1    3    3    0    0  0.80143525161E+01  0.17505867568E+01 -0.11743042272E+02  0.14324574760E+02  0.00000000000E+00 0.  1.
          5    1    4    4  501    0 -0.12563074953E+02 -0.19959577235E+03  0.94003212719E+01  0.20025519128E+03  0.41800000000E+01 0. -1.
         -5    1    4    4    0  501 -0.22513559766E+02 -0.14345629167E+02 -0.45101692185E+02  0.52576539326E+02  0.41800000000E+01 0. -1.
</event>
<event>
11    1  0.6455215E-009  0.2006367E+03  0.7561462E-02  0.1054074E+00
         22   -1    0    0    0    0  0.00000000000E+00  0.00000000000E+00  0.33252656725E+03  0.33252656725E+03  0.00000000000E+00 0. -1.
         22   -1    0    0    0    0 -0.00000000000E+00 -0.00000000000E+00 -0.57884259142E+03  0.57884259142E+03  0.00000000000E+00 0. -1.
        -24    2    1    2    0    0  0.41865000138E+02  0.14742419563E+03 -0.41170826960E+03  0.44686278003E+03  0.81829537596E+02 0.  0.
         25    2    1    2    0    0  0.77066392340E+01 -0.18238452974E+03 -0.49516869675E+02  0.22676874102E+03  0.12509449446E+03 0.  0.
         24    2    1    2    0    0 -0.49571639372E+02  0.34960334107E+02  0.21490911510E+03  0.23773763762E+03  0.81570118271E+02 0.  0.
        -13    1    5    5    0    0  0.19908161165E+02 -0.54929352864E+01  0.34220243985E+02  0.39969142065E+02  0.00000000000E+00 0.  1.
         14    1    5    5    0    0 -0.69479800536E+02  0.40453269393E+02  0.18068887112E+03  0.19776849555E+03  0.00000000000E+00 0. -1.
         13    1    3    3    0    0  0.14671180379E+01  0.79688583550E+02 -0.29804218014E+03  0.30851509513E+03  0.00000000000E+00 0. -1.
        -14    1    3    3    0    0  0.40397882100E+02  0.67735612084E+02 -0.11366608947E+03  0.13834768490E+03  0.00000000000E+00 0.  1.
          5    1    4    4  501    0  0.46455327847E+02 -0.15671450710E+03 -0.70330097547E+01  0.16365961581E+03  0.41800000000E+01 0.  1.
         -5    1    4    4    0  501 -0.38748688613E+02 -0.25670022645E+02 -0.42483859920E+02  0.63109125216E+02  0.41800000000E+01 0.  1.
</event>
<event>
11    1  0.6455215E-009  0.1494506E+03  0.7561462E-02  0.1097442E+00
         22   -1    0    0    0    0  0.00000000000E+00  0.00000000000E+00  0.87393479472E+03  0.87393479472E+03  0.00000000000E+00 0.  1.
         22   -1    0    0    0    0 -0.00000000000E+00 -0.00000000000E+00 -0.13479196867E+03  0.13479196867E+03  0.00000000000E+00 0.  1.
         24    2    1    2    0    0  0.83723447290E+01 -0.79552147294E+02 -0.77560735478E+02  0.13792062587E+03  0.81288320537E+02 0.  0.
         25    2    1    2    0    0  0.52311951649E+02 -0.33093797986E+02  0.51596365924E+03  0.53450673305E+03  0.12508880954E+03 0.  0.
        -24    2    1    2    0    0 -0.60684296378E+02  0.11264594528E+03  0.30073990229E+03  0.33629940448E+03  0.79253440371E+02 0.  0.
        -11    1    3    3    0    0  0.13416123356E+02 -0.88469996268E+02 -0.86402304355E+02  0.12438766339E+03  0.00000000000E+00 0.  1.
         12    1    3    3    0    0 -0.50437786274E+01  0.89178489748E+01  0.88415688763E+01  0.13532962476E+02  0.00000000000E+00 0. -1.
         11    1    5    5    0    0  0.46942891732E+01  0.63880861356E+02  0.91207251701E+02  0.11145206845E+03  0.00000000000E+00 0. -1.
        -12    1    5    5    0    0 -0.65378585551E+02  0.48765083923E+02  0.20953265059E+03  0.22484733603E+03  0.00000000000E+00 0.  1.
          5    1    4    4  501    0 -0.20920700987E+02 -0.58218810465E+02  0.22407408355E+03  0.23249467293E+03  0.41800000000E+01 0.  1.
         -5    1    4    4    0  501  0.73232652636E+02  0.25125012479E+02  0.29188957569E+03  0.30201206012E+03  0.41800000000E+01 0.  1.
</event>
<event>
11    1  0.6455215E-009  0.1342533E+03  0.7561462E-02  0.1114151E+00
         22   -1    0    0    0    0  0.00000000000E+00  0.00000000000E+00  0.96723566717E+02  0.96723566717E+02  0.00000000000E+00 0. -1.
         22   -1    0    0    0    0 -0.00000000000E+00 -0.00000000000E+00 -0.64546052565E+03  0.64546052565E+03  0.00000000000E+00 0. -1.
         24    2    1    2    0    0 -0.54080126216E+01  0.33949054367E+02 -0.44227796911E+03  0.44881319453E+03  0.68129998755E+02 0.  0.
         25    2    1    2    0    0 -0.31429579944E+01 -0.76225344482E+02 -0.13287687277E+03  0.19779828474E+03  0.12509083421E+03 0.  0.
        -24    2    1    2    0    0  0.85509706160E+01  0.42276290115E+02  0.26417882943E+02  0.95572613101E+02  0.81091405410E+02 0.  0.
        -13    1    3    3    0    0 -0.10580019453E+02 -0.19567841800E+02 -0.14827593617E+03  0.14993528768E+03  0.00000000000E+00 0.  1.
         14    1    3    3    0    0  0.51720068318E+01  0.53516896168E+02 -0.29400203293E+03  0.29887790684E+03  0.00000000000E+00 0. -1.
         11    1    5    5    0    0  0.36942287131E+02 -0.22084133254E+01  0.10593526404E+01  0.37023396601E+02  0.00000000000E+00 0. -1.
        -12    1    5    5    0    0 -0.28391316515E+02  0.44484703440E+02  0.25358530302E+02  0.58549216499E+02  0.00000000000E+00 0.  1.
          5    1    4    4  501    0  0.40990968448E+02 -0.43592474238E+02 -0.69741829596E+01  0.60387705144E+02  0.41800000000E+01 0. -1.
         -5    1    4    4    0  501 -0.44133926443E+02 -0.32632870244E+02 -0.12590268981E+03  0.13741057959E+03  0.41800000000E+01 0. -1.
</event>
<event>
11    1  0.6455215E-009  0.1371161E+03  0.7561462E-02  0.1110822E+00
         22   -1    0    0    0    0  0.00000000000E+00  0.00000000000E+00  0.11489073939E+04  0.11489073939E+04  0.00000000000E+00 0. -1.
         22   -1    0    0    0    0 -0.00000000000E+00 -0.00000000000E+00 -0.80312994644E+03  0.80312994644E+03  0.00000000000E+00 0. -1.
        -24    2    1    2    0    0 -0.54832881791E+02  0.98095474893E+01 -0.75987529760E+03  0.76580153540E+03  0.77062646968E+02 0.  0.
         25    2    1    2    0    0  0.79444997892E+02  0.92668071204E+00  0.10316230823E+03  0.18055901895E+03  0.12508689402E+03 0.  0.
         24    2    1    2    0    0 -0.24612116101E+02 -0.10736228201E+02  0.10024904368E+04  0.10056767860E+04  0.75350508366E+02 0.  0.
        -11    1    5    5    0    0 -0.35048871203E+02 -0.36969076279E+02  0.71082069169E+03  0.71264380423E+03  0.00000000000E+00 0.  1.
         12    1    5    5    0    0  0.10436755101E+02  0.26232848078E+02  0.29166974515E+03  0.29303298178E+03  0.00000000000E+00 0. -1.
         11    1    3    3    0    0 -0.24027591306E+02  0.17039551526E+02 -0.66764098368E+03  0.66829047169E+03  0.00000000000E+00 0. -1.
        -12    1    3    3    0    0 -0.30805290485E+02 -0.72300040370E+01 -0.92234313921E+02  0.97511063704E+02  0.00000000000E+00 0.  1.
          5    1    4    4  501    0  0.92146797534E+02 -0.36198523146E+02  0.10030426620E+03  0.14099568643E+03  0.41800000000E+01 0. -1.
         -5    1    4    4    0  501 -0.12701799642E+02  0.37125203858E+02  0.28580420322E+01  0.39563332517E+02  0.41800000000E+01 0. -1.
</event>
<event>
11    1  0.6455215E-009  0.1591979E+03  0.7561462E-02  0.1087834E+00
         22   -1    0    0    0    0  0.00000000000E+00  0.00000000000E+00  0.28411391093E+03  0.28411391093E+03  0.00000000000E+00 0.  1.
         22   -1    0    0    0    0 -0.00000000000E+00 -0.00000000000E+00 -0.23659546171E+04  0.23659546171E+04  0.00000000000E+00 0. -1.
         24    2    1    2    0    0 -0.62383164919E+02 -0.73780117584E+02 -0.21882513471E+04  0.21918404820E+04  0.79909795593E+02 0.  0.
         25    2    1    2    0    0  0.12089051960E+03  0.11976642255E+03 -0.92880963354E+02  0.23072315232E+03  0.12509111065E+03 0.  0.
        -24    2    1    2    0    0 -0.58507354685E+02 -0.45986304961E+02  0.19929160426E+03  0.22750489374E+03  0.80644171236E+02 0.  0.
        -11    1    3    3    0    0  0.17489460509E+02 -0.22627117336E+01 -0.24500503959E+03  0.24563890269E+03  0.00000000000E+00 0.  1.
         12    1    3    3    0    0 -0.79872625428E+02 -0.71517405850E+02 -0.19432463075E+04  0.19462015793E+04  0.00000000000E+00 0. -1.
         11    1    5    5    0    0  0.11276510645E+02  0.45285299521E+01  0.76783704682E+02  0.77739337407E+02  0.00000000000E+00 0. -1.
        -12    1    5    5    0    0 -0.69783865331E+02 -0.50514834913E+02  0.12250789957E+03  0.14976555634E+03  0.00000000000E+00 0.  1.
          5    1    4    4  501    0  0.14640206659E+02  0.57333741217E+02 -0.89495450958E+02  0.10737039478E+03  0.41800000000E+01 0.  1.
         -5    1    4    4    0  501  0.10625031295E+03  0.62432681328E+02 -0.33855123967E+01  0.12335275754E+03  0.41800000000E+01 0.  1.
</event>
<event>
11    1  0.6455215E-009  0.1290417E+03  0.7561462E-02  0.1120452E+00
         22   -1    0    0    0    0  0.00000000000E+00  0.00000000000E+00  0.46238046269E+03  0.46238046269E+03  0.00000000000E+00 0.  1.
         22   -1    0    0    0    0 -0.00000000000E+00 -0.00000000000E+00 -0.13302593634E+04  0.13302593634E+04  0.00000000000E+00 0. -1.
         24    2    1    2    0    0  0.21372297135E+01  0.99802847615E+01 -0.12520502701E+04  0.12547390110E+04  0.81461237660E+02 0.  0.
         25    2    1    2    0    0 -0.17038897649E+02 -0.37302641002E+02 -0.12750832620E+02  0.13225995845E+03  0.12509317255E+03 0.  0.
        -24    2    1    2    0    0  0.14901667936E+02  0.27322356240E+02  0.39692220196E+03  0.40564085661E+03  0.77644698980E+02 0.  0.
        -13    1    3    3    0    0  0.30675266255E+02  0.31183868786E+02 -0.52462573709E+03  0.52644616975E+03  0.00000000000E+00 0.  1.
         14    1    3    3    0    0 -0.28538036541E+02 -0.21203584024E+02 -0.72742453296E+03  0.72829284128E+03  0.00000000000E+00 0. -1.
         13    1    5    5    0    0  0.14009611848E+02  0.53871421220E+02  0.23140873119E+03  0.23800924377E+03  0.00000000000E+00 0. -1.
        -14    1    5    5    0    0  0.89205608764E+00 -0.26549064980E+02  0.16551347077E+03  0.16763161284E+03  0.00000000000E+00 0.  1.
          5    1    4    4  501    0  0.19234498790E+02 -0.47788069205E+02 -0.54979775942E+02  0.75458025847E+02  0.41800000000E+01 0.  1.
         -5    1    4    4    0  501 -0.36273396439E+02  0.10485428204E+02  0.42228943322E+02  0.56801932607E+02  0.41800000000E+01 0.  1.
</event>
<event>
11    1  0.6455215E-009  0.1332787E+03  0.7561462E-02  0.1115305E+00
         22   -1    0    0    0    0  0.00000000000E+00  0.00000000000E+00  0.11234809031E+04  0.11234809031E+04  0.00000000000E+00 0.  1.
         22   -1    0    0    0    0 -0.00000000000E+00 -0.00000000000E+00 -0.17514317389E+04  0.17514317389E+04  0.00000000000E+00 0. -1.
        -24    2    1    2    0    0 -0.12080226886E+02 -0.40379266422E+02 -0.17011530052E+04  0.17036289464E+04  0.81569742410E+02 0.  0.
         25    2    1    2    0    0 -0.26252784461E+02  0.64754045295E+02  0.62885116599E+02  0.15647701758E+03  0.12509286178E+03 0.  0.
         24    2    1    2    0    0  0.38333011346E+02 -0.24374778873E+02  0.10103170529E+04  0.10148066780E+04  0.83836130544E+02 0.  0.
        -11    1    5    5    0    0  0.88635433315E+01 -0.30084793207E+02  0.89800208696E+03  0.89854961208E+03  0.00000000000E+00 0.  1.
         12    1    5    5    0    0  0.29469468015E+02  0.57100143333E+01  0.11231496593E+03  0.11625706594E+03  0.00000000000E+00 0. -1.
         13    1    3    3    0    0 -0.46611350722E+02 -0.23185411273E+02 -0.83918845920E+03  0.84080167184E+03  0.00000000000E+00 0. -1.
        -14    1    3    3    0    0  0.34531123837E+02 -0.17193855149E+02 -0.86196454604E+03  0.86282727460E+03  0.00000000000E+00 0.  1.
          5    1    4    4  501    0 -0.53750609262E+02  0.21908856495E+02 -0.17910313426E+02  0.60888239553E+02  0.41800000000E+01 0.  1.
         -5    1    4    4    0  501  0.27497824801E+02  0.42845188801E+02  0.80795430025E+02  0.95588778029E+02  0.41800000000E+01 0.  1.
</event>
<event>
11    1  0.6455215E-009  0.1486988E+03  0.7561462E-02  0.1098216E+00
         22   -1    0    0    0    0  0.00000000000E+00  0.00000000000E+00  0.49151189508E+03  0.49151189508E+03  0.00000000000E+00 0. -1.
         22   -1    0    0    0    0 -0.00000000000E+00 -0.00000000000E+00 -0.16369276668E+03  0.16369276668E+03  0.00000000000E+00 0. -1.
         24    2    1    2    0    0  0.23805083905E+01  0.26774181670E+02 -0.91368646848E+02  0.12192296386E+03  0.76121323323E+02 0.  0.
         25    2    1    2    0    0 -0.76030125211E+02 -0.53887491109E+02  0.78756481092E+02  0.17474168348E+03  0.12509049122E+03 0.  0.
        -24    2    1    2    0    0  0.73649616820E+02  0.27113309439E+02  0.34043129416E+03  0.35854001442E+03  0.80610658686E+02 0.  0.
        -13    1    3    3    0    0 -0.26142867594E+02 -0.17975014430E+01 -0.51299894391E+01  0.26702009833E+02  0.00000000000E+00 0.  1.
         14    1    3    3    0    0  0.28523375985E+02  0.28571683113E+02 -0.86238657409E+02  0.95220954024E+02  0.00000000000E+00 0. -1.
         13    1    5    5    0    0  0.71540993032E+02  0.49783566006E+02  0.29669897242E+03  0.30923582807E+03  0.00000000000E+00 0. -1.
        -14    1    5    5    0    0  0.21086237877E+01 -0.22670256567E+02  0.43732321734E+02  0.49304186347E+02  0.00000000000E+00 0.  1.
          5    1    4    4  501    0 -0.74829932979E+01  0.27596935570E+02  0.59922061928E+02  0.66526024586E+02  0.41800000000E+01 0.  1.
         -5    1    4    4    0  501 -0.68547131913E+02 -0.81484426679E+02  0.18834419164E+02  0.10821565889E+03  0.41800000000E+01 0.  1.
</event>
<event>
11    1  0.6455215E-009  0.1361302E+03  0.7561462E-02  0.1111958E+00
         22   -1    0    0    0    0  0.00000000000E+00  0.00000000000E+00  0.45506933895E+04  0.45506933895E+04  0.00000000000E+00 0.  1.
         22   -1    0    0    0    0 -0.00000000000E+00 -0.00000000000E+00 -0.12504374177E+03  0.12504374177E+03  0.00000000000E+00 0.  1.
        -24    2    1    2    0    0 -0.16726623816E+02 -0.50472552908E+02 -0.86350259858E+02  0.13115642571E+03  0.83176812185E+02 0.  0.
         25    2    1    2    0    0 -0.80366803301E+01  0.66644825542E+02  0.30126712063E+03  0.33303948892E+03  0.12508917703E+03 0.  0.
         24    2    1    2    0    0  0.24763304147E+02 -0.16172272634E+02  0.42107327869E+04  0.42115412166E+04  0.77032801885E+02 0.  0.
        -13    1    5    5    0    0  0.47581409416E+02 -0.63689860296E+01  0.35768207647E+04  0.35771429014E+04  0.00000000000E+00 0.  1.
         14    1    5    5    0    0 -0.22818105269E+02 -0.98032866042E+01  0.63391202228E+03  0.63439831521E+03  0.00000000000E+00 0. -1.
         11    1    3    3    0    0 -0.10430895323E+02  0.18348605268E+02 -0.72119721740E+00  0.21118594128E+02  0.00000000000E+00 0. -1.
        -12    1    3    3    0    0 -0.62957284931E+01 -0.68821158176E+02 -0.85629062641E+02  0.11003783158E+03  0.00000000000E+00 0.  1.
          5    1    4    4  501    0 -0.56560963786E+02  0.35672657116E+02  0.23866039232E+03  0.24788694268E+03  0.41800000000E+01 0.  1.
         -5    1    4    4    0  501  0.48524283456E+02  0.30972168426E+02  0.62606728306E+02  0.85152546240E+02  0.41800000000E+01 0.  1.
</event>
<event>
11    1  0.6455215E-009  0.1471487E+03  0.7561462E-02  0.1099828E+00
         22   -1    0    0    0    0  0.00000000000E+00  0.00000000000E+00  0.50651541096E+03  0.50651541096E+03  0.00000000000E+00 0. -1.
         22   -1    0    0    0    0 -0.00000000000E+00 -0.00000000000E+00 -0.91858340818E+03  0.91858340818E+03  0.00000000000E+00 0. -1.
        -24    2    1    2    0    0  0.76989636034E+02 -0.56994975626E+01 -0.79010829389E+03  0.79755759703E+03  0.76597103002E+02 0.  0.
         25    2    1    2    0    0 -0.81405074425E+02 -0.15168015241E+01 -0.75466392869E+02  0.16724784419E+03  0.12509027981E+03 0.  0.
         24    2    1    2    0    0  0.44154383907E+01  0.72162990867E+01  0.45350668954E+03  0.46029337791E+03  0.78294988522E+02 0.  0.
        -11    1    5    5    0    0 -0.48086748155E+01  0.14516402331E+02  0.14323287527E+02  0.20952466578E+02  0.00000000000E+00 0.  1.
         12    1    5    5    0    0  0.92241132062E+01 -0.73001032447E+01  0.43918340201E+03  0.43934091133E+03  0.00000000000E+00 0. -1.
         11    1    3    3    0    0  0.19923314084E+02 -0.24226786475E+02 -0.51633812448E+03  0.51728999064E+03  0.00000000000E+00 0. -1.
        -12    1    3    3    0    0  0.57066321951E+02  0.18527288912E+02 -0.27377016941E+03  0.28026760639E+03  0.00000000000E+00 0.  1.
          5    1    4    4  501    0  0.16659275319E+01 -0.51501966682E+02 -0.19694216250E+02  0.55322350278E+02  0.41800000000E+01 0. -1.
         -5    1    4    4    0  501 -0.83071001957E+02  0.49985165158E+02 -0.55772176619E+02  0.11192549391E+03  0.41800000000E+01 0. -1.
</event>
<event>
11    1  0.6455215E-009  0.2953752E+03  0.7561462E-02  0.1002168E+00
         22   -1    0    0    0    0  0.00000000000E+00  0.00000000000E+00  0.10685086946E+04  0.10685086946E+04  0.00000000000E+00 0.  1.
         22   -1    0    0    0    0 -0.00000000000E+00 -0.00000000000E+00 -0.16289529731E+04  0.16289529731E+04  0.00000000000E+00 0. -1.
         24    2    1    2    0    0  0.25907778241E+03 -0.84697186777E+01 -0.91256017998E+03  0.95210933258E+03  0.80951007639E+02 0.  0.
         25    2    1    2    0    0 -0.27438834876E+03  0.10007052714E+03 -0.65648556501E+03  0.72933147889E+03  0.12509209683E+03 0.  0.
        -24    2    1    2    0    0  0.15310566351E+02 -0.91600808466E+02  0.10086014666E+04  0.10160208562E+04  0.79977124010E+02 0.  0.
        -11    1    3    3    0    0  0.12395384437E+01 -0.85623478166E+01 -0.90128399767E+01  0.12493259788E+02  0.00000000000E+00 0.  1.
         12    1    3    3    0    0  0.25783824397E+03  0.92629138915E-01 -0.90354734000E+03  0.93961607280E+03  0.00000000000E+00 0. -1.
         13    1    5    5    0    0 -0.11778306170E+02 -0.25093287372E+02  0.80379043871E+02  0.85024656783E+02  0.00000000000E+00 0. -1.
        -14    1    5    5    0    0  0.27088872520E+02 -0.66507521094E+02  0.92822242271E+03  0.93099619945E+03  0.00000000000E+00 0.  1.
          5    1    4    4  501    0 -0.25913061830E+03  0.12536055712E+03 -0.59617292767E+03  0.66204499750E+03  0.41800000000E+01 0.  1.
         -5    1    4    4    0  501 -0.15257730457E+02 -0.25290029975E+02 -0.60312637342E+02  0.67286481391E+02  0.41800000000E+01 0.  1.
</event>
<event>
11    1  0.6455215E-009  0.1950935E+03  0.7561462E-02  0.1058049E+00
         22   -1    0    0    0    0  0.00000000000E+00  0.00000000000E+00  0.20986815071E+04  0.20986815071E+04  0.00000000000E+00 0.  1.
         22   -1    0    0    0    0 -0.00000000000E+00 -0.00000000000E+00 -0.15779314548E+03  0.15779314548E+03  0.00000000000E+00 0.  1.
         24    2    1    2    0    0  0.14796710022E+03 -0.69747624648E+02 -0.82514509799E+02  0.20050067123E+03  0.81442500861E+02 0.  0.
         25    2    1    2    0    0 -0.69341093073E+02 -0.75111617490E+01  0.36752751069E+03  0.39444890187E+03  0.12509540492E+03 0.  0.
        -24    2    1    2    0    0 -0.78626007145E+02  0.77258786398E+02  0.16558753607E+04  0.16615250795E+04  0.81187501605E+02 0.  0.
        -11    1    3    3    0    0  0.12981189921E+03 -0.22242277148E+02 -0.55565871515E+02  0.14294549362E+03  0.00000000000E+00 0.  1.
         12    1    3    3    0    0  0.18155201011E+02 -0.47505347501E+02 -0.26948638284E+02  0.57555177615E+02  0.00000000000E+00 0. -1.
         11    1    5    5    0    0  0.15761225414E+02  0.10327569980E+02  0.14388088781E+03  0.14510956138E+03  0.00000000000E+00 0. -1.
        -12    1    5    5    0    0 -0.94387232559E+02  0.66931216418E+02  0.15119944729E+04  0.15164155181E+04  0.00000000000E+00 0.  1.
          5    1    4    4  501    0 -0.34694658768E+01  0.66978508946E+01  0.29586632385E+03  0.29599198028E+03  0.41800000000E+01 0. -1.
         -5    1    4    4    0  501 -0.65871627197E+02 -0.14209012644E+02  0.71661186834E+02  0.98456921586E+02  0.41800000000E+01 0. -1.
</event>
<event>
11    1  0.6455215E-009  0.1555697E+03  0.7561462E-02  0.1091320E+00
         22   -1    0    0    0    0  0.00000000000E+00  0.00000000000E+00  0.19622223214E+04  0.19622223214E+04  0.00000000000E+00 0. -1.
         22   -1    0    0    0    0 -0.00000000000E+00 -0.00000000000E+00 -0.16210980666E+03  0.16210980666E+03  0.00000000000E+00 0. -1.
        -24    2    1    2    0    0 -0.12782178048E+02  0.50922639643E+02 -0.86278877889E+02  0.12801569981E+03  0.78660506763E+02 0.  0.
         25    2    1    2    0    0 -0.31607197429E+01  0.42205427258E+02  0.29589527304E+02  0.13533035051E+03  0.12508986931E+03 0.  0.
         24    2    1    2    0    0  0.15942897791E+02 -0.93128066901E+02  0.18568018654E+04  0.18609860778E+04  0.81418680999E+02 0.  0.
        -11    1    5    5    0    0  0.87933577647E+01 -0.34937989924E+02  0.20483736808E+03  0.20798157044E+03  0.00000000000E+00 0.  1.
         12    1    5    5    0    0  0.71495400260E+01 -0.58190076977E+02  0.16519644973E+04  0.16530045073E+04  0.00000000000E+00 0. -1.
         11    1    3    3    0    0 -0.21073730403E+02  0.53745944046E+02 -0.97785276413E+02  0.11355478368E+03  0.00000000000E+00 0. -1.
        -12    1    3    3    0    0  0.82915523548E+01 -0.28233044036E+01  0.11506398523E+02  0.14460916125E+02  0.00000000000E+00 0.  1.
          5    1    4    4  501    0 -0.50476211790E+02  0.62425229225E+02  0.16319035539E+02  0.82027681433E+02  0.41800000000E+01 0.  1.
         -5    1    4    4    0  501  0.47315492047E+02 -0.20219801967E+02  0.13270491765E+02  0.53302669078E+02  0.41800000000E+01 0.  1.
</event>
<event>
11    1  0.6455215E-009  0.2056747E+03  0.7561462E-02  0.1050582E+00
         22   -1    0    0    0    0  0.00000000000E+00  0.00000000000E+00  0.55365021072E+03  0.55365021072E+03  0.00000000000E+00 0. -1.
         22   -1    0    0    0    0 -0.00000000000E+00 -0.00000000000E+00 -0.41910040525E+03  0.41910040525E+03  0.00000000000E+00 0. -1.
         24    2    1    2    0    0 -0.15893393299E+03  0.45534886600E+01 -0.20925872798E+03  0.27514824336E+03  0.81465399234E+02 0.  0.
         25    2    1    2    0    0  0.17106213381E+03 -0.18327601031E+02 -0.10792251141E+03  0.23852481893E+03  0.12509462896E+03 0.  0.
        -24    2    1    2    0    0 -0.12128200818E+02  0.13774112371E+02  0.45173104485E+03  0.45907755368E+03  0.79714766443E+02 0.  0.
        -13    1    3    3    0    0 -0.21025488396E+02 -0.29718645081E+02 -0.38281871721E+02  0.52827745837E+02  0.00000000000E+00 0.  1.
         14    1    3    3    0    0 -0.13790844460E+03  0.34272133741E+02 -0.17097685625E+03  0.22232049752E+03  0.00000000000E+00 0. -1.
         13    1    5    5    0    0 -0.34568713511E+02 -0.10830340732E+02  0.35358506161E+03  0.35543591269E+03  0.00000000000E+00 0. -1.
        -14    1    5    5    0    0  0.22440512693E+02  0.24604453103E+02  0.98145983239E+02  0.10364164100E+03  0.00000000000E+00 0.  1.
          5    1    4    4  501    0  0.63416944738E+02 -0.37501134913E+02 -0.10591488689E+03  0.12908710108E+03  0.41800000000E+01 0. -1.
         -5    1    4    4    0  501  0.10764518907E+03  0.19173533882E+02 -0.20076245154E+01  0.10943771785E+03  0.41800000000E+01 0. -1.
</event>
<event>
11    1  0.6455215E-009  0.1286947E+03  0.7561462E-02  0.1120883E+00
         22   -1    0    0    0    0  0.00000000000E+00  0.00000000000E+00  0.92284664743E+02  0.92284664743E+02  0.00000000000E+00 0. -1.
         22   -1    0    0    0    0 -0.00000000000E+00 -0.00000000000E+00 -0.10028249591E+04  0.10028249591E+04  0.00000000000E+00 0. -1.
         24    2    1    2    0    0  0.20808666138E+02  0.24573753366E+02 -0.76280510311E+03  0.76747920445E+03  0.78203797772E+02 0.  0.
         25    2    1    2    0    0 -0.18657804064E+02 -0.29339127192E+01 -0.19472826242E+03  0.23221388675E+03  0.12508985378E+03 0.  0.
        -24    2    1    2    0    0 -0.21508620742E+01 -0.21639840646E+02  0.46993071204E+02  0.95416532613E+02  0.80143976966E+02 0.  0.
        -13    1    3    3    0    0 -0.17359983516E+02 -0.19572718283E+02 -0.24880885032E+03  0.25018054346E+03  0.00000000000E+00 0.  1.
         14    1    3    3    0    0  0.38168649655E+02  0.44146471649E+02 -0.51399625279E+03  0.51729866099E+03  0.00000000000E+00 0. -1.
         13    1    5    5    0    0 -0.99949545258E+01 -0.10466925494E+02  0.68461921160E+02  0.69974926182E+02  0.00000000000E+00 0. -1.
        -14    1    5    5    0    0  0.78440924516E+01 -0.11172915152E+02 -0.21468849956E+02  0.25441606432E+02  0.00000000000E+00 0.  1.
          5    1    4    4  501    0 -0.54257397314E+02  0.14268041470E+02 -0.18195615759E+03  0.19045460839E+03  0.41800000000E+01 0. -1.
         -5    1    4    4    0  501  0.35599593249E+02 -0.17201954190E+02 -0.12772104824E+02  0.41759278360E+02  0.41800000000E+01 0. -1.
</event>
<event>
11    1  0.6455215E-009  0.1551004E+03  0.7561462E-02  0.1091778E+00
         22   -1    0    0    0    0  0.00000000000E+00  0.00000000000E+00  0.18627032233E+04  0.18627032233E+04  0.00000000000E+00 0.  1.
         22   -1    0    0    0    0 -0.00000000000E+00 -0.00000000000E+00 -0.25393423623E+03  0.25393423623E+03  0.00000000000E+00 0.  1.
        -24    2    1    2    0    0 -0.44043342069E+02 -0.81638586263E+02 -0.22776526718E+03  0.25867795656E+03  0.80203450847E+02 0.  0.
         25    2    1    2    0    0  0.28767424452E+02  0.48653525581E+02  0.50224914869E+03  0.52066947760E+03  0.12509103598E+03 0.  0.
         24    2    1    2    0    0  0.15275917617E+02  0.32985060683E+02  0.13342851056E+04  0.13372900254E+04  0.81893230213E+02 0.  0.
        -11    1    5    5    0    0  0.71027811537E+00  0.91078518257E+01  0.12040851645E+04  0.12041198199E+04  0.00000000000E+00 0.  1.
         12    1    5    5    0    0  0.14565639501E+02  0.23877208857E+02  0.13019994109E+03  0.13317020544E+03  0.00000000000E+00 0. -1.
         13    1    3    3    0    0 -0.28929587959E+01  0.13492831104E+02 -0.86566124301E+01  0.16289955204E+02  0.00000000000E+00 0. -1.
        -14    1    3    3    0    0 -0.41150383273E+02 -0.95131417367E+02 -0.21910865475E+03  0.24238800136E+03  0.00000000000E+00 0.  1.
          5    1    4    4  501    0  0.63091535481E+02  0.47758691525E+02  0.18127701151E+03  0.19783897940E+03  0.41800000000E+01 0. -1.
         -5    1    4    4    0  501 -0.34324111029E+02  0.89483405557E+00  0.32097213718E+03  0.32283049820E+03  0.41800000000E+01 0. -1.
</event>
<event>
11    1  0.6455215E-009  0.1421588E+03  0.7561462E-02  0.1105171E+00
         22   -1    0    0    0    0  0.00000000000E+00  0.00000000000E+00  0.22650929399E+03  0.22650929399E+03  0.00000000000E+00 0.  1.
         22   -1    0    0    0    0 -0.00000000000E+00 -0.00000000000E+00 -0.15443971983E+04  0.15443971983E+04  0.00000000000E+00 0. -1.
        -24    2    1    2    0    0 -0.62525695715E+02  0.27557929018E+02 -0.14133437163E+04  0.14172129727E+04  0.79266937309E+02 0.  0.
         25    2    1    2    0    0  0.31626343138E+02 -0.52952466883E+02 -0.77214608452E+02  0.15941783562E+03  0.12509101177E+03 0.  0.
         24    2    1    2    0    0  0.30899352577E+02  0.25394537864E+02  0.17267042048E+03  0.19427568399E+03  0.79550705462E+02 0.  0.
        -13    1    5    5    0    0 -0.23419322688E+01 -0.25441087185E+01  0.13972870621E+03  0.13977148663E+03  0.00000000000E+00 0.  1.
         14    1    5    5    0    0  0.33241284846E+02  0.27938646583E+02  0.32941714269E+02  0.54504197362E+02  0.00000000000E+00 0. -1.
         11    1    3    3    0    0 -0.29083331880E+01  0.29563488370E+02 -0.88744439989E+03  0.88794145142E+03  0.00000000000E+00 0. -1.
        -12    1    3    3    0    0 -0.59617362527E+02 -0.20055593512E+01 -0.52589931643E+03  0.52927152125E+03  0.00000000000E+00 0.  1.
          5    1    4    4  501    0  0.32267946016E+02 -0.42228139462E+02  0.23346826841E+02  0.58197790560E+02  0.41800000000E+01 0. -1.
         -5    1    4    4    0  501 -0.64160287763E+00 -0.10724327420E+02 -0.10056143529E+03  0.10122004506E+03  0.41800000000E+01 0. -1.
</event>
<event>
11    1  0.6455215E-009  0.1377091E+03  0.7561462E-02  0.1110144E+00
         22   -1    0    0    0    0  0.00000000000E+00  0.00000000000E+00  0.17707588642E+03  0.17707588642E+03  0.00000000000E+00 0. -1.
         22   -1    0    0    0    0 -0.00000000000E+00 -0.00000000000E+00 -0.37885724779E+03  0.37885724779E+03  0.00000000000E+00 0. -1.
         24    2    1    2    0    0 -0.47691839560E+02 -0.31770439023E+02 -0.21270351681E+03  0.23478832552E+03  0.81233609917E+02 0.  0.
         25    2    1    2    0    0  0.17444278893E+02  0.70802316738E+02 -0.99650321584E+02  0.17577016383E+03  0.12509073899E+03 0.  0.
        -24    2    1    2    0    0  0.30247560667E+02 -0.39031877715E+02  0.11057247702E+03  0.14537464486E+03  0.80430791927E+02 0.  0.
        -11    1    3    3    0    0 -0.23778739798E+02  0.25121448927E+02 -0.10626376885E+03  0.11175197642E+03  0.00000000000E+00 0.  1.
         12    1    3    3    0    0 -0.23913099762E+02 -0.56891887950E+02 -0.10643974795E+03  0.12303634910E+03  0.00000000000E+00 0. -1.
         11    1    5    5    0    0  0.15791324965E+02  0.18911723838E+02  0.67178724176E+02  0.71554176850E+02  0.00000000000E+00 0. -1.
        -12    1    5    5    0    0  0.14456235701E+02 -0.57943601553E+02  0.43393752844E+02  0.73820468012E+02  0.00000000000E+00 0.  1.
          5    1    4    4  501    0  0.67902612563E+02  0.31434193384E+02 -0.77776616638E+02  0.10800716551E+03  0.41800000000E+01 0.  1.
         -5    1    4    4    0  501 -0.50458333669E+02  0.39368123353E+02 -0.21873704946E+02  0.67762998319E+02  0.41800000000E+01 0.  1.
</event>
<event>
11    1  0.6455215E-009  0.1478241E+03  0.7561462E-02  0.1099123E+00
         22   -1    0    0    0    0  0.00000000000E+00  0.00000000000E+00  0.60293741172E+02  0.60293741172E+02  0.00000000000E+00 0. -1.
         22   -1    0    0    0    0 -0.00000000000E+00 -0.00000000000E+00 -0.14241247731E+04  0.14241247731E+04  0.00000000000E+00 0.  1.
         24    2    1    2    0    0  0.38861875169E+02  0.15578516013E+02 -0.10359260102E+04  0.10398522443E+04  0.79981597523E+02 0.  0.
         25    2    1    2    0    0 -0.96822025872E+02 -0.54538197326E+02 -0.27907646762E+03  0.32539307275E+03  0.12509219541E+03 0.  0.
        -24    2    1    2    0    0  0.57960150704E+02  0.38959681313E+02 -0.48828554197E+02  0.11917319727E+03  0.83311388211E+02 0.  0.
        -13    1    3    3    0    0  0.30685946183E+01  0.32390871707E+02 -0.79794316615E+03  0.79860621163E+03  0.00000000000E+00 0.  1.
         14    1    3    3    0    0  0.35793280550E+02 -0.16812355694E+02 -0.23798284400E+03  0.24124603266E+03  0.00000000000E+00 0. -1.
         13    1    5    5    0    0  0.30211870259E+02  0.15550937343E+02  0.21371702131E+02  0.40141479903E+02  0.00000000000E+00 0. -1.
        -14    1    5    5    0    0  0.27748280445E+02  0.23408743970E+02 -0.70200256328E+02  0.79031717370E+02  0.00000000000E+00 0.  1.
          5    1    4    4  501    0  0.10065530703E+01 -0.65159165466E+01 -0.17325837805E+03  0.17343416123E+03  0.41800000000E+01 0.  1.
         -5    1    4    4    0  501 -0.97828578943E+02 -0.48022280780E+02 -0.10581808957E+03  0.15195891151E+03  0.41800000000E+01 0.  1.
</event>
<event>
11    1  0.6455215E-009  0.1293954E+03  0.7561462E-02  0.1120014E+00
         22   -1    0    0    0    0  0.00000000000E+00  0.00000000000E+00  0.13234422885E+04  0.13234422885E+04  0.00000000000E+00 0. -1.
         22   -1    0    0    0    0 -0.00000000000E+00 -0.00000000000E+00 -0.16034895538E+04  0.16034895538E+04  0.00000000000E+00 0.  1.
        -24    2    1    2    0    0 -0.13121753764E+02 -0.30503312018E+02 -0.15825784880E+04  0.15850010731E+04  0.81062312487E+02 0.  0.
         25    2    1    2    0    0 -0.10052905864E+02  0.18484385614E+02  0.20407665800E+03  0.24028692493E+03  0.12509112888E+03 0.  0.
         24    2    1    2    0    0  0.23174659628E+02  0.12018926404E+02  0.10984545647E+04  0.11016438443E+04  0.79594030051E+02 0.  0.
        -11    1    5    5    0    0 -0.13835056395E+02 -0.20064882750E+02  0.15369307056E+03  0.15561352204E+03  0.00000000000E+00 0.  1.
         12    1    5    5    0    0  0.37009716023E+02  0.32083809154E+02  0.94476149413E+03  0.94603032228E+03  0.00000000000E+00 0. -1.
         13    1    3    3    0    0 -0.32547210655E+02  0.22918345877E+01 -0.28478987583E+03  0.28665283323E+03  0.00000000000E+00 0. -1.
        -14    1    3    3    0    0  0.19425456892E+02 -0.32795146606E+02 -0.12977886122E+04  0.12983482398E+04  0.00000000000E+00 0.  1.
          5    1    4    4  501    0  0.23073667937E+02 -0.43886546018E+02  0.12300294288E+03  0.13268616895E+03  0.41800000000E+01 0.  1.
         -5    1    4    4    0  501 -0.33126573801E+02  0.62370931632E+02  0.81073715116E+02  0.10760075598E+03  0.41800000000E+01 0.  1.
</event>
<event>
11    1  0.6455215E-009  0.1348681E+03  0.7561462E-02  0.1113428E+00
         22   -1    0    0    0    0  0.00000000000E+00  0.00000000000E+00  0.60287749267E+03  0.60287749267E+03  0.00000000000E+00 0. -1.
         22   -1    0    0    0    0 -0.00000000000E+00 -0.00000000000E+00 -0.21775277330E+03  0.21775277330E+03  0.00000000000E+00 0. -1.
        -24    2    1    2    0    0 -0.33573908026E+02 -0.21671112663E+01 -0.15668804662E+03  0.17991538101E+03  0.81771001592E+02 0.  0.
         25    2    1    2    0    0  0.70602039028E+02  0.32403385019E+02  0.76214709039E+02  0.16580379478E+03  0.12509032422E+03 0.  0.
         24    2    1    2    0    0 -0.37028131002E+02 -0.30236273752E+02  0.46559805695E+03  0.47491109017E+03  0.80459171013E+02 0.  0.
        -13    1    5    5    0    0 -0.19863343194E+02 -0.27072714646E+02  0.58596272392E+02  0.67535230950E+02  0.00000000000E+00 0.  1.
         14    1    5    5    0    0 -0.17164787808E+02 -0.31635591060E+01  0.40700178455E+03  0.40737585922E+03  0.00000000000E+00 0. -1.
         13    1    3    3    0    0 -0.37907294609E+02 -0.37285879002E+01 -0.16557814361E+03  0.16990287518E+03  0.00000000000E+00 0. -1.
        -14    1    3    3    0    0  0.43333865837E+01  0.15614766339E+01  0.88900969932E+01  0.10012505836E+02  0.00000000000E+00 0.  1.
          5    1    4    4  501    0 -0.24070657513E+02 -0.25689466839E+02  0.25241446822E+02  0.43519516280E+02  0.41800000000E+01 0. -1.
         -5    1    4    4    0  501  0.94672696542E+02  0.58092851858E+02  0.50973262217E+02  0.12228427850E+03  0.41800000000E+01 0. -1.
</event>
<event>
11    1  0.6455215E-009  0.3288527E+03  0.7561462E-02  0.9886692E-01
         22   -1    0    0    0    0  0.00000000000E+00  0.00000000000E+00  0.60333334185E+02  0.60333334185E+02  0.00000000000E+00 0. -1.
         22   -1    0    0    0    0 -0.00000000000E+00 -0.00000000000E+00 -0.23768811306E+04  0.23768811306E+04  0.00000000000E+00 0.  1.
         24    2    1    2    0    0  0.32614505058E+03 -0.82374367060E+02 -0.10739529429E+04  0.11282913922E+04  0.80687122589E+02 0.  0.
         25    2    1    2    0    0 -0.27118961961E+03  0.65578504405E+02 -0.83083599316E+03  0.88531338826E+03  0.12508796058E+03 0.  0.
        -24    2    1    2    0    0 -0.54955430969E+02  0.16795862654E+02 -0.41175886040E+03  0.42360968438E+03  0.81225643646E+02 0.  0.
        -11    1    3    3    0    0  0.98471642241E+01 -0.20663448809E+02 -0.54377585628E+02  0.58998869300E+02  0.00000000000E+00 0.  1.
         12    1    3    3    0    0  0.31629788636E+03 -0.61710918251E+02 -0.10195753572E+04  0.10692925229E+04  0.00000000000E+00 0. -1.
         11    1    5    5    0    0 -0.61682317338E+01  0.13309225007E+02 -0.76358223544E+01  0.16537482760E+02  0.00000000000E+00 0. -1.
        -12    1    5    5    0    0 -0.48787199236E+02  0.34866376478E+01 -0.40412303804E+03  0.40707220162E+03  0.00000000000E+00 0.  1.
          5    1    4    4  501    0 -0.25085879403E+03  0.59160190626E+02 -0.82265959697E+03  0.86209996380E+03  0.41800000000E+01 0.  1.
         -5    1    4    4    0  501 -0.20330825583E+02  0.64183137794E+01 -0.81763961891E+01  0.23213424463E+02  0.41800000000E+01 0.  1.
</event>
<event>
11    1  0.8158771E-009  0.2041475E+03  0.7561462E-02  0.1051629E+00
         22   -1    0    0    0    0  0.00000000000E+00  0.00000000000E+00  0.21502940908E+04  0.21502940908E+04  0.00000000000E+00 0.  1.
         22   -1    0    0    0    0 -0.00000000000E+00 -0.00000000000E+00 -0.68053745259E+03  0.68053745259E+03  0.00000000000E+00 0. -1.
        -24    2    1    2    0    0 -0.24496320106E+01 -0.48276392512E+02 -0.38098699885E+03  0.39153453570E+03  0.76233775867E+02 0.  0.
         25    2    1    2    0    0 -0.14661042568E+03 -0.14152281045E+02 -0.25827817622E+03  0.32256870344E+03  0.12509215865E+03 0.  0.
         24    2    1    2    0    0  0.14906005769E+03  0.62428673557E+02  0.21090218133E+04  0.21167283043E+04  0.80308561107E+02 0.  0.
        -11    1    5    5    0    0  0.15662854768E+03  0.52499602404E+02  0.20317405178E+04  0.20384450549E+04  0.00000000000E+00 0.  1.
         12    1    5    5    0    0 -0.75684899951E+01  0.99290711532E+01  0.77281295529E+02  0.78283249380E+02  0.00000000000E+00 0. -1.
         11    1    3    3    0    0  0.12479874828E+02  0.10744818279E+02 -0.19804474807E+03  0.19872825827E+03  0.00000000000E+00 0. -1.
        -12    1    3    3    0    0 -0.14929506839E+02 -0.59021210791E+02 -0.18294225078E+03  0.19280627743E+03  0.00000000000E+00 0.  1.
          5    1    4    4  501    0 -0.91226908428E+02  0.41090833294E+02 -0.81159183140E+02  0.12889953766E+03  0.41800000000E+01 0.  1.
         -5    1    4    4    0  501 -0.55383517248E+02 -0.55243114339E+02 -0.17711899308E+03  0.19366916578E+03  0.41800000000E+01 0.  1.
</event>
<event>
11    1  0.6455215E-009  0.2240543E+03  0.7561462E-02  0.1038707E+00
         22   -1    0    0    0    0  0.00000000000E+00  0.00000000000E+00  0.77795223616E+03  0.77795223616E+03  0.00000000000E+00 0.  1.
         22   -1    0    0    0    0 -0.00000000000E+00 -0.00000000000E+00 -0.12814046718E+04  0.12814046718E+04  0.00000000000E+00 0. -1.
         24    2    1    2    0    0  0.16250092767E+02  0.43294873312E+02 -0.81151779060E+03  0.81676156074E+03  0.79998819135E+02 0.  0.
         25    2    1    2    0    0 -0.12739178083E+02 -0.22788526168E+03 -0.41624374612E+03  0.49091817083E+03  0.12509122719E+03 0.  0.
        -24    2    1    2    0    0 -0.35109146838E+01  0.18459038837E+03  0.72430910106E+03  0.75167717642E+03  0.79428997708E+02 0.  0.
        -11    1    3    3    0    0  0.15268521866E+02  0.52460613218E+02 -0.28652685746E+03  0.29168970456E+03  0.00000000000E+00 0.  1.
         12    1    3    3    0    0  0.98157090136E+00 -0.91657399064E+01 -0.52499093314E+03  0.52507185617E+03  0.00000000000E+00 0. -1.
         11    1    5    5    0    0 -0.17658428317E+02  0.12305336415E+03  0.33583304187E+03  0.35810303340E+03  0.00000000000E+00 0. -1.
        -12    1    5    5    0    0  0.14147513633E+02  0.61537024218E+02  0.38847605919E+03  0.39357414303E+03  0.00000000000E+00 0.  1.
          5    1    4    4  501    0 -0.49665309817E+02 -0.64261473187E+02 -0.20900425827E+03  0.22426866100E+03  0.41800000000E+01 0. -1.
         -5    1    4    4    0  501  0.36926131733E+02 -0.16362378849E+03 -0.20723948785E+03  0.26664950983E+03  0.41800000000E+01 0. -1.
</event>
<event>
11    1  0.6455215E-009  0.1733780E+03  0.7561462E-02  0.1075129E+00
         22   -1    0    0    0    0  0.00000000000E+00  0.00000000000E+00  0.44920467956E+03  0.44920467956E+03  0.00000000000E+00 0. -1.
         22   -1    0    0    0    0 -0.00000000000E+00 -0.00000000000E+00 -0.69370250226E+03  0.69370250226E+03  0.00000000000E+00 0.  1.
         24    2    1    2    0    0 -0.35627314998E+02 -0.19606836091E+02 -0.48098344067E+03  0.48914644864E+03  0.79154560352E+02 0.  0.
         25    2    1    2    0    0  0.12048184469E+03  0.10105623439E+03 -0.14415686521E+03  0.24729946050E+03  0.12509030326E+03 0.  0.
        -24    2    1    2    0    0 -0.84854529689E+02 -0.81449398302E+02  0.38064248318E+03  0.40646127268E+03  0.80546697587E+02 0.  0.
        -11    1    3    3    0    0 -0.56007771780E+02 -0.31932818283E+02 -0.32225089849E+03  0.32863690748E+03  0.00000000000E+00 0.  1.
         12    1    3    3    0    0  0.20380456781E+02  0.12325982192E+02 -0.15873254219E+03  0.16050954116E+03  0.00000000000E+00 0. -1.
         11    1    5    5    0    0 -0.33640403025E+02 -0.44813784507E+02  0.29435377078E+03  0.29963994121E+03  0.00000000000E+00 0. -1.
        -12    1    5    5    0    0 -0.51214126664E+02 -0.36635613795E+02  0.86288712400E+02  0.10682133146E+03  0.00000000000E+00 0.  1.
          5    1    4    4  501    0  0.10797369969E+03  0.10870415171E+03 -0.16254547773E+03  0.22341310873E+03  0.41800000000E+01 0.  1.
         -5    1    4    4    0  501  0.12508145002E+02 -0.76479173131E+01  0.18388612521E+02  0.23886351774E+02  0.41800000000E+01 0.  1.
</event>
<event>
11    1  0.6455215E-009  0.1564222E+03  0.7561462E-02  0.1090491E+00
         22   -1    0    0    0    0  0.00000000000E+00  0.00000000000E+00  0.77733884280E+03  0.77733884280E+03  0.00000000000E+00 0. -1.
         22   -1    0    0    0    0 -0.00000000000E+00 -0.00000000000E+00 -0.30362789756E+03  0.30362789756E+03  0.00000000000E+00 0.  1.
         24    2    1    2    0    0  0.65306969280E+00  0.43167029159E+02 -0.23079637581E+03  0.24599876858E+03  0.73379889270E+02 0.  0.
         25    2    1    2    0    0 -0.87735181999E+02 -0.74274316525E+02  0.62292480053E+02  0.18095006618E+03  0.12509371337E+03 0.  0.
        -24    2    1    2    0    0  0.87082112307E+02  0.31107287366E+02  0.64221484099E+03  0.65401790561E+03  0.82149627240E+02 0.  0.
        -13    1    3    3    0    0  0.35600639937E+02  0.14287696751E+02 -0.12856255016E+03  0.13416360589E+03  0.00000000000E+00 0.  1.
         14    1    3    3    0    0 -0.34947570244E+02  0.28879332408E+02 -0.10223382565E+03  0.11183516269E+03  0.00000000000E+00 0. -1.
         11    1    5    5    0    0  0.99602455793E+02  0.22567033374E+02  0.60906446341E+03  0.61756735728E+03  0.00000000000E+00 0. -1.
        -12    1    5    5    0    0 -0.12520343486E+02  0.85402539921E+01  0.33150377581E+02  0.36450548323E+02  0.00000000000E+00 0.  1.
          5    1    4    4  501    0 -0.11636034923E+03 -0.42433323710E+02  0.30977273504E+02  0.12773950723E+03  0.41800000000E+01 0. -1.
         -5    1    4    4    0  501  0.28625167230E+02 -0.31840992814E+02  0.31315206549E+02  0.53210558948E+02  0.41800000000E+01 0. -1.
</event>
<event>
11    1  0.6455215E-009  0.1706403E+03  0.7561462E-02  0.1077476E+00
         22   -1    0    0    0    0  0.00000000000E+00  0.00000000000E+00  0.81025376020E+02  0.81025376020E+02  0.00000000000E+00 0. -1.
         22   -1    0    0    0    0 -0.00000000000E+00 -0.00000000000E+00 -0.28929915694E+04  0.28929915694E+04  0.00000000000E+00 0.  1.
         24    2    1    2    0    0  0.91678534139E+02 -0.48530282854E+02 -0.16258439422E+04  0.16313954226E+04  0.85570780641E+02 0.  0.
         25    2    1    2    0    0 -0.14301452465E+03  0.51468222727E+02 -0.12238227662E+04  0.12395533939E+04  0.12509325027E+03 0.  0.
        -24    2    1    2    0    0  0.51335990509E+02 -0.29379398725E+01  0.37700514883E+02  0.10306812898E+03  0.80979596046E+02 0.  0.
        -13    1    3    3    0    0  0.10720926676E+03 -0.44421391763E+02 -0.15084577780E+04  0.15129150522E+04  0.00000000000E+00 0.  1.
         14    1    3    3    0    0 -0.15530732625E+02 -0.41088910917E+01 -0.11738616412E+03  0.11848037040E+03  0.00000000000E+00 0. -1.
         11    1    5    5    0    0  0.63059533576E+02 -0.27266995004E+02  0.30145037267E+02  0.75024776329E+02  0.00000000000E+00 0. -1.
        -12    1    5    5    0    0 -0.11723543067E+02  0.24329055131E+02  0.75554776163E+01  0.28043352646E+02  0.00000000000E+00 0.  1.
          5    1    4    4  501    0  0.33307496306E+01 -0.26365437898E+02 -0.99600891255E+02  0.10316995758E+03  0.41800000000E+01 0.  1.
         -5    1    4    4    0  501 -0.14634527428E+03  0.77833660625E+02 -0.11242218749E+04  0.11363834364E+04  0.41800000000E+01 0.  1.
</event>
<event>
11    1  0.6455215E-009  0.2301904E+03  0.7561462E-02  0.1035015E+00
         22   -1    0    0    0    0  0.00000000000E+00  0.00000000000E+00  0.14216758762E+03  0.14216758762E+03  0.00000000000E+00 0. -1.
         22   -1    0    0    0    0 -0.00000000000E+00 -0.00000000000E+00 -0.10422000754E+04  0.10422000754E+04  0.00000000000E+00 0. -1.
        -24    2    1    2    0    0  0.70530672899E+02 -0.17796696618E+03 -0.61244990065E+03  0.64666463344E+03  0.80208792976E+02 0.  0.
         25    2    1    2    0    0  0.63823876504E+02  0.22649604446E+03 -0.25380764962E+03  0.36801596245E+03  0.12507389915E+03 0.  0.
         24    2    1    2    0    0 -0.13435454940E+03 -0.48529078278E+02 -0.33774937528E+02  0.16968706715E+03  0.85127774363E+02 0.  0.
        -13    1    5    5    0    0 -0.35081599601E+02 -0.10132749635E+00 -0.46775395433E+02  0.58469363907E+02  0.00000000000E+00 0.  1.
         14    1    5    5    0    0 -0.99272949802E+02 -0.48427750781E+02  0.13000457904E+02  0.11121770324E+03  0.00000000000E+00 0. -1.
         11    1    3    3    0    0 -0.24642534790E+01 -0.57064436234E+02 -0.27471707656E+03  0.28059204297E+03  0.00000000000E+00 0. -1.
        -12    1    3    3    0    0  0.72994926378E+02 -0.12090252994E+03 -0.33773282409E+03  0.36607259047E+03  0.00000000000E+00 0.  1.
          5    1    4    4  501    0  0.65067055516E+02  0.22438107117E+03 -0.18235044384E+03  0.29639457414E+03  0.41800000000E+01 0. -1.
         -5    1    4    4    0  501 -0.12431790126E+01  0.21149732888E+01 -0.71457205776E+02  0.71621388309E+02  0.41800000000E+01 0. -1.
</event>
<event>
11    1  0.6455215E-009  0.2091176E+03  0.7561462E-02  0.1048257E+00
         22   -1    0    0    0    0  0.00000000000E+00  0.00000000000E+00  0.23223697190E+04  0.23223697190E+04  0.00000000000E+00 0.  1.
         22   -1    0    0    0    0 -0.00000000000E+00 -0.00000000000E+00 -0.20613532530E+04  0.20613532530E+04  0.00000000000E+00 0.  1.
         24    2    1    2    0    0  0.43715077196E+02  0.15842623591E+03 -0.18757259397E+04  0.18846221999E+04  0.80269266212E+02 0.  0.
         25    2    1    2    0    0 -0.60378775637E+02 -0.23547902377E+03 -0.75824711213E+02  0.28371379012E+03  0.12509260845E+03 0.  0.
        -24    2    1    2    0    0  0.16663698442E+02  0.77052787861E+02  0.22125671169E+04  0.22153869820E+04  0.79192310147E+02 0.  0.
        -13    1    3    3    0    0  0.48861446844E+02  0.69959147685E+02 -0.63070326550E+03  0.63644978785E+03  0.00000000000E+00 0.  1.
         14    1    3    3    0    0 -0.51463696481E+01  0.88467088226E+02 -0.12450226742E+04  0.12481724120E+04  0.00000000000E+00 0. -1.
         13    1    5    5    0    0 -0.29114311610E+02  0.10582017911E+02  0.64521412807E+03  0.64595734635E+03  0.00000000000E+00 0. -1.
        -14    1    5    5    0    0  0.45778010051E+02  0.66470769950E+02  0.15673529889E+04  0.15694296356E+04  0.00000000000E+00 0.  1.
          5    1    4    4  501    0 -0.79765220924E+02 -0.20223409648E+03 -0.23609976719E+02  0.21871447974E+03  0.41800000000E+01 0. -1.
         -5    1    4    4    0  501  0.19386445286E+02 -0.33244927295E+02 -0.52214734495E+02  0.64999310381E+02  0.41800000000E+01 0. -1.
</event>
<event>
11    1  0.6455215E-009  0.1694756E+03  0.7561462E-02  0.1078489E+00
         22   -1    0    0    0    0  0.00000000000E+00  0.00000000000E+00  0.12459182421E+04  0.12459182421E+04  0.00000000000E+00 0. -1.
         22   -1    0    0    0    0 -0.00000000000E+00 -0.00000000000E+00 -0.22280012342E+03  0.22280012342E+03  0.00000000000E+00 0.  1.
         24    2    1    2    0    0 -0.10577899147E+03  0.34901449849E+02 -0.15845507978E+03  0.21031084750E+03  0.81947141681E+02 0.  0.
         25    2    1    2    0    0  0.13713557119E+03 -0.38872687298E+02  0.20979003396E+03  0.28280116872E+03  0.12508953582E+03 0.  0.
        -24    2    1    2    0    0 -0.31356579722E+02  0.39712374496E+01  0.97178316451E+03  0.97560634931E+03  0.80288381355E+02 0.  0.
        -11    1    3    3    0    0 -0.11940885963E+03  0.35670920150E+02 -0.14204463194E+03  0.18896446165E+03  0.00000000000E+00 0.  1.
         12    1    3    3    0    0  0.13629868161E+02 -0.76947030165E+00 -0.16410447839E+02  0.21346385851E+02  0.00000000000E+00 0. -1.
         13    1    5    5    0    0 -0.49517100651E+02  0.63146215275E+01  0.34877344522E+03  0.35232759443E+03  0.00000000000E+00 0. -1.
        -14    1    5    5    0    0  0.18160520929E+02 -0.23433840778E+01  0.62300971928E+03  0.62327875488E+03  0.00000000000E+00 0.  1.
          5    1    4    4  501    0  0.11035917718E+02 -0.50267555307E+02  0.21657639619E+02  0.55992359749E+02  0.41800000000E+01 0.  1.
         -5    1    4    4    0  501  0.12609965347E+03  0.11394868008E+02  0.18813239435E+03  0.22680880897E+03  0.41800000000E+01 0.  1.
</event>
<event>
11    1  0.6455215E-009  0.1389201E+03  0.7561462E-02  0.1108770E+00
         22   -1    0    0    0    0  0.00000000000E+00  0.00000000000E+00  0.48465994940E+03  0.48465994940E+03  0.00000000000E+00 0. -1.
         22   -1    0    0    0    0 -0.00000000000E+00 -0.00000000000E+00 -0.41839550551E+03  0.41839550551E+03  0.00000000000E+00 0. -1.
         24    2    1    2    0    0 -0.28206752122E+02  0.11463874814E+02 -0.30957111212E+03  0.32114736716E+03  0.79839317924E+02 0.  0.
         25    2    1    2    0    0 -0.27355850951E+02  0.16509419001E+02 -0.53998810527E+02  0.13994595871E+03  0.12509235118E+03 0.  0.
        -24    2    1    2    0    0  0.55562603073E+02 -0.27973293816E+02  0.42983436654E+03  0.44196212904E+03  0.81873272961E+02 0.  0.
        -11    1    3    3    0    0  0.11484789576E+02  0.30278608733E+02 -0.64522969220E+02  0.72193546079E+02  0.00000000000E+00 0.  1.
         12    1    3    3    0    0 -0.39691541698E+02 -0.18814733919E+02 -0.24504814290E+03  0.24895382109E+03  0.00000000000E+00 0. -1.
         11    1    5    5    0    0  0.62806582167E+02 -0.49291988299E+02  0.31667588740E+03  0.32658534036E+03  0.00000000000E+00 0. -1.
        -12    1    5    5    0    0 -0.72439790949E+01  0.21318694483E+02  0.11315847913E+03  0.11537678868E+03  0.00000000000E+00 0.  1.
          5    1    4    4  501    0 -0.61310747117E+02  0.21387057112E+02 -0.75169065925E+02  0.99419690183E+02  0.41800000000E+01 0.  1.
         -5    1    4    4    0  501  0.33954896166E+02 -0.48776381108E+01  0.21170255398E+02  0.40526268528E+02  0.41800000000E+01 0.  1.
</event>
<event>
11    1  0.6455215E-009  0.1650829E+03  0.7561462E-02  0.1082392E+00
         22   -1    0    0    0    0  0.00000000000E+00  0.00000000000E+00  0.62934384516E+03  0.62934384516E+03  0.00000000000E+00 0. -1.
         22   -1    0    0    0    0 -0.00000000000E+00 -0.00000000000E+00 -0.44100492690E+03  0.44100492690E+03  0.00000000000E+00 0.  1.
         24    2    1    2    0    0 -0.61464712241E+02  0.70989830670E+02 -0.34823474003E+03  0.36933685973E+03  0.79528704743E+02 0.  0.
         25    2    1    2    0    0 -0.74869237422E+01  0.24611069033E+02 -0.17758852577E+02  0.12890367241E+03  0.12505607210E+03 0.  0.
        -24    2    1    2    0    0  0.68951635983E+02 -0.95600899704E+02  0.55433251087E+03  0.57210823993E+03  0.78290775054E+02 0.  0.
        -11    1    3    3    0    0 -0.60025424159E+02  0.87471454827E+02 -0.31087828574E+03  0.32848076884E+03  0.00000000000E+00 0.  1.
         12    1    3    3    0    0 -0.14392880818E+01 -0.16481624157E+02 -0.37356454296E+02  0.40856090888E+02  0.00000000000E+00 0. -1.
         11    1    5    5    0    0  0.53365656387E+02 -0.93449413317E+02  0.32742902935E+03  0.34465991266E+03  0.00000000000E+00 0. -1.
        -12    1    5    5    0    0  0.15585979596E+02 -0.21514863872E+01  0.22690348152E+03  0.22744832727E+03  0.00000000000E+00 0.  1.
          5    1    4    4  501    0  0.32954736706E+02  0.12598591330E+02  0.42394035011E+02  0.55312437836E+02  0.41800000000E+01 0.  1.
         -5    1    4    4    0  501 -0.40441660448E+02  0.12012477704E+02 -0.60152887588E+02  0.73591234570E+02  0.41800000000E+01 0.  1.
</event>
<event>
11    1  0.6455215E-009  0.1878059E+03  0.7561462E-02  0.1063498E+00
         22   -1    0    0    0    0  0.00000000000E+00  0.00000000000E+00  0.11715630258E+04  0.11715630258E+04  0.00000000000E+00 0.  1.
         22   -1    0    0    0    0 -0.00000000000E+00 -0.00000000000E+00 -0.92040656303E+02  0.92040656303E+02  0.00000000000E+00 0.  1.
        -24    2    1    2    0    0  0.45336539432E+02  0.68489929167E+02 -0.40337234602E+01  0.11529920894E+03  0.80816857477E+02 0.  0.
         25    2    1    2    0    0  0.96614478009E+02 -0.10406564299E+03  0.37233665900E+03  0.41766706430E+03  0.12508866275E+03 0.  0.
         24    2    1    2    0    0 -0.14195101744E+03  0.35575713827E+02  0.71121943394E+03  0.73063740885E+03  0.81130864838E+02 0.  0.
        -11    1    5    5    0    0 -0.61777191238E+02  0.57299708875E+02  0.35666384819E+03  0.36648162110E+03  0.00000000000E+00 0.  1.
         12    1    5    5    0    0 -0.80173826202E+02 -0.21723995047E+02  0.35455558575E+03  0.36415578775E+03  0.00000000000E+00 0. -1.
         11    1    3    3    0    0 -0.17988315494E+02  0.40160494379E+02  0.84583527571E+01  0.44810585072E+02  0.00000000000E+00 0. -1.
        -12    1    3    3    0    0  0.63324854925E+02  0.28329434788E+02 -0.12492076217E+02  0.70488623869E+02  0.00000000000E+00 0.  1.
          5    1    4    4  501    0  0.48737968334E+01 -0.70265542431E+02  0.25650167382E+03  0.26602928677E+03  0.41800000000E+01 0.  1.
         -5    1    4    4    0  501  0.91740681175E+02 -0.33800100563E+02  0.11583498519E+03  0.15163777753E+03  0.41800000000E+01 0.  1.
</event>
<event>
11    1  0.6455215E-009  0.2809986E+03  0.7561462E-02  0.1008570E+00
         22   -1    0    0    0    0  0.00000000000E+00  0.00000000000E+00  0.77978725591E+03  0.77978725591E+03  0.00000000000E+00 0.  1.
         22   -1    0    0    0    0 -0.00000000000E+00 -0.00000000000E+00 -0.12014978003E+04  0.12014978003E+04  0.00000000000E+00 0. -1.
         24    2    1    2    0    0  0.24522661396E+03 -0.61001867916E+02 -0.52608223428E+03  0.58918387030E+03  0.80732866370E+02 0.  0.
         25    2    1    2    0    0 -0.23530494192E+03  0.88522317713E+02 -0.61056874954E+03  0.67204628816E+03  0.12508956425E+03 0.  0.
        -24    2    1    2    0    0 -0.99216720387E+01 -0.27520449797E+02  0.71494043944E+03  0.72005489775E+03  0.80519619342E+02 0.  0.
        -11    1    3    3    0    0  0.18649780324E+02 -0.30915030765E+02 -0.58876496416E+02  0.69065152310E+02  0.00000000000E+00 0.  1.
         12    1    3    3    0    0  0.22657683364E+03 -0.30086837151E+02 -0.46720573786E+03  0.52011871799E+03  0.00000000000E+00 0. -1.
         11    1    5    5    0    0  0.27891030037E+02 -0.27221758708E+02  0.20218548844E+03  0.20590751671E+03  0.00000000000E+00 0. -1.
        -12    1    5    5    0    0 -0.37812702076E+02 -0.29869108980E+00  0.51275495100E+03  0.51414738104E+03  0.00000000000E+00 0.  1.
          5    1    4    4  501    0 -0.22425903929E+03  0.56423271693E+02 -0.42988664959E+03  0.48815541193E+03  0.41800000000E+01 0. -1.
         -5    1    4    4    0  501 -0.11045902627E+02  0.32099046020E+02 -0.18068209995E+03  0.18389087623E+03  0.41800000000E+01 0. -1.
</event>
<event>
11    1  0.6455215E-009  0.1685653E+03  0.7561462E-02  0.1079287E+00
         22   -1    0    0    0    0  0.00000000000E+00  0.00000000000E+00  0.26512035684E+04  0.26512035684E+04  0.00000000000E+00 0. -1.
         22   -1    0    0    0    0 -0.00000000000E+00 -0.00000000000E+00 -0.33846156032E+03  0.33846156032E+03  0.00000000000E+00 0. -1.
        -24    2    1    2    0    0 -0.94847467550E+02  0.52192265925E+02 -0.25265811367E+03  0.28729196194E+03  0.83549232606E+02 0.  0.
         25    2    1    2    0    0  0.14102764448E+03 -0.59705229512E+02  0.76865830104E+02  0.21215478053E+03  0.12509110330E+03 0.  0.
         24    2    1    2    0    0 -0.46180176931E+02  0.75129635862E+01  0.24885342917E+04  0.24902183863E+04  0.78712370174E+02 0.  0.
        -13    1    5    5    0    0 -0.11061718125E+02 -0.34746565705E+02  0.10647260498E+04  0.10653502929E+04  0.00000000000E+00 0.  1.
         14    1    5    5    0    0 -0.35118458806E+02  0.42259529291E+02  0.14238082418E+04  0.14248680934E+04  0.00000000000E+00 0. -1.
         11    1    3    3    0    0 -0.72792796464E+02  0.57268135009E+02 -0.24724306700E+03  0.26402190190E+03  0.00000000000E+00 0. -1.
        -12    1    3    3    0    0 -0.22054671087E+02 -0.50758690835E+01 -0.54150466679E+01  0.23270060037E+02  0.00000000000E+00 0.  1.
          5    1    4    4  501    0  0.75048311710E+02  0.34447291526E+02  0.30946195329E+02  0.88283658677E+02  0.41800000000E+01 0.  1.
         -5    1    4    4    0  501  0.65979332772E+02 -0.94152521038E+02  0.45919634775E+02  0.12387112185E+03  0.41800000000E+01 0.  1.
</event>
<event>
11    1  0.6455215E-009  0.1698639E+03  0.7561462E-02  0.1078150E+00
         22   -1    0    0    0    0  0.00000000000E+00  0.00000000000E+00  0.21391009908E+04  0.21391009908E+04  0.00000000000E+00 0.  1.
         22   -1    0    0    0    0 -0.00000000000E+00 -0.00000000000E+00 -0.14644949464E+03  0.14644949464E+03  0.00000000000E+00 0.  1.
        -24    2    1    2    0    0  0.69873517428E+02 -0.93638204827E+02 -0.94256108254E+02  0.17023468749E+03  0.80282084177E+02 0.  0.
         25    2    1    2    0    0 -0.90739821120E+02  0.43107959673E+02  0.49315525016E+03  0.51859442610E+03  0.12508423839E+03 0.  0.
         24    2    1    2    0    0  0.20866303692E+02  0.50530245154E+02  0.15937523542E+04  0.15967213718E+04  0.80522446092E+02 0.  0.
        -11    1    5    5    0    0 -0.20209523051E+02  0.45382711382E+02  0.11408116196E+04  0.11418928001E+04  0.00000000000E+00 0.  1.
         12    1    5    5    0    0  0.41075826743E+02  0.51475337719E+01  0.45294073456E+03  0.45482857174E+03  0.00000000000E+00 0. -1.
         11    1    3    3    0    0  0.11072834417E+02  0.42022261806E+01 -0.43902435981E+02  0.45471862200E+02  0.00000000000E+00 0. -1.
        -12    1    3    3    0    0  0.58800683010E+02 -0.97840431008E+02 -0.50353672273E+02  0.12476282529E+03  0.00000000000E+00 0.  1.
          5    1    4    4  501    0 -0.16041147193E+02 -0.41856459249E+02  0.10445470914E+03  0.11374330857E+03  0.41800000000E+01 0. -1.
         -5    1    4    4    0  501 -0.74698673927E+02  0.84964418922E+02  0.38870054103E+03  0.40485111753E+03  0.41800000000E+01 0. -1.
</event>
<event>
11    1  0.6455215E-009  0.2205148E+03  0.7561462E-02  0.1040895E+00
         22   -1    0    0    0    0  0.00000000000E+00  0.00000000000E+00  0.22105742009E+03  0.22105742009E+03  0.00000000000E+00 0. -1.
         22   -1    0    0    0    0 -0.00000000000E+00 -0.00000000000E+00 -0.86279149079E+03  0.86279149079E+03  0.00000000000E+00 0. -1.
         24    2    1    2    0    0  0.44327203120E+02  0.16683717302E+02 -0.61288133180E+03  0.62007636291E+03  0.81412048316E+02 0.  0.
         25    2    1    2    0    0 -0.14814972510E+03 -0.15199152062E+03 -0.94824131030E+02  0.26398618034E+03  0.12508926492E+03 0.  0.
        -24    2    1    2    0    0  0.10382252198E+03  0.13530780332E+03  0.65971392123E+02  0.19978636763E+03  0.80467697900E+02 0.  0.
        -13    1    3    3    0    0 -0.79262886525E+01  0.65764066564E+01 -0.84935074576E+01  0.13349713302E+02  0.00000000000E+00 0.  1.
         14    1    3    3    0    0  0.52253491773E+02  0.10107310645E+02 -0.60438782434E+03  0.60672664961E+03  0.00000000000E+00 0. -1.
         13    1    5    5    0    0  0.94741276573E+02  0.87671262306E+02  0.15860881479E+02  0.13005278652E+03  0.00000000000E+00 0. -1.
        -14    1    5    5    0    0  0.90812454061E+01  0.47636541012E+02  0.50110510645E+02  0.69733581112E+02  0.00000000000E+00 0.  1.
          5    1    4    4  501    0 -0.81439108441E+02 -0.19251870402E+01 -0.39598259397E+02  0.90672648997E+02  0.41800000000E+01 0. -1.
         -5    1    4    4    0  501 -0.66710616659E+02 -0.15006633358E+03 -0.55225871633E+02  0.17331353134E+03  0.41800000000E+01 0. -1.
</event>
<event>
11    1  0.6455215E-009  0.1544736E+03  0.7561462E-02  0.1092393E+00
         22   -1    0    0    0    0  0.00000000000E+00  0.00000000000E+00  0.41851429032E+03  0.41851429032E+03  0.00000000000E+00 0. -1.
         22   -1    0    0    0    0 -0.00000000000E+00 -0.00000000000E+00 -0.15081482978E+03  0.15081482978E+03  0.00000000000E+00 0. -1.
        -24    2    1    2    0    0  0.22039000043E+02  0.73158133558E+02 -0.20719623766E+02  0.11705930741E+03  0.86230786931E+02 0.  0.
         25    2    1    2    0    0 -0.13458749540E+02 -0.12124923997E+03  0.27805403529E+02  0.17693229926E+03  0.12509748967E+03 0.  0.
         24    2    1    2    0    0 -0.85802505031E+01  0.48091106415E+02  0.26061368078E+03  0.27533751343E+03  0.74194881747E+02 0.  0.
        -13    1    5    5    0    0  0.11949789923E+02 -0.35113412763E+01  0.44551481249E+01  0.13227824522E+02  0.00000000000E+00 0.  1.
         14    1    5    5    0    0 -0.20530040426E+02  0.51602447691E+02  0.25615853266E+03  0.26210968891E+03  0.00000000000E+00 0. -1.
         11    1    3    3    0    0  0.18676680646E+01  0.32425074302E+02 -0.52403555788E+02  0.61652301553E+02  0.00000000000E+00 0. -1.
        -12    1    3    3    0    0  0.20171331979E+02  0.40733059256E+02  0.31683932022E+02  0.55407005862E+02  0.00000000000E+00 0.  1.
          5    1    4    4  501    0 -0.41907725735E+02 -0.58181145251E+02  0.66213657421E+02  0.97688402423E+02  0.41800000000E+01 0. -1.
         -5    1    4    4    0  501  0.28448976194E+02 -0.63068094722E+02 -0.38408253892E+02  0.79243896834E+02  0.41800000000E+01 0. -1.
</event>
<event>
11    1  0.6455215E-009  0.1323652E+03  0.7561462E-02  0.1116397E+00
         22   -1    0    0    0    0  0.00000000000E+00  0.00000000000E+00  0.44011564086E+03  0.44011564086E+03  0.00000000000E+00 0. -1.
         22   -1    0    0    0    0 -0.00000000000E+00 -0.00000000000E+00 -0.80424709326E+03  0.80424709326E+03  0.00000000000E+00 0. -1.
         24    2    1    2    0    0 -0.33096793407E+02 -0.26451915752E+02 -0.73867368326E+03  0.74415807881E+03  0.79607376166E+02 0.  0.
         25    2    1    2    0    0  0.54392997888E+02  0.50475235347E+02  0.34632126344E+02  0.14950849952E+03  0.12508820748E+03 0.  0.
        -24    2    1    2    0    0 -0.21296204481E+02 -0.24023319595E+02  0.33991010451E+03  0.35069615579E+03  0.80114083236E+02 0.  0.
        -13    1    3    3    0    0  0.20794570428E+02 -0.59262675030E+01 -0.77065715975E+02  0.80041610332E+02  0.00000000000E+00 0.  1.
         14    1    3    3    0    0 -0.53891363834E+02 -0.20525648249E+02 -0.66160796728E+03  0.66411646848E+03  0.00000000000E+00 0. -1.
         11    1    5    5    0    0 -0.45904679977E+02 -0.33562363995E+02  0.27106288442E+03  0.27696346191E+03  0.00000000000E+00 0. -1.
        -12    1    5    5    0    0  0.24608475496E+02  0.95390443996E+01  0.68847220087E+02  0.73732693888E+02  0.00000000000E+00 0.  1.
          5    1    4    4  501    0 -0.17113359060E+02  0.53043389428E+02  0.51361593287E+02  0.75907535102E+02  0.41800000000E+01 0.  1.
         -5    1    4    4    0  501  0.71506356947E+02 -0.25681540816E+01 -0.16729466942E+02  0.73600964419E+02  0.41800000000E+01 0.  1.
</event>
<event>
11    1  0.6455215E-009  0.1326577E+03  0.7561462E-02  0.1116046E+00
         22   -1    0    0    0    0  0.00000000000E+00  0.00000000000E+00  0.31818498535E+03  0.31818498535E+03  0.00000000000E+00 0. -1.
         22   -1    0    0    0    0 -0.00000000000E+00 -0.00000000000E+00 -0.23069025721E+04  0.23069025721E+04  0.00000000000E+00 0. -1.
         24    2    1    2    0    0  0.30169625288E+02 -0.11725979197E+02 -0.22282286445E+04  0.22298580550E+04  0.78843822245E+02 0.  0.
         25    2    1    2    0    0 -0.13798181502E+02 -0.31719044700E+02 -0.86735640494E+01  0.13007879996E+03  0.12509506735E+03 0.  0.
        -24    2    1    2    0    0 -0.16371443785E+02  0.43445023897E+02  0.24818462178E+03  0.26515070254E+03  0.80955508156E+02 0.  0.
        -11    1    3    3    0    0  0.56046174705E+02 -0.13968479255E+02 -0.17152676049E+04  0.17162398575E+04  0.00000000000E+00 0.  1.
         12    1    3    3    0    0 -0.25876549417E+02  0.22425000582E+01 -0.51296103963E+03  0.51361819749E+03  0.00000000000E+00 0. -1.
         13    1    5    5    0    0  0.30300811023E+02  0.10458911889E+02  0.54687655555E+02  0.63389807198E+02  0.00000000000E+00 0. -1.
        -14    1    5    5    0    0 -0.46672254808E+02  0.32986112008E+02  0.19349696622E+03  0.20176089535E+03  0.00000000000E+00 0.  1.
          5    1    4    4  501    0 -0.35051488778E+02 -0.12037214501E+02 -0.60202284567E+02  0.70818704208E+02  0.41800000000E+01 0.  1.
         -5    1    4    4    0  501  0.21253307276E+02 -0.19681830199E+02  0.51528720518E+02  0.59260095750E+02  0.41800000000E+01 0.  1.
</event>
<event>
11    1  0.6455215E-009  0.1480617E+03  0.7561462E-02  0.1098876E+00
         22   -1    0    0    0    0  0.00000000000E+00  0.00000000000E+00  0.31456610612E+04  0.31456610612E+04  0.00000000000E+00 0. -1.
         22   -1    0    0    0    0 -0.00000000000E+00 -0.00000000000E+00 -0.39416582994E+03  0.39416582994E+03  0.00000000000E+00 0. -1.
        -24    2    1    2    0    0  0.16544712791E+02  0.78040412222E+02 -0.34414416679E+03  0.36181028399E+03  0.78150115830E+02 0.  0.
         25    2    1    2    0    0 -0.80661928122E+02 -0.52263822444E+02  0.11429979924E+03  0.19480600800E+03  0.12508830026E+03 0.  0.
         24    2    1    2    0    0  0.64117215332E+02 -0.25776589779E+02  0.29813395988E+04  0.29832105992E+04  0.79901349284E+02 0.  0.
        -13    1    5    5    0    0  0.39701286016E+02 -0.13738765971E+02  0.51191888533E+03  0.51363984557E+03  0.00000000000E+00 0.  1.
         14    1    5    5    0    0  0.24415929316E+02 -0.12037823808E+02  0.24694207135E+04  0.24695707536E+04  0.00000000000E+00 0. -1.
         11    1    3    3    0    0 -0.95096949179E+01  0.84285383237E+02 -0.26663137431E+03  0.27979769458E+03  0.00000000000E+00 0. -1.
        -12    1    3    3    0    0  0.26054407708E+02 -0.62449710145E+01 -0.77512792475E+02  0.82012589407E+02  0.00000000000E+00 0.  1.
          5    1    4    4  501    0  0.20849967778E+02 -0.82028014762E+01  0.73229910554E+02  0.76694845382E+02  0.41800000000E+01 0.  1.
         -5    1    4    4    0  501 -0.10151189590E+03 -0.44061020968E+02  0.41069888685E+02  0.11811116262E+03  0.41800000000E+01 0.  1.
</event>
<event>
11    1  0.6455215E-009  0.1299117E+03  0.7561462E-02  0.1119378E+00
         22   -1    0    0    0    0  0.00000000000E+00  0.00000000000E+00  0.32730408201E+03  0.32730408201E+03  0.00000000000E+00 0. -1.
         22   -1    0    0    0    0 -0.00000000000E+00 -0.00000000000E+00 -0.29246151832E+03  0.29246151832E+03  0.00000000000E+00 0.  1.
        -24    2    1    2    0    0  0.19285528171E+02 -0.26753137915E+02 -0.13627928166E+03  0.16202872380E+03  0.81201002088E+02 0.  0.
         25    2    1    2    0    0 -0.29550586756E+02  0.27887598206E+02 -0.10609739310E+03  0.16898326326E+03  0.12509089146E+03 0.  0.
         24    2    1    2    0    0  0.10265058585E+02 -0.11344602907E+01  0.27721923845E+03  0.28875361328E+03  0.80134166156E+02 0.  0.
        -13    1    5    5    0    0  0.59014546665E+01  0.28108837953E+02  0.37588579613E+02  0.47305763450E+02  0.00000000000E+00 0.  1.
         14    1    5    5    0    0  0.43636039182E+01 -0.29243298244E+02  0.23963065884E+03  0.24144784983E+03  0.00000000000E+00 0. -1.
         11    1    3    3    0    0 -0.28823468499E+02 -0.20303772628E+02 -0.81730015354E+02  0.89010285524E+02  0.00000000000E+00 0. -1.
        -12    1    3    3    0    0  0.48108996670E+02 -0.64493652866E+01 -0.54549266307E+02  0.73018438273E+02  0.00000000000E+00 0.  1.
          5    1    4    4  501    0  0.38953843679E+02  0.46099272930E+02 -0.50256848193E+02  0.78649654114E+02  0.41800000000E+01 0.  1.
         -5    1    4    4    0  501 -0.68504430435E+02 -0.18211674724E+02 -0.55840544909E+02  0.90333609145E+02  0.41800000000E+01 0.  1.
</event>
<event>
11    1  0.6455215E-009  0.1503705E+03  0.7561462E-02  0.1096501E+00
         22   -1    0    0    0    0  0.00000000000E+00  0.00000000000E+00  0.31845941930E+03  0.31845941930E+03  0.00000000000E+00 0. -1.
         22   -1    0    0    0    0 -0.00000000000E+00 -0.00000000000E+00 -0.12410247755E+03  0.12410247755E+03  0.00000000000E+00 0. -1.
         24    2    1    2    0    0 -0.82558912893E+02 -0.63531240826E+02  0.31726298210E+02  0.13396271366E+03  0.78020881782E+02 0.  0.
         25    2    1    2    0    0  0.21407220984E+01  0.73459460196E+02  0.69740675579E+02  0.16093412756E+03  0.12504061980E+03 0.  0.
        -24    2    1    2    0    0  0.80418190795E+02 -0.99282193697E+01  0.92889967959E+02  0.14766505563E+03  0.81306626767E+02 0.  0.
        -11    1    3    3    0    0 -0.50509408649E+02 -0.51656162877E+01 -0.14619053619E+02  0.52835600521E+02  0.00000000000E+00 0.  1.
         12    1    3    3    0    0 -0.32049504244E+02 -0.58365624538E+02  0.46345351829E+02  0.81127113139E+02  0.00000000000E+00 0. -1.
         11    1    5    5    0    0  0.93222240749E+02  0.25084631969E+01  0.89964081515E+02  0.12957706016E+03  0.00000000000E+00 0. -1.
        -12    1    5    5    0    0 -0.12804049954E+02 -0.12436682567E+02  0.29258864442E+01  0.18087995466E+02  0.00000000000E+00 0.  1.
          5    1    4    4  501    0 -0.12516212730E+02 -0.23134812179E+02  0.56226404008E+02  0.62215400210E+02  0.41800000000E+01 0.  1.
         -5    1    4    4    0  501  0.14656934829E+02  0.96594272374E+02  0.13514271571E+02  0.98718727353E+02  0.41800000000E+01 0.  1.
</event>
<event>
11    1  0.6455215E-009  0.1411448E+03  0.7561462E-02  0.1106287E+00
         22   -1    0    0    0    0  0.00000000000E+00  0.00000000000E+00  0.13759119952E+03  0.13759119952E+03  0.00000000000E+00 0. -1.
         22   -1    0    0    0    0 -0.00000000000E+00 -0.00000000000E+00 -0.86386390990E+03  0.86386390990E+03  0.00000000000E+00 0.  1.
        -24    2    1    2    0    0 -0.49977915953E+01  0.58579789429E+02 -0.45618094443E+03  0.46697394382E+03  0.80666228976E+02 0.  0.
         25    2    1    2    0    0 -0.21475708281E+00 -0.83376342304E+02 -0.37294232686E+03  0.40210111546E+03  0.12509063640E+03 0.  0.
         24    2    1    2    0    0  0.52125486781E+01  0.24796552875E+02  0.10285056091E+03  0.13238005013E+03  0.79398993034E+02 0.  0.
        -11    1    5    5    0    0  0.39865311206E+02  0.16266236415E+02  0.34118814528E+02  0.54935662274E+02  0.00000000000E+00 0.  1.
         12    1    5    5    0    0 -0.34652762528E+02  0.85303164600E+01  0.68731746385E+02  0.77444387859E+02  0.00000000000E+00 0. -1.
         11    1    3    3    0    0 -0.14284852938E+02  0.34179873181E+02 -0.64175186950E+02  0.74099766357E+02  0.00000000000E+00 0. -1.
        -12    1    3    3    0    0  0.92870613424E+01  0.24399916248E+02 -0.39200575748E+03  0.39287417747E+03  0.00000000000E+00 0.  1.
          5    1    4    4  501    0 -0.14212617361E+02 -0.58759000476E+02 -0.36811739247E+03  0.37307171652E+03  0.41800000000E+01 0. -1.
         -5    1    4    4    0  501  0.13997860278E+02 -0.24617341828E+02 -0.48249343903E+01  0.29029398942E+02  0.41800000000E+01 0. -1.
</event>
<event>
11    1  0.6455215E-009  0.2266626E+03  0.7561462E-02  0.1037122E+00
         22   -1    0    0    0    0  0.00000000000E+00  0.00000000000E+00  0.26380217569E+03  0.26380217569E+03  0.00000000000E+00 0. -1.
         22   -1    0    0    0    0 -0.00000000000E+00 -0.00000000000E+00 -0.18907704958E+04  0.18907704958E+04  0.00000000000E+00 0. -1.
         24    2    1    2    0    0  0.10694220602E+03 -0.18571881768E+03 -0.11904612515E+04  0.12122848290E+04  0.80674657999E+02 0.  0.
         25    2    1    2    0    0 -0.69865596717E+01  0.16436969697E+03 -0.65596921859E+03  0.68775671369E+03  0.12508985647E+03 0.  0.
        -24    2    1    2    0    0 -0.99955646344E+02  0.21349120710E+02  0.21946215007E+03  0.25453112879E+03  0.78584629640E+02 0.  0.
        -11    1    3    3    0    0  0.94246510741E+01 -0.20630665994E+02 -0.40241277828E+02  0.46193169067E+02  0.00000000000E+00 0.  1.
         12    1    3    3    0    0  0.97517554942E+02 -0.16508815169E+03 -0.11502199737E+04  0.11660916599E+04  0.00000000000E+00 0. -1.
         13    1    5    5    0    0 -0.66703633882E+02  0.48015382379E+02  0.11196626284E+03  0.13889310901E+03  0.00000000000E+00 0. -1.
        -14    1    5    5    0    0 -0.33252012462E+02 -0.26666261669E+02  0.10749588723E+03  0.11563801977E+03  0.00000000000E+00 0.  1.
          5    1    4    4  501    0  0.32596300112E+02  0.10293206459E+03 -0.53933987274E+03  0.55005681473E+03  0.41800000000E+01 0.  1.
         -5    1    4    4    0  501 -0.39582859784E+02  0.61437632382E+02 -0.11662934585E+03  0.13769989897E+03  0.41800000000E+01 0.  1.
</event>
<event>
11    1  0.6455215E-009  0.1359505E+03  0.7561462E-02  0.1112167E+00
         22   -1    0    0    0    0  0.00000000000E+00  0.00000000000E+00  0.35857041116E+02  0.35857041116E+02  0.00000000000E+00 0.  1.
         22   -1    0    0    0    0 -0.00000000000E+00 -0.00000000000E+00 -0.10550197155E+04  0.10550197155E+04  0.00000000000E+00 0. -1.
        -24    2    1    2    0    0  0.23079262196E+02  0.28929722819E+02 -0.55192037978E+03  0.55911242967E+03  0.81369663803E+02 0.  0.
         25    2    1    2    0    0 -0.45010232756E+02 -0.37554950328E+02 -0.15111798088E+03  0.20475009228E+03  0.12509860430E+03 0.  0.
         24    2    1    2    0    0  0.21930970560E+02  0.86252275092E+01 -0.31612431374E+03  0.32701423468E+03  0.80301718086E+02 0.  0.
        -11    1    5    5    0    0  0.59388996988E+01  0.33353691637E+02 -0.57648355161E+02  0.66866076064E+02  0.00000000000E+00 0.  1.
         12    1    5    5    0    0  0.15992070861E+02 -0.24728464128E+02 -0.25847595858E+03  0.26014815862E+03  0.00000000000E+00 0. -1.
         11    1    3    3    0    0 -0.52978337023E+01 -0.83392263432E+01 -0.40027933655E+03  0.40040124501E+03  0.00000000000E+00 0. -1.
        -12    1    3    3    0    0  0.28377095899E+02  0.37268949163E+02 -0.15164104323E+03  0.15871118466E+03  0.00000000000E+00 0.  1.
          5    1    4    4  501    0  0.34882713896E+02  0.13848614378E+02 -0.70947500144E+02  0.80371686716E+02  0.41800000000E+01 0.  1.
         -5    1    4    4    0  501 -0.79892946652E+02 -0.51403564706E+02 -0.80170480733E+02  0.12437840556E+03  0.41800000000E+01 0.  1.
</event>
<event>
11    1  0.6455215E-009  0.1531417E+03  0.7561462E-02  0.1093711E+00
         22   -1    0    0    0    0  0.00000000000E+00  0.00000000000E+00  0.67163971901E+03  0.67163971901E+03  0.00000000000E+00 0.  1.
         22   -1    0    0    0    0 -0.00000000000E+00 -0.00000000000E+00 -0.23981519739E+03  0.23981519739E+03  0.00000000000E+00 0.  1.
        -24    2    1    2    0    0 -0.13799892721E+02 -0.22651461075E+02 -0.19882852318E+03  0.21687327073E+03  0.82448215244E+02 0.  0.
         25    2    1    2    0    0  0.77426200410E+02 -0.40776767166E+02  0.23120751728E+03  0.27704741511E+03  0.12506315573E+03 0.  0.
         24    2    1    2    0    0 -0.63626307689E+02  0.63428228241E+02  0.39944552752E+03  0.41753423056E+03  0.81894182097E+02 0.  0.
        -11    1    5    5    0    0 -0.61743281595E+02  0.81308630465E+02  0.35975850530E+03  0.37396458168E+03  0.00000000000E+00 0.  1.
         12    1    5    5    0    0 -0.18830260937E+01 -0.17880402224E+02  0.39687022220E+02  0.43569648882E+02  0.00000000000E+00 0. -1.
         13    1    3    3    0    0  0.31973886655E+02 -0.20142683007E+02 -0.62422273534E+02  0.72969838561E+02  0.00000000000E+00 0. -1.
        -14    1    3    3    0    0 -0.45773779376E+02 -0.25087780685E+01 -0.13640624965E+03  0.14390343216E+03  0.00000000000E+00 0.  1.
          5    1    4    4  501    0 -0.18211194835E+01 -0.67587699220E+02  0.12030847321E+03  0.13806887661E+03  0.41800000000E+01 0. -1.
         -5    1    4    4    0  501  0.79247319893E+02  0.26810932054E+02  0.11089904407E+03  0.13897853850E+03  0.41800000000E+01 0. -1.
</event>
<event>
11    1  0.8442082E-009  0.1485957E+03  0.7561462E-02  0.1098322E+00
         22   -1    0    0    0    0  0.00000000000E+00  0.00000000000E+00  0.17562335262E+04  0.17562335262E+04  0.00000000000E+00 0.  1.
         22   -1    0    0    0    0 -0.00000000000E+00 -0.00000000000E+00 -0.43203869924E+03  0.43203869924E+03  0.00000000000E+00 0.  1.
        -24    2    1    2    0    0  0.49660550961E+02 -0.50879948281E+02 -0.30577332518E+03  0.32399052775E+03  0.80109900901E+02 0.  0.
         25    2    1    2    0    0  0.17835356744E+02  0.55142741202E+01 -0.80576682685E+02  0.14996346757E+03  0.12509169695E+03 0.  0.
         24    2    1    2    0    0 -0.67495907705E+02  0.45365674161E+02  0.17105448348E+04  0.17143182301E+04  0.79433117730E+02 0.  0.
        -13    1    5    5    0    0 -0.34199254876E+02  0.27794412407E+02  0.14849250377E+04  0.14855788387E+04  0.00000000000E+00 0.  1.
         14    1    5    5    0    0 -0.33296652829E+02  0.17571261754E+02  0.22561979708E+03  0.22873939137E+03  0.00000000000E+00 0. -1.
         13    1    3    3    0    0  0.15506712160E+02  0.20475199425E+02 -0.49230892460E+02  0.55528125179E+02  0.00000000000E+00 0. -1.
        -14    1    3    3    0    0  0.34153838800E+02 -0.71355147707E+02 -0.25654243272E+03  0.26846240257E+03  0.00000000000E+00 0.  1.
          5    1    4    4  501    0  0.46564554786E+02 -0.46996556695E+02 -0.38241404723E+02  0.76529808171E+02  0.41800000000E+01 0. -1.
         -5    1    4    4    0  501 -0.28729198042E+02  0.52510830815E+02 -0.42335277962E+02  0.73433659401E+02  0.41800000000E+01 0. -1.
</event>
<event>
11    1  0.6455215E-009  0.1297046E+03  0.7561462E-02  0.1119632E+00
         22   -1    0    0    0    0  0.00000000000E+00  0.00000000000E+00  0.67210169223E+03  0.67210169223E+03  0.00000000000E+00 0. -1.
         22   -1    0    0    0    0 -0.00000000000E+00 -0.00000000000E+00 -0.27714413943E+03  0.27714413943E+03  0.00000000000E+00 0.  1.
         24    2    1    2    0    0 -0.34526137974E+02 -0.23853965003E+02 -0.25074792457E+03  0.26658622647E+03  0.80203669577E+02 0.  0.
         25    2    1    2    0    0 -0.83779902732E+01  0.32587520847E+02  0.37020618905E+03  0.39221502696E+03  0.12509143745E+03 0.  0.
        -24    2    1    2    0    0  0.42904128247E+02 -0.87335558440E+01  0.27549928832E+03  0.29044457824E+03  0.80877413070E+02 0.  0.
        -13    1    3    3    0    0 -0.58687130751E+02 -0.40490512251E+01 -0.17605639582E+03  0.18562442899E+03  0.00000000000E+00 0.  1.
         14    1    3    3    0    0  0.24160992777E+02 -0.19804913778E+02 -0.74691528757E+02  0.80961797471E+02  0.00000000000E+00 0. -1.
         13    1    5    5    0    0  0.84862051756E+01 -0.74473060404E+01  0.24244397848E+03  0.24270673816E+03  0.00000000000E+00 0. -1.
        -14    1    5    5    0    0  0.34417923072E+02 -0.12862498036E+01  0.33055309844E+02  0.47737840085E+02  0.00000000000E+00 0.  1.
          5    1    4    4  501    0  0.31057810451E+02  0.54000727442E+01  0.17599094620E+02  0.36344860807E+02  0.41800000000E+01 0. -1.
         -5    1    4    4    0  501 -0.39435800724E+02  0.27187448103E+02  0.35260709443E+03  0.35587016615E+03  0.41800000000E+01 0. -1.
</event>
<event>
11    1  0.6455215E-009  0.1782713E+03  0.7561462E-02  0.1071050E+00
         22   -1    0    0    0    0  0.00000000000E+00  0.00000000000E+00  0.15043151993E+04  0.15043151993E+04  0.00000000000E+00 0. -1.
         22   -1    0    0    0    0 -0.00000000000E+00 -0.00000000000E+00 -0.13716428749E+04  0.13716428749E+04  0.00000000000E+00 0.  1.
         24    2    1    2    0    0 -0.83350501263E+02  0.95723880908E+02 -0.13030358629E+04  0.13115509193E+04  0.78440974733E+02 0.  0.
         25    2    1    2    0    0  0.73533364823E+02 -0.10803270008E+03  0.66738932950E+02  0.19281981913E+03  0.12508867834E+03 0.  0.
        -24    2    1    2    0    0  0.98171364396E+01  0.12308819168E+02  0.13689692544E+04  0.13715873358E+04  0.83229304262E+02 0.  0.
        -11    1    3    3    0    0 -0.76376395776E+02  0.10800811599E+03 -0.10805736012E+04  0.10886406269E+04  0.00000000000E+00 0.  1.
         12    1    3    3    0    0 -0.69741054869E+01 -0.12284235085E+02 -0.22246226170E+03  0.22291029240E+03  0.00000000000E+00 0. -1.
         13    1    5    5    0    0 -0.44890804931E+01 -0.31277815034E+02  0.85229179676E+03  0.85287734193E+03  0.00000000000E+00 0. -1.
        -14    1    5    5    0    0  0.14306216933E+02  0.43586634203E+02  0.51667745761E+03  0.51870999386E+03  0.00000000000E+00 0.  1.
          5    1    4    4  501    0 -0.16574853011E+02 -0.85247524048E+02  0.22551796041E+02  0.89821612173E+02  0.41800000000E+01 0. -1.
         -5    1    4    4    0  501  0.90108217834E+02 -0.22785176029E+02  0.44187136909E+02  0.10299820696E+03  0.41800000000E+01 0. -1.
</event>
<event>
11    1  0.6455215E-009  0.1864431E+03  0.7561462E-02  0.1064547E+00
         22   -1    0    0    0    0  0.00000000000E+00  0.00000000000E+00  0.49557819444E+03  0.49557819444E+03  0.00000000000E+00 0. -1.
         22   -1    0    0    0    0 -0.00000000000E+00 -0.00000000000E+00 -0.13664301537E+04  0.13664301537E+04  0.00000000000E+00 0.  1.
        -24    2    1    2    0    0 -0.13395854050E+03 -0.32934689776E+02 -0.13042759358E+04  0.13139558343E+04  0.79464667828E+02 0.  0.
         25    2    1    2    0    0  0.15898952655E+03 -0.13251700864E+02  0.16095921358E+03  0.25886020981E+03  0.12508981837E+03 0.  0.
         24    2    1    2    0    0 -0.25030986045E+02  0.46186390640E+02  0.27246476292E+03  0.28919230407E+03  0.81458018362E+02 0.  0.
        -13    1    5    5    0    0 -0.28845690703E+02  0.14522921915E+01  0.26610019863E+02  0.39271824275E+02  0.00000000000E+00 0.  1.
         14    1    5    5    0    0  0.38147046580E+01  0.44734098449E+02  0.24585474306E+03  0.24992047980E+03  0.00000000000E+00 0. -1.
         13    1    3    3    0    0 -0.25207690450E+02 -0.33466126380E+02 -0.58574064774E+03  0.58723718862E+03  0.00000000000E+00 0. -1.
        -14    1    3    3    0    0 -0.10875085005E+03  0.53143660409E+00 -0.71853528804E+03  0.72671864567E+03  0.00000000000E+00 0.  1.
          5    1    4    4  501    0  0.97844145650E+02  0.20158016691E+01  0.16885224525E+03  0.19520782111E+03  0.41800000000E+01 0. -1.
         -5    1    4    4    0  501  0.61145380897E+02 -0.15267502533E+02 -0.78930316728E+01  0.63652388703E+02  0.41800000000E+01 0. -1.
</event>
<event>
11    1  0.9672763E-009  0.1571703E+03  0.7561462E-02  0.1089769E+00
         22   -1    0    0    0    0  0.00000000000E+00  0.00000000000E+00  0.26747833787E+03  0.26747833787E+03  0.00000000000E+00 0. -1.
         22   -1    0    0    0    0 -0.00000000000E+00 -0.00000000000E+00 -0.47495549265E+03  0.47495549265E+03  0.00000000000E+00 0.  1.
        -24    2    1    2    0    0  0.40402655989E+02  0.62155041222E+01 -0.25270965123E+03  0.26839336586E+03  0.80633888114E+02 0.  0.
         25    2    1    2    0    0 -0.13186515303E+03 -0.15099636145E+02 -0.15511055080E+03  0.23942364068E+03  0.12509188284E+03 0.  0.
         24    2    1    2    0    0  0.91462497038E+02  0.88841320233E+01  0.20034304725E+03  0.23461682397E+03  0.80395281834E+02 0.  0.
        -11    1    5    5    0    0  0.21742317722E+02 -0.18150591059E+02  0.98737146620E+01  0.29994375755E+02  0.00000000000E+00 0.  1.
         12    1    5    5    0    0  0.69720179316E+02  0.27034723082E+02  0.19046933259E+03  0.20462244822E+03  0.00000000000E+00 0. -1.
         11    1    3    3    0    0 -0.11104371759E+02 -0.16161501207E+02 -0.16583311862E+02  0.25680876654E+02  0.00000000000E+00 0. -1.
        -12    1    3    3    0    0  0.51507027748E+02  0.22377005329E+02 -0.23612633936E+03  0.24271248921E+03  0.00000000000E+00 0.  1.
          5    1    4    4  501    0 -0.12626554664E+03  0.34723366502E+02 -0.12320612245E+03  0.17984971910E+03  0.41800000000E+01 0.  1.
         -5    1    4    4    0  501 -0.55996063854E+01 -0.49823002647E+02 -0.31904428353E+02  0.59573921585E+02  0.41800000000E+01 0.  1.
</event>
<event>
11    1  0.6455215E-009  0.1479171E+03  0.7561462E-02  0.1099026E+00
         22   -1    0    0    0    0  0.00000000000E+00  0.00000000000E+00  0.15193724851E+03  0.15193724851E+03  0.00000000000E+00 0. -1.
         22   -1    0    0    0    0 -0.00000000000E+00 -0.00000000000E+00 -0.38690422062E+03  0.38690422062E+03  0.00000000000E+00 0. -1.
        -24    2    1    2    0    0  0.41364957638E+02  0.22692618374E+02 -0.22911186700E+03  0.24796287319E+03  0.82263747966E+02 0.  0.
         25    2    1    2    0    0  0.38856519142E+02 -0.52818703830E+02 -0.69755706951E+02  0.15752256158E+03  0.12509138339E+03 0.  0.
         24    2    1    2    0    0 -0.80221476780E+02  0.30126085456E+02  0.63900601835E+02  0.13335603437E+03  0.79733798512E+02 0.  0.
        -13    1    5    5    0    0 -0.27085153264E+02 -0.12102158025E+02 -0.11581262277E+02  0.31846403127E+02  0.00000000000E+00 0.  1.
         14    1    5    5    0    0 -0.53136323516E+02  0.42228243480E+02  0.75481864113E+02  0.10150963124E+03  0.00000000000E+00 0. -1.
         11    1    3    3    0    0  0.44084308692E+02 -0.22419369298E+02 -0.12736075993E+03  0.13662656243E+03  0.00000000000E+00 0. -1.
        -12    1    3    3    0    0 -0.27193510533E+01  0.45111987673E+02 -0.10175110707E+03  0.11133631076E+03  0.00000000000E+00 0.  1.
          5    1    4    4  501    0  0.25922090422E+02 -0.93986499901E+02 -0.43532777472E+02  0.10685500480E+03  0.41800000000E+01 0. -1.
         -5    1    4    4    0  501  0.12934428719E+02  0.41167796070E+02 -0.26222929480E+02  0.50667556780E+02  0.41800000000E+01 0. -1.
</event>
<event>
11    1  0.6455215E-009  0.1954197E+03  0.7561462E-02  0.1057811E+00
         22   -1    0    0    0    0  0.00000000000E+00  0.00000000000E+00  0.12657176891E+03  0.12657176891E+03  0.00000000000E+00 0.  1.
         22   -1    0    0    0    0 -0.00000000000E+00 -0.00000000000E+00 -0.13505442298E+04  0.13505442298E+04  0.00000000000E+00 0.  1.
        -24    2    1    2    0    0 -0.15522270854E+03 -0.28720755207E+02 -0.61743352409E+03  0.64225010978E+03  0.79637150916E+02 0.  0.
         25    2    1    2    0    0  0.12059833268E+03  0.88841210459E+02 -0.67888561296E+03  0.70637815682E+03  0.12509079272E+03 0.  0.
         24    2    1    2    0    0  0.34624375859E+02 -0.60120455251E+02  0.72346676145E+02  0.12848773213E+03  0.80384943964E+02 0.  0.
        -13    1    5    5    0    0  0.51000589115E+02 -0.64526547808E+02  0.75016447908E+02  0.11132027182E+03  0.00000000000E+00 0.  1.
         14    1    5    5    0    0 -0.16376213255E+02  0.44060925565E+01 -0.26697717633E+01  0.17167460309E+02  0.00000000000E+00 0. -1.
         13    1    3    3    0    0 -0.22477042425E+02  0.24933378563E+02 -0.12395585969E+03  0.12842097163E+03  0.00000000000E+00 0. -1.
        -14    1    3    3    0    0 -0.13274566611E+03 -0.53654133770E+02 -0.49347766440E+03  0.51382913815E+03  0.00000000000E+00 0.  1.
          5    1    4    4  501    0  0.60851677041E+02  0.11385548642E+03 -0.41553373179E+03  0.43514566876E+03  0.41800000000E+01 0.  1.
         -5    1    4    4    0  501  0.59746655640E+02 -0.25014275958E+02 -0.26335188117E+03  0.27123248805E+03  0.41800000000E+01 0.  1.
</event>
<event>
11    1  0.6455215E-009  0.1588473E+03  0.7561462E-02  0.1088166E+00
         22   -1    0    0    0    0  0.00000000000E+00  0.00000000000E+00  0.53485889077E+03  0.53485889077E+03  0.00000000000E+00 0.  1.
         22   -1    0    0    0    0 -0.00000000000E+00 -0.00000000000E+00 -0.30424580715E+03  0.30424580715E+03  0.00000000000E+00 0.  1.
         24    2    1    2    0    0 -0.94069533810E+02  0.45279201482E+02 -0.23086816747E+03  0.26536374189E+03  0.78857602563E+02 0.  0.
         25    2    1    2    0    0  0.35744365078E+02 -0.60073585337E+02  0.52088992077E+02  0.15247180989E+03  0.12509154418E+03 0.  0.
        -24    2    1    2    0    0  0.58325168732E+02  0.14794383854E+02  0.40939225902E+03  0.42126914614E+03  0.79025139326E+02 0.  0.
        -13    1    3    3    0    0 -0.57314138482E+02  0.60836753866E+02 -0.19310603795E+03  0.21041854240E+03  0.00000000000E+00 0.  1.
         14    1    3    3    0    0 -0.36755395328E+02 -0.15557552383E+02 -0.37762129519E+02  0.54945199497E+02  0.00000000000E+00 0. -1.
         11    1    5    5    0    0 -0.34681523529E+01 -0.19083516379E+02  0.32521004796E+02  0.37865874228E+02  0.00000000000E+00 0. -1.
        -12    1    5    5    0    0  0.61793321085E+02  0.33877900233E+02  0.37687125422E+03  0.38340327191E+03  0.00000000000E+00 0.  1.
          5    1    4    4  501    0  0.28154090930E+02 -0.98713725843E+02  0.29520459858E+02  0.10689238727E+03  0.41800000000E+01 0.  1.
         -5    1    4    4    0  501  0.75902741480E+01  0.38640140507E+02  0.22568532219E+02  0.45579422622E+02  0.41800000000E+01 0.  1.
</event>
<event>
11    1  0.6455215E-009  0.1691483E+03  0.7561462E-02  0.1078775E+00
         22   -1    0    0    0    0  0.00000000000E+00  0.00000000000E+00  0.80786826034E+03  0.80786826034E+03  0.00000000000E+00 0.  1.
         22   -1    0    0    0    0 -0.00000000000E+00 -0.00000000000E+00 -0.16483526295E+04  0.16483526295E+04  0.00000000000E+00 0.  1.
        -24    2    1    2    0    0  0.62985403033E+02 -0.94936858003E+02 -0.15001217040E+04  0.15066425470E+04  0.81403129666E+02 0.  0.
         25    2    1    2    0    0  0.29234856705E+01  0.13549209442E+03 -0.80384036603E+02  0.20118241348E+03  0.12508443442E+03 0.  0.
         24    2    1    2    0    0 -0.65908888703E+02 -0.40555236416E+02  0.74002137141E+03  0.74839592942E+03  0.80474394724E+02 0.  0.
        -11    1    5    5    0    0 -0.64815278481E+02 -0.62279272976E+02  0.59916961348E+03  0.60587453642E+03  0.00000000000E+00 0.  1.
         12    1    5    5    0    0 -0.10936102219E+01  0.21724036561E+02  0.14085175794E+03  0.14252139300E+03  0.00000000000E+00 0. -1.
         13    1    3    3    0    0  0.20441289288E+02  0.49480013017E+01 -0.53867986486E+03  0.53909027614E+03  0.00000000000E+00 0. -1.
        -14    1    3    3    0    0  0.42544113745E+02 -0.99884859305E+02 -0.96144183914E+03  0.96755227082E+03  0.00000000000E+00 0.  1.
          5    1    4    4  501    0  0.37488911639E+02  0.42175467266E+02  0.19766719193E+02  0.59936500754E+02  0.41800000000E+01 0.  1.
         -5    1    4    4    0  501 -0.34565425969E+02  0.93316627153E+02 -0.10015075580E+03  0.14124591273E+03  0.41800000000E+01 0.  1.
</event>
<event>
11    1  0.8326025E-009  0.1629869E+03  0.7561462E-02  0.1084301E+00
         22   -1    0    0    0    0  0.00000000000E+00  0.00000000000E+00  0.45837852093E+03  0.45837852093E+03  0.00000000000E+00 0.  1.
         22   -1    0    0    0    0 -0.00000000000E+00 -0.00000000000E+00 -0.35435261766E+03  0.35435261766E+03  0.00000000000E+00 0.  1.
        -24    2    1    2    0    0  0.16967272131E+02 -0.49080781700E+02 -0.25011137367E+03  0.26756168291E+03  0.79603664895E+02 0.  0.
         25    2    1    2    0    0  0.83658979365E+02  0.77871460513E+02  0.24413390480E+01  0.16944111918E+03  0.12506615666E+03 0.  0.
         24    2    1    2    0    0 -0.10062625150E+03 -0.28790678813E+02  0.35169593790E+03  0.37572833651E+03  0.80791116122E+02 0.  0.
        -11    1    5    5    0    0 -0.11423523466E+03 -0.31037960623E+02  0.31800624481E+03  0.33932435158E+03  0.00000000000E+00 0.  1.
         12    1    5    5    0    0  0.13608983162E+02  0.22472818101E+01  0.33689693087E+02  0.36403984926E+02  0.00000000000E+00 0. -1.
         13    1    3    3    0    0  0.16554751111E+02 -0.95489664250E+01 -0.56567508973E+01  0.19930915053E+02  0.00000000000E+00 0. -1.
        -14    1    3    3    0    0  0.41252101997E+00 -0.39531815275E+02 -0.24445462278E+03  0.24763076786E+03  0.00000000000E+00 0.  1.
          5    1    4    4  501    0  0.15216478934E+02  0.29051929464E+02  0.59278805387E+02  0.67874921767E+02  0.41800000000E+01 0. -1.
         -5    1    4    4    0  501  0.68442500431E+02  0.48819531049E+02 -0.56837466339E+02  0.10156619741E+03  0.41800000000E+01 0. -1.
</event>
<event>
11    1  0.6455215E-009  0.3106660E+03  0.7561462E-02  0.9957755E-01
         22   -1    0    0    0    0  0.00000000000E+00  0.00000000000E+00  0.59689249961E+03  0.59689249961E+03  0.00000000000E+00 0. -1.
         22   -1    0    0    0    0 -0.00000000000E+00 -0.00000000000E+00 -0.13630274562E+04  0.13630274562E+04  0.00000000000E+00 0.  1.
         24    2    1    2    0    0 -0.74313534220E+02 -0.25118392271E+01 -0.11545240688E+04  0.11596822453E+04  0.80051695195E+02 0.  0.
         25    2    1    2    0    0  0.30224240438E+03  0.14337859746E+03  0.53051875116E+02  0.36106816978E+03  0.12509128091E+03 0.  0.
        -24    2    1    2    0    0 -0.22792887016E+03 -0.14086675824E+03  0.33533723709E+03  0.43916954073E+03  0.92864468421E+02 0.  0.
        -13    1    3    3    0    0 -0.61612884572E+02  0.13901583205E+02 -0.10915646606E+04  0.10933905111E+04  0.00000000000E+00 0.  1.
         14    1    3    3    0    0 -0.12700649648E+02 -0.16413422432E+02 -0.62959408231E+02  0.66291734192E+02  0.00000000000E+00 0. -1.
         11    1    5    5    0    0 -0.15281895631E+03 -0.64590719567E+02  0.25941117042E+03  0.30792815688E+03  0.00000000000E+00 0. -1.
        -12    1    5    5    0    0 -0.75109913851E+02 -0.76276038670E+02  0.75926066670E+02  0.13124138385E+03  0.00000000000E+00 0.  1.
          5    1    4    4  501    0  0.92751789431E+02  0.90096766808E+02  0.64506059365E+02  0.14456426227E+03  0.41800000000E+01 0.  1.
         -5    1    4    4    0  501  0.20949061495E+03  0.53281830656E+02 -0.11454184249E+02  0.21650390751E+03  0.41800000000E+01 0.  1.
</event>
<event>
11    1  0.6455215E-009  0.1477717E+03  0.7561462E-02  0.1099178E+00
         22   -1    0    0    0    0  0.00000000000E+00  0.00000000000E+00  0.21922507760E+03  0.21922507760E+03  0.00000000000E+00 0.  1.
         22   -1    0    0    0    0 -0.00000000000E+00 -0.00000000000E+00 -0.41181758125E+03  0.41181758125E+03  0.00000000000E+00 0.  1.
        -24    2    1    2    0    0  0.31736829351E+02  0.75494997560E+02 -0.32609194097E+03  0.34682746798E+03  0.85127067316E+02 0.  0.
         25    2    1    2    0    0 -0.50245436099E+02 -0.35555780339E+02  0.23655944015E+02  0.14140697075E+03  0.12509000889E+03 0.  0.
         24    2    1    2    0    0  0.18508606748E+02 -0.39939217221E+02  0.10984349330E+03  0.14280822012E+03  0.79943011686E+02 0.  0.
        -13    1    5    5    0    0  0.48315387650E+02 -0.21385885364E+02  0.46496073751E+02  0.70381941227E+02  0.00000000000E+00 0.  1.
         14    1    5    5    0    0 -0.29806780903E+02 -0.18553331857E+02  0.63347419547E+02  0.72426278891E+02  0.00000000000E+00 0. -1.
         11    1    3    3    0    0  0.64549311398E+01  0.70181078022E+02 -0.12033107929E+03  0.13945113298E+03  0.00000000000E+00 0. -1.
        -12    1    3    3    0    0  0.25281898212E+02  0.53139195386E+01 -0.20576086168E+03  0.20737633500E+03  0.00000000000E+00 0.  1.
          5    1    4    4  501    0 -0.27266435790E+02 -0.32773746779E+02 -0.48972789392E+02  0.65064456499E+02  0.41800000000E+01 0. -1.
         -5    1    4    4    0  501 -0.22979000309E+02 -0.27820335597E+01  0.72628733407E+02  0.76342514252E+02  0.41800000000E+01 0. -1.
</event>
<event>
11    1  0.6455215E-009  0.1384777E+03  0.7561462E-02  0.1109270E+00
         22   -1    0    0    0    0  0.00000000000E+00  0.00000000000E+00  0.10300597202E+04  0.10300597202E+04  0.00000000000E+00 0. -1.
         22   -1    0    0    0    0 -0.00000000000E+00 -0.00000000000E+00 -0.13146615193E+03  0.13146615193E+03  0.00000000000E+00 0. -1.
        -24    2    1    2    0    0 -0.74894740467E+01  0.44174947063E+02 -0.11590400757E+02  0.94195497198E+02  0.82042282593E+02 0.  0.
         25    2    1    2    0    0 -0.48465871450E+02 -0.63317475871E+02 -0.33342230648E+01  0.14837753840E+03  0.12508690344E+03 0.  0.
         24    2    1    2    0    0  0.55955345497E+02  0.19142528808E+02  0.91351819207E+03  0.91895283650E+03  0.80382780356E+02 0.  0.
        -13    1    5    5    0    0 -0.13974163630E+02 -0.75459627904E+00  0.39314302418E+02  0.41730816423E+02  0.00000000000E+00 0.  1.
         14    1    5    5    0    0  0.69929509127E+02  0.19897125087E+02  0.87420388965E+03  0.87722202008E+03  0.00000000000E+00 0. -1.
         11    1    3    3    0    0 -0.19460099259E+02  0.60120288752E+02 -0.27275695516E+02  0.68826652895E+02  0.00000000000E+00 0. -1.
        -12    1    3    3    0    0  0.11970625212E+02 -0.15945341689E+02  0.15685294759E+02  0.25368844303E+02  0.00000000000E+00 0.  1.
          5    1    4    4  501    0  0.31320225265E+02 -0.57484144539E+02  0.12349416427E+02  0.66748512119E+02  0.41800000000E+01 0.  1.
         -5    1    4    4    0  501 -0.79786096715E+02 -0.58333313321E+01 -0.15683639492E+02  0.81629026278E+02  0.41800000000E+01 0.  1.
</event>
<event>
11    1  0.6455215E-009  0.1468869E+03  0.7561462E-02  0.1100103E+00
         22   -1    0    0    0    0  0.00000000000E+00  0.00000000000E+00  0.78747026101E+03  0.78747026101E+03  0.00000000000E+00 0. -1.
         22   -1    0    0    0    0 -0.00000000000E+00 -0.00000000000E+00 -0.35762824434E+03  0.35762824434E+03  0.00000000000E+00 0. -1.
        -24    2    1    2    0    0  0.76922952982E+02  0.18249206938E+02 -0.29773878587E+03  0.31889151384E+03  0.82421106146E+02 0.  0.
         25    2    1    2    0    0 -0.50894628841E+02 -0.31587600649E+02  0.55611207172E+02  0.14942455726E+03  0.12508817766E+03 0.  0.
         24    2    1    2    0    0 -0.26028324141E+02  0.13338393711E+02  0.67196959536E+03  0.67678243424E+03  0.75072896585E+02 0.  0.
        -13    1    5    5    0    0  0.11795932114E+02 -0.24059778148E+02  0.26505935261E+03  0.26641035518E+03  0.00000000000E+00 0.  1.
         14    1    5    5    0    0 -0.37824256255E+02  0.37398171859E+02  0.40691024276E+03  0.41037207907E+03  0.00000000000E+00 0. -1.
         13    1    3    3    0    0  0.70334810952E+02 -0.86787436102E+01 -0.27193831480E+03  0.28102091253E+03  0.00000000000E+00 0. -1.
        -14    1    3    3    0    0  0.65881420295E+01  0.26927950548E+02 -0.25800471067E+02  0.37870601307E+02  0.00000000000E+00 0.  1.
          5    1    4    4  501    0 -0.37119587898E+02  0.34204178833E+02  0.63933137325E+02  0.81564134910E+02  0.41800000000E+01 0. -1.
         -5    1    4    4    0  501 -0.13775040943E+02 -0.65791779482E+02 -0.83219301527E+01  0.67860422352E+02  0.41800000000E+01 0. -1.
</event>
<event>
11    1  0.6455215E-009  0.3375135E+03  0.7561462E-02  0.9854563E-01
         22   -1    0    0    0    0  0.00000000000E+00  0.00000000000E+00  0.21329629392E+03  0.21329629392E+03  0.00000000000E+00 0.  1.
         22   -1    0    0    0    0 -0.00000000000E+00 -0.00000000000E+00 -0.15255309958E+04  0.15255309958E+04  0.00000000000E+00 0.  1.
         24    2    1    2    0    0 -0.10372214732E+03 -0.38172261429E+02 -0.13864158648E+04  0.13932578517E+04  0.82480819630E+02 0.  0.
         25    2    1    2    0    0 -0.12053758160E+01  0.16509671326E+02 -0.74022618387E+02  0.14629285843E+03  0.12509288635E+03 0.  0.
        -24    2    1    2    0    0  0.10492752314E+03  0.21662590103E+02  0.14820378138E+03  0.19927657957E+03  0.79169068616E+02 0.  0.
        -13    1    3    3    0    0 -0.10291269087E+03 -0.57905347348E+01 -0.93019131214E+03  0.93588483768E+03  0.00000000000E+00 0.  1.
         14    1    3    3    0    0 -0.80945645208E+00 -0.32381726694E+02 -0.45622455271E+03  0.45737301400E+03  0.00000000000E+00 0. -1.
         13    1    5    5    0    0  0.56146902189E+02  0.21571300068E+01  0.18205650163E+02  0.59064147612E+02  0.00000000000E+00 0. -1.
        -14    1    5    5    0    0  0.48780620949E+02  0.19505460097E+02  0.12999813122E+03  0.14021243195E+03  0.00000000000E+00 0.  1.
          5    1    4    4  501    0  0.65946429734E+00 -0.54523931780E+02 -0.37303361915E+02  0.66198997274E+02  0.41800000000E+01 0.  1.
         -5    1    4    4    0  501 -0.18648401134E+01  0.71033603106E+02 -0.36719256472E+02  0.80093861155E+02  0.41800000000E+01 0.  1.
</event>
<event>
11    1  0.6455215E-009  0.1412725E+03  0.7561462E-02  0.1106146E+00
         22   -1    0    0    0    0  0.00000000000E+00  0.00000000000E+00  0.51428364522E+03  0.51428364522E+03  0.00000000000E+00 0. -1.
         22   -1    0    0    0    0 -0.00000000000E+00 -0.00000000000E+00 -0.70912454353E+03  0.70912454353E+03  0.00000000000E+00 0. -1.
        -24    2    1    2    0    0  0.46310225959E+02  0.13867030931E+01 -0.55227772361E+03  0.55997149167E+03  0.80067643336E+02 0.  0.
         25    2    1    2    0    0 -0.83159904118E+01  0.53358072128E+02 -0.11619134482E+03  0.17905415629E+03  0.12507486844E+03 0.  0.
         24    2    1    2    0    0 -0.37994235547E+02 -0.54744775221E+02  0.47362817013E+03  0.48438254079E+03  0.76565331149E+02 0.  0.
        -11    1    5    5    0    0 -0.27478229413E+02 -0.31293477965E+01  0.47140091920E+02  0.54653766343E+02  0.00000000000E+00 0.  1.
         12    1    5    5    0    0 -0.10516006134E+02 -0.51615427425E+02  0.42648807821E+03  0.42972877444E+03  0.00000000000E+00 0. -1.
         13    1    3    3    0    0  0.31141813637E+02 -0.16656907724E+02 -0.51263391112E+03  0.51384899724E+03  0.00000000000E+00 0. -1.
        -14    1    3    3    0    0  0.15168412322E+02  0.18043610817E+02 -0.39643812494E+02  0.46122494433E+02  0.00000000000E+00 0.  1.
          5    1    4    4  501    0  0.57363904134E+02  0.36436019649E+02 -0.62948731078E+02  0.92726566688E+02  0.41800000000E+01 0. -1.
         -5    1    4    4    0  501 -0.65679894546E+02  0.16922052480E+02 -0.53242613745E+02  0.86327589600E+02  0.41800000000E+01 0. -1.
</event>
<event>
11    1  0.6455215E-009  0.1421704E+03  0.7561462E-02  0.1105159E+00
         22   -1    0    0    0    0  0.00000000000E+00  0.00000000000E+00  0.34992362837E+03  0.34992362837E+03  0.00000000000E+00 0. -1.
         22   -1    0    0    0    0 -0.00000000000E+00 -0.00000000000E+00 -0.52437425738E+03  0.52437425738E+03  0.00000000000E+00 0. -1.
         24    2    1    2    0    0  0.26900019603E+02  0.47538073390E+02 -0.33791778759E+03  0.35070509728E+03  0.76303044601E+02 0.  0.
         25    2    1    2    0    0 -0.78172643820E+02 -0.27989385204E+01 -0.13912655972E+03  0.20279276700E+03  0.12509960203E+03 0.  0.
        -24    2    1    2    0    0  0.51272624217E+02 -0.44739134869E+02  0.30259371831E+03  0.32080002147E+03  0.81970868198E+02 0.  0.
        -11    1    3    3    0    0 -0.38383426515E+01 -0.17743614918E+02 -0.36429476970E+02  0.40702279260E+02  0.00000000000E+00 0.  1.
         12    1    3    3    0    0  0.30738362255E+02  0.65281688308E+02 -0.30148831062E+03  0.31000281802E+03  0.00000000000E+00 0. -1.
         13    1    5    5    0    0  0.56340805174E+02 -0.44194669016E+01  0.23694822575E+03  0.24359449851E+03  0.00000000000E+00 0. -1.
        -14    1    5    5    0    0 -0.50681809568E+01 -0.40319667968E+02  0.65645492551E+02  0.77205522959E+02  0.00000000000E+00 0.  1.
          5    1    4    4  501    0 -0.53403836318E+02  0.59222335902E+02 -0.65306924741E+02  0.10315872053E+03  0.41800000000E+01 0. -1.
         -5    1    4    4    0  501 -0.24768807502E+02 -0.62021274423E+02 -0.73819634978E+02  0.99634046462E+02  0.41800000000E+01 0. -1.
</event>
<event>
11    1  0.1125350E-008  0.1719751E+03  0.7561462E-02  0.1076325E+00
         22   -1    0    0    0    0  0.00000000000E+00  0.00000000000E+00  0.72498465652E+03  0.72498465652E+03  0.00000000000E+00 0.  1.
         22   -1    0    0    0    0 -0.00000000000E+00 -0.00000000000E+00 -0.20760147874E+04  0.20760147874E+04  0.00000000000E+00 0. -1.
         24    2    1    2    0    0  0.11633029826E+02  0.68639173435E+01 -0.18368487562E+04  0.18386641178E+04  0.80560190070E+02 0.  0.
         25    2    1    2    0    0  0.40240536966E+02  0.99488789330E+02 -0.20161081532E+03  0.26042048098E+03  0.12511828819E+03 0.  0.
        -24    2    1    2    0    0 -0.51873566792E+02 -0.10635270667E+03  0.68742944061E+03  0.70191484516E+03  0.78252468875E+02 0.  0.
        -13    1    3    3    0    0 -0.89744034441E+01  0.33028905336E+02 -0.40981699389E+03  0.41124374400E+03  0.00000000000E+00 0.  1.
         14    1    3    3    0    0  0.20607433270E+02 -0.26164987993E+02 -0.14270317623E+04  0.14274203738E+04  0.00000000000E+00 0. -1.
         13    1    5    5    0    0 -0.44690399264E+01 -0.25222247763E+02  0.38659502103E+02  0.46375545311E+02  0.00000000000E+00 0. -1.
        -14    1    5    5    0    0 -0.47404526865E+02 -0.81130458910E+02  0.64876993851E+03  0.65553929985E+03  0.00000000000E+00 0.  1.
          5    1    4    4  501    0  0.28442552939E+02  0.64340584796E+02 -0.21057022312E+03  0.22204950109E+03  0.41800000000E+01 0. -1.
         -5    1    4    4    0  501  0.11797984027E+02  0.35148204534E+02  0.89594078033E+01  0.38370979884E+02  0.41800000000E+01 0. -1.
</event>
<event>
11    1  0.6455215E-009  0.1460023E+03  0.7561462E-02  0.1101035E+00
         22   -1    0    0    0    0  0.00000000000E+00  0.00000000000E+00  0.45723892724E+03  0.45723892724E+03  0.00000000000E+00 0. -1.
         22   -1    0    0    0    0 -0.00000000000E+00 -0.00000000000E+00 -0.79745820968E+03  0.79745820968E+03  0.00000000000E+00 0. -1.
        -24    2    1    2    0    0 -0.73215852338E+02 -0.49630694394E+01 -0.68047456350E+03  0.68904256454E+03  0.79679552535E+02 0.  0.
         25    2    1    2    0    0  0.10364002797E+03 -0.11703057490E+02 -0.46184539197E+02  0.16928815783E+03  0.12508897540E+03 0.  0.
         24    2    1    2    0    0 -0.30424175634E+02  0.16666126929E+02  0.38643982026E+03  0.39636641455E+03  0.81038322094E+02 0.  0.
        -11    1    5    5    0    0 -0.11403712078E+02  0.49039165868E+02  0.20625781540E+03  0.21231384988E+03  0.00000000000E+00 0.  1.
         12    1    5    5    0    0 -0.19020463556E+02 -0.32373038939E+02  0.18018200486E+03  0.18405256467E+03  0.00000000000E+00 0. -1.
         11    1    3    3    0    0 -0.75865566115E+01  0.10558410322E+02 -0.41274615978E+03  0.41295087877E+03  0.00000000000E+00 0. -1.
        -12    1    3    3    0    0 -0.65629295727E+02 -0.15521479762E+02 -0.26772840372E+03  0.27609168577E+03  0.00000000000E+00 0.  1.
          5    1    4    4  501    0  0.62543242619E+02 -0.38390290230E+02 -0.80736157206E+02  0.10918457337E+03  0.41800000000E+01 0.  1.
         -5    1    4    4    0  501  0.41096785353E+02  0.26687232740E+02  0.34551618010E+02  0.60103584458E+02  0.41800000000E+01 0.  1.
</event>
<event>
11    1  0.6455215E-009  0.2927357E+03  0.7561462E-02  0.1003313E+00
         22   -1    0    0    0    0  0.00000000000E+00  0.00000000000E+00  0.29744994462E+04  0.29744994462E+04  0.00000000000E+00 0.  1.
         22   -1    0    0    0    0 -0.00000000000E+00 -0.00000000000E+00 -0.17473084143E+03  0.17473084143E+03  0.00000000000E+00 0. -1.
         24    2    1    2    0    0 -0.81877496871E+02 -0.60967898879E+02 -0.10275093574E+03  0.16386765195E+03  0.76641003215E+02 0.  0.
         25    2    1    2    0    0  0.18414062058E+02 -0.21220430564E+03  0.43160375869E+03  0.49729099655E+03  0.12508711251E+03 0.  0.
        -24    2    1    2    0    0  0.63463434814E+02  0.27317220452E+03  0.24709157818E+04  0.24880716391E+04  0.80156220937E+02 0.  0.
        -11    1    3    3    0    0 -0.36329576481E+02 -0.29866305021E+02  0.24871353456E+00  0.47030800135E+02  0.00000000000E+00 0.  1.
         12    1    3    3    0    0 -0.45547920390E+02 -0.31101593858E+02 -0.10299964927E+03  0.11683685182E+03  0.00000000000E+00 0. -1.
         13    1    5    5    0    0  0.59676384816E+02  0.12625522255E+03  0.97428311425E+03  0.98424043751E+03  0.00000000000E+00 0. -1.
        -14    1    5    5    0    0  0.37870499977E+01  0.14691698197E+03  0.14966326675E+04  0.15038312016E+04  0.00000000000E+00 0.  1.
          5    1    4    4  501    0  0.29186079008E+02 -0.65517796064E+02  0.26705059756E+03  0.27654638466E+03  0.41800000000E+01 0. -1.
         -5    1    4    4    0  501 -0.10772016951E+02 -0.14668650958E+03  0.16455316113E+03  0.22074461190E+03  0.41800000000E+01 0. -1.
</event>
<event>
11    1  0.6455215E-009  0.2349996E+03  0.7561462E-02  0.1032208E+00
         22   -1    0    0    0    0  0.00000000000E+00  0.00000000000E+00  0.18921084246E+04  0.18921084246E+04  0.00000000000E+00 0.  1.
         22   -1    0    0    0    0 -0.00000000000E+00 -0.00000000000E+00 -0.19180394303E+04  0.19180394303E+04  0.00000000000E+00 0. -1.
        -24    2    1    2    0    0  0.38660866936E+02 -0.13584786606E+02 -0.18465916303E+04  0.18486982036E+04  0.78135714853E+02 0.  0.
         25    2    1    2    0    0  0.72628457482E+02  0.17964081966E+03  0.14600090755E+03  0.27296979705E+03  0.12510207101E+03 0.  0.
         24    2    1    2    0    0 -0.11128932442E+03 -0.16605603305E+03  0.16746597171E+04  0.16884798542E+04  0.80741131406E+02 0.  0.
        -11    1    5    5    0    0 -0.68363874787E+02 -0.11238272641E+03  0.13629669850E+04  0.13693000032E+04  0.00000000000E+00 0.  1.
         12    1    5    5    0    0 -0.42925449631E+02 -0.53673306646E+02  0.31169273203E+03  0.31917985098E+03  0.00000000000E+00 0. -1.
         13    1    3    3    0    0  0.46778902314E+02 -0.13649388585E+02 -0.18246870078E+04  0.18253375710E+04  0.00000000000E+00 0. -1.
        -14    1    3    3    0    0 -0.81180353774E+01  0.64601979283E-01 -0.21904622484E+02  0.23360632654E+02  0.00000000000E+00 0.  1.
          5    1    4    4  501    0  0.69548516817E+02  0.54974759624E+02  0.11478517552E+02  0.89489938833E+02  0.41800000000E+01 0. -1.
         -5    1    4    4    0  501  0.30799406654E+01  0.12466606004E+03  0.13452239000E+03  0.18347985822E+03  0.41800000000E+01 0. -1.
</event>
<event>
11    1  0.6455215E-009  0.1478391E+03  0.7561462E-02  0.1099107E+00
         22   -1    0    0    0    0  0.00000000000E+00  0.00000000000E+00  0.15877540976E+04  0.15877540976E+04  0.00000000000E+00 0. -1.
         22   -1    0    0    0    0 -0.00000000000E+00 -0.00000000000E+00 -0.39464066804E+02  0.39464066804E+02  0.00000000000E+00 0. -1.
         24    2    1    2    0    0 -0.16304317810E+02  0.68930041738E+02  0.13220716308E+03  0.17046355699E+03  0.81005610039E+02 0.  0.
         25    2    1    2    0    0  0.33963217317E+02 -0.90667858370E+02  0.31555706849E+03  0.35298738661E+03  0.12509864490E+03 0.  0.
        -24    2    1    2    0    0 -0.17658899507E+02  0.21737816633E+02  0.11005257992E+04  0.11037672208E+04  0.79753831121E+02 0.  0.
        -11    1    3    3    0    0 -0.44105596626E+02  0.15388319390E+02  0.49138861217E+02  0.67799201390E+02  0.00000000000E+00 0.  1.
         12    1    3    3    0    0  0.27801278816E+02  0.53541722347E+02  0.83068301863E+02  0.10266435560E+03  0.00000000000E+00 0. -1.
         13    1    5    5    0    0 -0.36250803039E+02  0.34328673170E+02  0.97297609187E+03  0.97425615414E+03  0.00000000000E+00 0. -1.
        -14    1    5    5    0    0  0.18591903532E+02 -0.12590856537E+02  0.12754970732E+03  0.12951106664E+03  0.00000000000E+00 0.  1.
          5    1    4    4  501    0  0.53013392341E+02 -0.10144309815E+03  0.16539866245E+03  0.20118477047E+03  0.41800000000E+01 0. -1.
         -5    1    4    4    0  501 -0.19050175023E+02  0.10775239775E+02  0.15015840604E+03  0.15180261614E+03  0.41800000000E+01 0. -1.
</event>
<event>
11    1  0.6455215E-009  0.1863200E+03  0.7561462E-02  0.1064642E+00
         22   -1    0    0    0    0  0.00000000000E+00  0.00000000000E+00  0.33852567153E+03  0.33852567153E+03  0.00000000000E+00 0.  1.
         22   -1    0    0    0    0 -0.00000000000E+00 -0.00000000000E+00 -0.10748232319E+04  0.10748232319E+04  0.00000000000E+00 0. -1.
         24    2    1    2    0    0 -0.16464341979E+02 -0.45009494245E+02 -0.84882160819E+03  0.85405214313E+03  0.81301977315E+02 0.  0.
         25    2    1    2    0    0  0.77038538286E+02  0.16388135022E+03 -0.14131663480E+03  0.26154919919E+03  0.12508220894E+03 0.  0.
        -24    2    1    2    0    0 -0.60574196307E+02 -0.11887185598E+03  0.25384068260E+03  0.29774756114E+03  0.80117205522E+02 0.  0.
        -11    1    3    3    0    0 -0.20810225969E+02  0.11990319371E+02 -0.92292707520E+02  0.95366540909E+02  0.00000000000E+00 0.  1.
         12    1    3    3    0    0  0.43458839903E+01 -0.56999813616E+02 -0.75652890067E+03  0.75868560222E+03  0.00000000000E+00 0. -1.
         11    1    5    5    0    0 -0.31023679498E+02 -0.62458475898E+01  0.99499911930E+02  0.10441126269E+03  0.00000000000E+00 0. -1.
        -12    1    5    5    0    0 -0.29550516808E+02 -0.11262600839E+03  0.15434077067E+03  0.19333629846E+03  0.00000000000E+00 0.  1.
          5    1    4    4  501    0 -0.24033727772E+02  0.80638817879E+02 -0.82607511718E+02  0.11799030643E+03  0.41800000000E+01 0.  1.
         -5    1    4    4    0  501  0.10107226606E+03  0.83242532344E+02 -0.58709123084E+02  0.14355889276E+03  0.41800000000E+01 0.  1.
</event>
<event>
11    1  0.6455215E-009  0.1436813E+03  0.7561462E-02  0.1103516E+00
         22   -1    0    0    0    0  0.00000000000E+00  0.00000000000E+00  0.11002538778E+03  0.11002538778E+03  0.00000000000E+00 0. -1.
         22   -1    0    0    0    0 -0.00000000000E+00 -0.00000000000E+00 -0.12145432702E+04  0.12145432702E+04  0.00000000000E+00 0. -1.
         24    2    1    2    0    0  0.36250825514E+02  0.63961813038E+02 -0.98035514193E+03  0.98629318179E+03  0.79201011729E+02 0.  0.
         25    2    1    2    0    0  0.21096966582E+02 -0.63605464898E+02 -0.17613680497E+03  0.22619187690E+03  0.12509138239E+03 0.  0.
        -24    2    1    2    0    0 -0.57347792096E+02 -0.35634813950E+00  0.51974064455E+02  0.11208359931E+03  0.81071163905E+02 0.  0.
        -11    1    3    3    0    0  0.17940150390E+02 -0.17175886382E+02 -0.21302370121E+03  0.21446668121E+03  0.00000000000E+00 0.  1.
         12    1    3    3    0    0  0.18310675124E+02  0.81137699420E+02 -0.76733144071E+03  0.77182650058E+03  0.00000000000E+00 0. -1.
         11    1    5    5    0    0 -0.91225723378E+01  0.21985534903E+02  0.53876472023E+02  0.58900418578E+02  0.00000000000E+00 0. -1.
        -12    1    5    5    0    0 -0.48225219758E+02 -0.22341883043E+02 -0.19024075682E+01  0.53183180736E+02  0.00000000000E+00 0.  1.
          5    1    4    4  501    0  0.52304698336E+02 -0.81473574673E+02 -0.15884214275E+03  0.18606994264E+03  0.41800000000E+01 0. -1.
         -5    1    4    4    0  501 -0.31207731754E+02  0.17868109775E+02 -0.17294662212E+02  0.40121934265E+02  0.41800000000E+01 0. -1.
</event>
<event>
11    1  0.6455215E-009  0.1386225E+03  0.7561462E-02  0.1109106E+00
         22   -1    0    0    0    0  0.00000000000E+00  0.00000000000E+00  0.17011190389E+04  0.17011190389E+04  0.00000000000E+00 0.  1.
         22   -1    0    0    0    0 -0.00000000000E+00 -0.00000000000E+00 -0.61129543913E+03  0.61129543913E+03  0.00000000000E+00 0. -1.
        -24    2    1    2    0    0 -0.14988419299E+02 -0.29730436744E+02 -0.41511928227E+03  0.42479290835E+03  0.83764222041E+02 0.  0.
         25    2    1    2    0    0 -0.44429795046E+02  0.36796641004E+02 -0.16472316333E+03  0.21472971039E+03  0.12508848272E+03 0.  0.
         24    2    1    2    0    0  0.59418214345E+02 -0.70662042602E+01  0.16696660454E+04  0.16728918593E+04  0.84864682591E+02 0.  0.
        -11    1    5    5    0    0  0.70199337005E+02 -0.23793465192E+02  0.15323070563E+04  0.15340987552E+04  0.00000000000E+00 0.  1.
         12    1    5    5    0    0 -0.10781122660E+02  0.16727260932E+02  0.13735898913E+03  0.13879310415E+03  0.00000000000E+00 0. -1.
         11    1    3    3    0    0 -0.23120474387E+02 -0.56687019486E+02 -0.25742142048E+03  0.26460113801E+03  0.00000000000E+00 0. -1.
        -12    1    3    3    0    0  0.81320550881E+01  0.26956582743E+02 -0.15769786179E+03  0.16019177034E+03  0.00000000000E+00 0.  1.
          5    1    4    4  501    0  0.55499409782E+01  0.70421195752E+02 -0.12102320733E+03  0.14019285206E+03  0.41800000000E+01 0. -1.
         -5    1    4    4    0  501 -0.49979736024E+02 -0.33624554748E+02 -0.43699955998E+02  0.74536858327E+02  0.41800000000E+01 0. -1.
</event>
<event>
11    1  0.6455215E-009  0.1355544E+03  0.7561462E-02  0.1112627E+00
         22   -1    0    0    0    0  0.00000000000E+00  0.00000000000E+00  0.22694324645E+04  0.22694324645E+04  0.00000000000E+00 0. -1.
         22   -1    0    0    0    0 -0.00000000000E+00 -0.00000000000E+00 -0.38305090518E+03  0.38305090518E+03  0.00000000000E+00 0.  1.
        -24    2    1    2    0    0 -0.18121161940E+02 -0.46824178018E+02 -0.30145452665E+03  0.31588141584E+03  0.79908429332E+02 0.  0.
         25    2    1    2    0    0  0.54513385786E+02  0.89692491534E+01 -0.96427526017E+01  0.13708664599E+03  0.12509040399E+03 0.  0.
         24    2    1    2    0    0 -0.36392223846E+02  0.37854928865E+02  0.21974788385E+04  0.21995153078E+04  0.78720733770E+02 0.  0.
        -13    1    5    5    0    0  0.10689146580E+02 -0.18155556000E+02  0.57942478762E+03  0.57980769793E+03  0.00000000000E+00 0.  1.
         14    1    5    5    0    0 -0.47081370426E+02  0.56010484864E+02  0.16180540509E+04  0.16197076099E+04  0.00000000000E+00 0. -1.
         13    1    3    3    0    0 -0.13560515801E+02  0.28140156171E+00 -0.32533140209E+01  0.13948147825E+02  0.00000000000E+00 0. -1.
        -14    1    3    3    0    0 -0.45606461388E+01 -0.47105579580E+02 -0.29820121263E+03  0.30193326801E+03  0.00000000000E+00 0.  1.
          5    1    4    4  501    0 -0.12189847404E+02  0.25689627286E+02  0.42065690376E+02  0.50946482083E+02  0.41800000000E+01 0.  1.
         -5    1    4    4    0  501  0.66703233190E+02 -0.16720378133E+02 -0.51708442978E+02  0.86140163908E+02  0.41800000000E+01 0.  1.
</event>
<event>
11    1  0.6455215E-009  0.1513011E+03  0.7561462E-02  0.1095557E+00
         22   -1    0    0    0    0  0.00000000000E+00  0.00000000000E+00  0.21999941691E+04  0.21999941691E+04  0.00000000000E+00 0.  1.
         22   -1    0    0    0    0 -0.00000000000E+00 -0.00000000000E+00 -0.64904739131E+03  0.64904739131E+03  0.00000000000E+00 0. -1.
        -24    2    1    2    0    0  0.22399016444E+02 -0.80134915905E+02 -0.57120489112E+03  0.58289615377E+03  0.81052931787E+02 0.  0.
         25    2    1    2    0    0 -0.62295178531E+02  0.10764966285E+03  0.38710217002E+02  0.18060086988E+03  0.12509617948E+03 0.  0.
         24    2    1    2    0    0  0.39896162087E+02 -0.27514746941E+02  0.20834414519E+04  0.20855445367E+04  0.80118451162E+02 0.  0.
        -11    1    5    5    0    0  0.22012496602E+02  0.19269327166E+01  0.17826563818E+04  0.17827933248E+04  0.00000000000E+00 0.  1.
         12    1    5    5    0    0  0.17883665484E+02 -0.29441679657E+02  0.30078507003E+03  0.30275121196E+03  0.00000000000E+00 0. -1.
         11    1    3    3    0    0 -0.29392747928E+02 -0.36425428212E+02 -0.28191395923E+03  0.28577303207E+03  0.00000000000E+00 0. -1.
        -12    1    3    3    0    0  0.51791764373E+02 -0.43709487693E+02 -0.28929093189E+03  0.29712312170E+03  0.00000000000E+00 0.  1.
          5    1    4    4  501    0 -0.86794868391E+02  0.11840977181E+03  0.43319893091E+02  0.15312840617E+03  0.41800000000E+01 0. -1.
         -5    1    4    4    0  501  0.24499689860E+02 -0.10760108967E+02 -0.46096760893E+01  0.27472463703E+02  0.41800000000E+01 0. -1.
</event>
<event>
11    1  0.6455215E-009  0.1416455E+03  0.7561462E-02  0.1105735E+00
         22   -1    0    0    0    0  0.00000000000E+00  0.00000000000E+00  0.45339106986E+03  0.45339106986E+03  0.00000000000E+00 0.  1.
         22   -1    0    0    0    0 -0.00000000000E+00 -0.00000000000E+00 -0.38983370541E+03  0.38983370541E+03  0.00000000000E+00 0. -1.
         24    2    1    2    0    0 -0.57227818567E+02  0.30380806986E+02 -0.33680990990E+03  0.35268283708E+03  0.82135567890E+02 0.  0.
         25    2    1    2    0    0  0.79577254735E+02  0.32490499709E+02  0.14171870519E+03  0.20765219868E+03  0.12508825755E+03 0.  0.
        -24    2    1    2    0    0 -0.22349436167E+02 -0.62871306695E+02  0.25864856915E+03  0.28288973951E+03  0.93140881963E+02 0.  0.
        -11    1    3    3    0    0  0.16844681252E+02 -0.62648405946E+01 -0.10625261411E+03  0.10776181847E+03  0.00000000000E+00 0.  1.
         12    1    3    3    0    0 -0.74072499820E+02  0.36645647580E+02 -0.23055729578E+03  0.24492101861E+03  0.00000000000E+00 0. -1.
         13    1    5    5    0    0 -0.37068230856E+02  0.11161513341E+02  0.98881473231E+02  0.10618935383E+03  0.00000000000E+00 0. -1.
        -14    1    5    5    0    0  0.14718794689E+02 -0.74032820036E+02  0.15976709592E+03  0.17670038568E+03  0.00000000000E+00 0.  1.
          5    1    4    4  501    0  0.62682348654E+02  0.11730547618E+02  0.16177827017E+03  0.17394356464E+03  0.41800000000E+01 0.  1.
         -5    1    4    4    0  501  0.16894906080E+02  0.20759952091E+02 -0.20059564979E+02  0.33708634048E+02  0.41800000000E+01 0.  1.
</event>
<event>
11    1  0.6455215E-009  0.1836457E+03  0.7561462E-02  0.1066731E+00
         22   -1    0    0    0    0  0.00000000000E+00  0.00000000000E+00  0.26483485592E+02  0.26483485592E+02  0.00000000000E+00 0.  1.
         22   -1    0    0    0    0 -0.00000000000E+00 -0.00000000000E+00 -0.27281921605E+04  0.27281921605E+04  0.00000000000E+00 0.  1.
         24    2    1    2    0    0  0.38475913095E+01  0.35314461361E+02 -0.15636565297E+04  0.15660884291E+04  0.79682555514E+02 0.  0.
         25    2    1    2    0    0 -0.13601783109E+03 -0.31067937775E+02 -0.61815351778E+03  0.64593178755E+03  0.12509210802E+03 0.  0.
        -24    2    1    2    0    0  0.13217023978E+03 -0.42465235858E+01 -0.51989862745E+03  0.54265542949E+03  0.81812756293E+02 0.  0.
        -11    1    3    3    0    0  0.27247272168E+02  0.28538649347E+02 -0.14066448573E+04  0.14071981463E+04  0.00000000000E+00 0.  1.
         12    1    3    3    0    0 -0.23399680858E+02  0.67758120143E+01 -0.15701167239E+03  0.15889028277E+03  0.00000000000E+00 0. -1.
         13    1    5    5    0    0  0.60511123855E+02 -0.16191742367E+02 -0.37888683637E+03  0.38402995119E+03  0.00000000000E+00 0. -1.
        -14    1    5    5    0    0  0.71659115921E+02  0.11945218781E+02 -0.14101179107E+03  0.15862547831E+03  0.00000000000E+00 0.  1.
          5    1    4    4  501    0 -0.26121716232E+02 -0.26348731949E+02 -0.30942080547E+02  0.48492107428E+02  0.41800000000E+01 0.  1.
         -5    1    4    4    0  501 -0.10989611485E+03 -0.47192058260E+01 -0.58721143723E+03  0.59743968012E+03  0.41800000000E+01 0.  1.
</event>
<event>
11    1  0.6455215E-009  0.1271386E+03  0.7561462E-02  0.1122835E+00
         22   -1    0    0    0    0  0.00000000000E+00  0.00000000000E+00  0.11597987929E+04  0.11597987929E+04  0.00000000000E+00 0. -1.
         22   -1    0    0    0    0 -0.00000000000E+00 -0.00000000000E+00 -0.19610183094E+03  0.19610183094E+03  0.00000000000E+00 0.  1.
         24    2    1    2    0    0 -0.50146230860E+01 -0.20095153185E+02 -0.17544732802E+03  0.19454236304E+03  0.81461674906E+02 0.  0.
         25    2    1    2    0    0 -0.86112817303E+01 -0.38590599511E+01  0.46020765587E+03  0.47699865821E+03  0.12509031493E+03 0.  0.
        -24    2    1    2    0    0  0.13625904816E+02  0.23954213137E+02  0.67893663415E+03  0.68435960263E+03  0.81447178655E+02 0.  0.
        -13    1    3    3    0    0  0.14664089763E+02  0.44221910852E+01 -0.15769762081E+03  0.15843967594E+03  0.00000000000E+00 0.  1.
         14    1    3    3    0    0 -0.19678712849E+02 -0.24517344271E+02 -0.17749707216E+02  0.36102687099E+02  0.00000000000E+00 0. -1.
         11    1    5    5    0    0  0.35920803639E+02 -0.51557213197E+01  0.51928773954E+03  0.52055416820E+03  0.00000000000E+00 0. -1.
        -12    1    5    5    0    0 -0.22294898823E+02  0.29109934456E+02  0.15964889461E+03  0.16380543443E+03  0.00000000000E+00 0.  1.
          5    1    4    4  501    0  0.46691742885E+02  0.26978347753E+02  0.29707094258E+03  0.30195457842E+03  0.41800000000E+01 0.  1.
         -5    1    4    4    0  501 -0.55303024616E+02 -0.30837407704E+02  0.16313671329E+03  0.17504407979E+03  0.41800000000E+01 0.  1.
</event>
<event>
11    1  0.6455215E-009  0.1462529E+03  0.7561462E-02  0.1100770E+00
         22   -1    0    0    0    0  0.00000000000E+00  0.00000000000E+00  0.24644718402E+03  0.24644718402E+03  0.00000000000E+00 0. -1.
         22   -1    0    0    0    0 -0.00000000000E+00 -0.00000000000E+00 -0.55398598502E+03  0.55398598502E+03  0.00000000000E+00 0.  1.
         24    2    1    2    0    0 -0.74411400169E+02 -0.94892230594E+01 -0.47755789044E+03  0.48991481208E+03  0.79547988948E+02 0.  0.
         25    2    1    2    0    0  0.87416705777E+02  0.12943475021E+02  0.43649544125E+02  0.15925398675E+03  0.12508931049E+03 0.  0.
        -24    2    1    2    0    0 -0.13005305607E+02 -0.34542519618E+01  0.12636954532E+03  0.15126437022E+03  0.82040099238E+02 0.  0.
        -11    1    3    3    0    0 -0.69829837936E+01 -0.20933452718E+02 -0.27971335731E+03  0.28058249012E+03  0.00000000000E+00 0.  1.
         12    1    3    3    0    0 -0.67428416376E+02  0.11444229658E+02 -0.19784453313E+03  0.20933232196E+03  0.00000000000E+00 0. -1.
         13    1    5    5    0    0  0.14302819598E+02  0.11866720163E+02  0.11716122888E+03  0.11862606480E+03  0.00000000000E+00 0. -1.
        -14    1    5    5    0    0 -0.27308125206E+02 -0.15320972125E+02  0.92083164335E+01  0.32638305419E+02  0.00000000000E+00 0.  1.
          5    1    4    4  501    0  0.11072360487E+03  0.36980003793E+02  0.45744459251E+02  0.12544825750E+03  0.41800000000E+01 0. -1.
         -5    1    4    4    0  501 -0.23306899097E+02 -0.24036528772E+02 -0.20949151259E+01  0.33805729253E+02  0.41800000000E+01 0. -1.
</event>
<event>
11    1  0.6455215E-009  0.2340601E+03  0.7561462E-02  0.1032751E+00
         22   -1    0    0    0    0  0.00000000000E+00  0.00000000000E+00  0.29426535151E+03  0.29426535151E+03  0.00000000000E+00 0.  1.
         22   -1    0    0    0    0 -0.00000000000E+00 -0.00000000000E+00 -0.82993180825E+03  0.82993180825E+03  0.00000000000E+00 0. -1.
        -24    2    1    2    0    0  0.77276257650E+02 -0.18982992591E+03 -0.69757504334E+03  0.73147419478E+03  0.80228023616E+02 0.  0.
         25    2    1    2    0    0 -0.28794082501E+02  0.15566516709E+03 -0.10157035118E-01  0.20176436910E+03  0.12509243424E+03 0.  0.
         24    2    1    2    0    0 -0.48482175149E+02  0.34164758820E+02  0.16191874363E+03  0.19095859588E+03  0.82035076332E+02 0.  0.
        -13    1    5    5    0    0  0.66195408861E+01  0.37082634064E+02  0.10558405983E+03  0.11210233611E+03  0.00000000000E+00 0.  1.
         14    1    5    5    0    0 -0.55101716035E+02 -0.29178752442E+01  0.56334683793E+02  0.78856259764E+02  0.00000000000E+00 0. -1.
         11    1    3    3    0    0  0.53680786681E+02 -0.16688303894E+03 -0.65264247842E+03  0.67577642766E+03  0.00000000000E+00 0. -1.
        -12    1    3    3    0    0  0.23595470968E+02 -0.22946886968E+02 -0.44932564915E+02  0.55697767114E+02  0.00000000000E+00 0.  1.
          5    1    4    4  501    0 -0.17288491250E+02  0.27255104585E+02 -0.53095132062E+02  0.62275983367E+02  0.41800000000E+01 0.  1.
         -5    1    4    4    0  501 -0.11505591250E+02  0.12841006250E+03  0.53084975027E+02  0.13948838574E+03  0.41800000000E+01 0.  1.
</event>
<event>
11    1  0.6455215E-009  0.1659713E+03  0.7561462E-02  0.1081592E+00
         22   -1    0    0    0    0  0.00000000000E+00  0.00000000000E+00  0.24157599048E+03  0.24157599048E+03  0.00000000000E+00 0. -1.
         22   -1    0    0    0    0 -0.00000000000E+00 -0.00000000000E+00 -0.52662727258E+03  0.52662727258E+03  0.00000000000E+00 0.  1.
         24    2    1    2    0    0 -0.41796678621E+02 -0.37896398598E+02 -0.25806854167E+03  0.27642975981E+03  0.81430587243E+02 0.  0.
         25    2    1    2    0    0  0.77470316127E+02  0.13624246661E+03 -0.19372944171E+03  0.27882238383E+03  0.12508863079E+03 0.  0.
        -24    2    1    2    0    0 -0.35673637506E+02 -0.98346068013E+02  0.16674670127E+03  0.21295111942E+03  0.81235210158E+02 0.  0.
        -13    1    3    3    0    0 -0.65010596536E+02 -0.35852995681E+02 -0.17367299636E+03  0.18887595036E+03  0.00000000000E+00 0.  1.
         14    1    3    3    0    0  0.23213917915E+02 -0.20434029176E+01 -0.84395545312E+02  0.87553809449E+02  0.00000000000E+00 0. -1.
         13    1    5    5    0    0 -0.19997368829E+02 -0.11063700909E+03  0.14456091390E+03  0.18313465092E+03  0.00000000000E+00 0. -1.
        -14    1    5    5    0    0 -0.15676268676E+02  0.12290941078E+02  0.22185787373E+02  0.29816468496E+02  0.00000000000E+00 0.  1.
          5    1    4    4  501    0  0.15295675490E+02 -0.24956655054E+01 -0.97573891115E+02  0.98885401665E+02  0.41800000000E+01 0.  1.
         -5    1    4    4    0  501  0.62174640637E+02  0.13873813212E+03 -0.96155550591E+02  0.17993698217E+03  0.41800000000E+01 0.  1.
</event>
<event>
11    1  0.6455215E-009  0.1939273E+03  0.7561462E-02  0.1058903E+00
         22   -1    0    0    0    0  0.00000000000E+00  0.00000000000E+00  0.56226812706E+03  0.56226812706E+03  0.00000000000E+00 0.  1.
         22   -1    0    0    0    0 -0.00000000000E+00 -0.00000000000E+00 -0.48225336544E+03  0.48225336544E+03  0.00000000000E+00 0.  1.
         24    2    1    2    0    0 -0.39607900790E+02 -0.21768308738E+01 -0.41242151700E+03  0.42137781278E+03  0.76773882388E+02 0.  0.
         25    2    1    2    0    0  0.12158706981E+03 -0.11253331574E+03  0.19814018072E+03  0.28697298219E+03  0.12508716399E+03 0.  0.
        -24    2    1    2    0    0 -0.81979169017E+02  0.11471014662E+03  0.29429609790E+03  0.33617069753E+03  0.80756069419E+02 0.  0.
        -11    1    3    3    0    0 -0.58382569457E+02 -0.91441973214E+01 -0.36714345864E+03  0.37186887472E+03  0.00000000000E+00 0.  1.
         12    1    3    3    0    0  0.18774668667E+02  0.69673664476E+01 -0.45278058360E+02  0.49508938058E+02  0.00000000000E+00 0. -1.
         13    1    5    5    0    0 -0.29191328953E+02  0.20919766956E+02  0.19097370501E+02  0.40675298347E+02  0.00000000000E+00 0. -1.
        -14    1    5    5    0    0 -0.52787840064E+02  0.93790379660E+02  0.27519872740E+03  0.29549539918E+03  0.00000000000E+00 0.  1.
          5    1    4    4  501    0  0.57957682482E+02 -0.42430045445E+02  0.17530266431E+03  0.18949379470E+03  0.41800000000E+01 0.  1.
         -5    1    4    4    0  501  0.63629387325E+02 -0.70103270297E+02  0.22837516410E+02  0.97479187489E+02  0.41800000000E+01 0.  1.
</event>
<event>
11    1  0.6455215E-009  0.1662964E+03  0.7561462E-02  0.1081300E+00
         22   -1    0    0    0    0  0.00000000000E+00  0.00000000000E+00  0.95747195878E+03  0.95747195878E+03  0.00000000000E+00 0.  1.
         22   -1    0    0    0    0 -0.00000000000E+00 -0.00000000000E+00 -0.18912380834E+03  0.18912380834E+03  0.00000000000E+00 0.  1.
         24    2    1    2    0    0 -0.70404939252E+02 -0.33813904954E+02 -0.10592907193E+03  0.16294649420E+03  0.96074742010E+02 0.  0.
         25    2    1    2    0    0  0.10016451497E+03 -0.72885565809E+02  0.11112446869E+03  0.20818553075E+03  0.12508929574E+03 0.  0.
        -24    2    1    2    0    0 -0.29759575717E+02  0.10669947076E+03  0.76315275368E+03  0.77546374217E+03  0.81679131770E+02 0.  0.
        -13    1    3    3    0    0  0.22236009589E+02 -0.16039584271E+02 -0.37298538049E+02  0.46291352612E+02  0.00000000000E+00 0.  1.
         14    1    3    3    0    0 -0.92640948841E+02 -0.17774320683E+02 -0.68630533884E+02  0.11665514159E+03  0.00000000000E+00 0. -1.
         11    1    5    5    0    0 -0.46509853327E+02  0.50824294326E+02  0.26119198327E+03  0.27012502194E+03  0.00000000000E+00 0. -1.
        -12    1    5    5    0    0  0.16750277610E+02  0.55875176436E+02  0.50196077040E+03  0.50533872023E+03  0.00000000000E+00 0.  1.
          5    1    4    4  501    0  0.11009417906E+03 -0.25908293156E+02  0.35697751534E+02  0.11867505965E+03  0.41800000000E+01 0.  1.
         -5    1    4    4    0  501 -0.99296640961E+01 -0.46977272653E+02  0.75426717160E+02  0.89510471100E+02  0.41800000000E+01 0.  1.
</event>
<event>
11    1  0.6455215E-009  0.1704209E+03  0.7561462E-02  0.1077666E+00
         22   -1    0    0    0    0  0.00000000000E+00  0.00000000000E+00  0.16265080205E+04  0.16265080205E+04  0.00000000000E+00 0.  1.
         22   -1    0    0    0    0 -0.00000000000E+00 -0.00000000000E+00 -0.13186302322E+04  0.13186302322E+04  0.00000000000E+00 0.  1.
        -24    2    1    2    0    0 -0.70419131711E+01  0.53179758770E+00 -0.11611817028E+04  0.11637624076E+04  0.77137040592E+02 0.  0.
         25    2    1    2    0    0  0.10722390512E+03 -0.58245129864E+02 -0.10325771510E+03  0.20297520269E+03  0.12508923294E+03 0.  0.
         24    2    1    2    0    0 -0.10018199195E+03  0.57713332277E+02  0.15723172062E+04  0.15784006424E+04  0.76157275260E+02 0.  0.
        -11    1    5    5    0    0 -0.88587098850E+02  0.14338537317E+02  0.85987916567E+03  0.86454927406E+03  0.00000000000E+00 0.  1.
         12    1    5    5    0    0 -0.11594893100E+02  0.43374794960E+02  0.71243804058E+03  0.71385136832E+03  0.00000000000E+00 0. -1.
         11    1    3    3    0    0 -0.18780808022E+02 -0.13617228093E+01 -0.69206565373E+02  0.71722532928E+02  0.00000000000E+00 0. -1.
        -12    1    3    3    0    0  0.11738894851E+02  0.18935203970E+01 -0.10919751375E+04  0.10920398747E+04  0.00000000000E+00 0.  1.
          5    1    4    4  501    0  0.53288759544E+02  0.20832300842E+02  0.59731164978E+01  0.57678654395E+02  0.41800000000E+01 0. -1.
         -5    1    4    4    0  501  0.53935145578E+02 -0.79077430706E+02 -0.10923083160E+03  0.14529654830E+03  0.41800000000E+01 0. -1.
</event>
<event>
11    1  0.6455215E-009  0.1504342E+03  0.7561462E-02  0.1096436E+00
         22   -1    0    0    0    0  0.00000000000E+00  0.00000000000E+00  0.16886183200E+03  0.16886183200E+03  0.00000000000E+00 0. -1.
         22   -1    0    0    0    0 -0.00000000000E+00 -0.00000000000E+00 -0.17400347735E+04  0.17400347735E+04  0.00000000000E+00 0.  1.
        -24    2    1    2    0    0  0.23463779252E+02 -0.52826968364E+02 -0.15708480908E+04  0.15739473078E+04  0.80032280245E+02 0.  0.
         25    2    1    2    0    0  0.59664265687E+02  0.70977794702E+02 -0.91849053324E+02  0.18077215603E+03  0.12507858273E+03 0.  0.
         24    2    1    2    0    0 -0.83128044939E+02 -0.18150826338E+02  0.91524202625E+02  0.15417714165E+03  0.90300537036E+02 0.  0.
        -13    1    5    5    0    0 -0.61235704740E+02 -0.23569859406E+02  0.61825980237E+01  0.65905798878E+02  0.00000000000E+00 0.  1.
         14    1    5    5    0    0 -0.21892340198E+02  0.54190330677E+01  0.85341604602E+02  0.88271342772E+02  0.00000000000E+00 0. -1.
         11    1    3    3    0    0  0.44734075528E+02 -0.14565510761E+02 -0.50101662022E+03  0.50322057326E+03  0.00000000000E+00 0. -1.
        -12    1    3    3    0    0 -0.21270296276E+02 -0.38261457604E+02 -0.10698314705E+04  0.10707267345E+04  0.00000000000E+00 0.  1.
          5    1    4    4  501    0  0.22470934465E+02  0.11139058976E+02  0.30387787077E+02  0.39622109156E+02  0.41800000000E+01 0.  1.
         -5    1    4    4    0  501  0.37193331222E+02  0.59838735726E+02 -0.12223684040E+03  0.14115004687E+03  0.41800000000E+01 0.  1.
</event>
<event>
11    1  0.6455215E-009  0.1478649E+03  0.7561462E-02  0.1099081E+00
         22   -1    0    0    0    0  0.00000000000E+00  0.00000000000E+00  0.99259752684E+03  0.99259752684E+03  0.00000000000E+00 0.  1.
         22   -1    0    0    0    0 -0.00000000000E+00 -0.00000000000E+00 -0.45813091351E+03  0.45813091351E+03  0.00000000000E+00 0.  1.
        -24    2    1    2    0    0  0.77299360247E+02 -0.17036729172E+02 -0.43142984091E+03  0.44589223462E+03  0.80141974229E+02 0.  0.
         25    2    1    2    0    0 -0.61826615186E+02  0.26646521480E+02  0.27864393309E+03  0.31276619486E+03  0.12509070210E+03 0.  0.
         24    2    1    2    0    0 -0.15472745061E+02 -0.96097923076E+01  0.68725252114E+03  0.69207001087E+03  0.79455133147E+02 0.  0.
        -13    1    5    5    0    0  0.12089052897E+02  0.41601098732E+01  0.58814339715E+03  0.58828233641E+03  0.00000000000E+00 0.  1.
         14    1    5    5    0    0 -0.27561797958E+02 -0.13769902181E+02  0.99109123988E+02  0.10378767446E+03  0.00000000000E+00 0. -1.
         13    1    3    3    0    0  0.77355099633E+02  0.15083218703E+02 -0.26855738365E+03  0.27988280268E+03  0.00000000000E+00 0. -1.
        -14    1    3    3    0    0 -0.55739385302E-01 -0.32119947875E+02 -0.16287245726E+03  0.16600943194E+03  0.00000000000E+00 0.  1.
          5    1    4    4  501    0 -0.97583247245E+02  0.13038819835E+01  0.20197483242E+03  0.22435573445E+03  0.41800000000E+01 0. -1.
         -5    1    4    4    0  501  0.35756632059E+02  0.25342639496E+02  0.76669100665E+02  0.88410460409E+02  0.41800000000E+01 0. -1.
</event>
<event>
11    1  0.6455215E-009  0.2043336E+03  0.7561462E-02  0.1051501E+00
         22   -1    0    0    0    0  0.00000000000E+00  0.00000000000E+00  0.31436358249E+03  0.31436358249E+03  0.00000000000E+00 0.  1.
         22   -1    0    0    0    0 -0.00000000000E+00 -0.00000000000E+00 -0.21880004646E+04  0.21880004646E+04  0.00000000000E+00 0.  1.
        -24    2    1    2    0    0 -0.17117781775E+03 -0.20159289347E+02 -0.17619156166E+04  0.17721456653E+04  0.80283102526E+02 0.  0.
         25    2    1    2    0    0  0.12063121387E+03  0.21972271455E+02 -0.39484943914E+03  0.43195950825E+03  0.12509303221E+03 0.  0.
         24    2    1    2    0    0  0.50546603884E+02 -0.18129821083E+01  0.28312817371E+03  0.29825887351E+03  0.78984471952E+02 0.  0.
        -13    1    5    5    0    0  0.71379676279E+02  0.49602753422E+01  0.22688157666E+03  0.23789685232E+03  0.00000000000E+00 0.  1.
         14    1    5    5    0    0 -0.20833072395E+02 -0.67732574505E+01  0.56246597057E+02  0.60362021193E+02  0.00000000000E+00 0. -1.
         11    1    3    3    0    0 -0.22191851153E+02 -0.27258671447E+02 -0.54330998022E+03  0.54444581736E+03  0.00000000000E+00 0. -1.
        -12    1    3    3    0    0 -0.14898596660E+03  0.70993821001E+01 -0.12186056364E+04  0.12276998479E+04  0.00000000000E+00 0.  1.
          5    1    4    4  501    0  0.11496051872E+03  0.54215242421E+02 -0.22076455140E+03  0.25477376814E+03  0.41800000000E+01 0. -1.
         -5    1    4    4    0  501  0.56706951424E+01 -0.32242970966E+02 -0.17408488774E+03  0.17718574011E+03  0.41800000000E+01 0. -1.
</event>
<event>
11    1  0.6455215E-009  0.1749253E+03  0.7561462E-02  0.1073823E+00
         22   -1    0    0    0    0  0.00000000000E+00  0.00000000000E+00  0.59289713445E+03  0.59289713445E+03  0.00000000000E+00 0. -1.
         22   -1    0    0    0    0 -0.00000000000E+00 -0.00000000000E+00 -0.84733360104E+03  0.84733360104E+03  0.00000000000E+00 0.  1.
         24    2    1    2    0    0  0.20342939915E+02 -0.12219173631E+03 -0.78445164168E+03  0.79807492574E+03  0.78832438265E+02 0.  0.
         25    2    1    2    0    0 -0.65997388380E+02  0.81212948830E+02  0.80534698417E+02  0.18189177606E+03  0.12509029625E+03 0.  0.
        -24    2    1    2    0    0  0.45654448465E+02  0.40978787479E+02  0.44948047668E+03  0.46026403370E+03  0.77760479125E+02 0.  0.
        -13    1    3    3    0    0  0.46401527066E+02 -0.10175025616E+03 -0.54606534432E+03  0.55739893847E+03  0.00000000000E+00 0.  1.
         14    1    3    3    0    0 -0.26058587151E+02 -0.20441480150E+02 -0.23838629736E+03  0.24067598726E+03  0.00000000000E+00 0. -1.
         11    1    5    5    0    0  0.10772206015E+02  0.18633994391E+02  0.37009287257E+03  0.37071822251E+03  0.00000000000E+00 0. -1.
        -12    1    5    5    0    0  0.34882242450E+02  0.22344793088E+02  0.79387604109E+02  0.89545811196E+02  0.00000000000E+00 0.  1.
          5    1    4    4  501    0 -0.46532716341E+02  0.58408441175E+02  0.11426587517E+03  0.13656867254E+03  0.41800000000E+01 0.  1.
         -5    1    4    4    0  501 -0.19464672039E+02  0.22804507654E+02 -0.33731176755E+02  0.45323103515E+02  0.41800000000E+01 0.  1.
</event>
<event>
11    1  0.8120369E-009  0.1756136E+03  0.7561462E-02  0.1073247E+00
         22   -1    0    0    0    0  0.00000000000E+00  0.00000000000E+00  0.70521745322E+03  0.70521745322E+03  0.00000000000E+00 0.  1.
         22   -1    0    0    0    0 -0.00000000000E+00 -0.00000000000E+00 -0.74960905416E+03  0.74960905416E+03  0.00000000000E+00 0. -1.
         24    2    1    2    0    0  0.68013902910E+01 -0.60350521778E+01 -0.56193732516E+03  0.56759582628E+03  0.79427853086E+02 0.  0.
         25    2    1    2    0    0 -0.52955215083E+02  0.11988333795E+03 -0.12889832590E+03  0.22235000728E+03  0.12509387592E+03 0.  0.
        -24    2    1    2    0    0  0.46153824793E+02 -0.11384828577E+03  0.64644405012E+03  0.66488067381E+03  0.95314179186E+02 0.  0.
        -11    1    3    3    0    0  0.10892100031E+02  0.62243360029E+01 -0.11536253596E+02  0.17043044001E+02  0.00000000000E+00 0.  1.
         12    1    3    3    0    0 -0.40907097405E+01 -0.12259388181E+02 -0.55040107156E+03  0.55055278228E+03  0.00000000000E+00 0. -1.
         13    1    5    5    0    0  0.50101934411E+02 -0.18645645873E+02  0.14677112893E+03  0.15620380351E+03  0.00000000000E+00 0. -1.
        -14    1    5    5    0    0 -0.39481096190E+01 -0.95202639897E+02  0.49967292119E+03  0.50867687031E+03  0.00000000000E+00 0.  1.
          5    1    4    4  501    0 -0.58443380650E+02  0.13142123162E+03 -0.14300264747E+03  0.20286546883E+03  0.41800000000E+01 0. -1.
         -5    1    4    4    0  501  0.54881655667E+01 -0.11537893670E+02  0.14104321565E+02  0.19484538445E+02  0.41800000000E+01 0. -1.
</event>
<event>
11    1  0.6455215E-009  0.1546728E+03  0.7561462E-02  0.1092198E+00
         22   -1    0    0    0    0  0.00000000000E+00  0.00000000000E+00  0.13545222916E+04  0.13545222916E+04  0.00000000000E+00 0.  1.
         22   -1    0    0    0    0 -0.00000000000E+00 -0.00000000000E+00 -0.65136353127E+03  0.65136353127E+03  0.00000000000E+00 0.  1.
        -24    2    1    2    0    0  0.83883792494E+02  0.33031883690E+02 -0.59025377538E+03  0.60229301817E+03  0.78928856625E+02 0.  0.
         25    2    1    2    0    0 -0.13647135677E+03  0.35048790328E+02  0.11771099685E+03  0.22214450249E+03  0.12505779578E+03 0.  0.
         24    2    1    2    0    0  0.52587564271E+02 -0.68080674019E+02  0.11757015388E+04  0.11814483022E+04  0.78393572639E+02 0.  0.
        -11    1    5    5    0    0  0.31220871684E+02 -0.83721182707E+02  0.95237472100E+03  0.95655715379E+03  0.00000000000E+00 0.  1.
         12    1    5    5    0    0  0.21366692587E+02  0.15640508688E+02  0.22332681783E+03  0.22489114839E+03  0.00000000000E+00 0. -1.
         13    1    3    3    0    0  0.18220565092E+02  0.46874796604E+02 -0.19487555263E+03  0.20126032038E+03  0.00000000000E+00 0. -1.
        -14    1    3    3    0    0  0.65663227402E+02 -0.13842912913E+02 -0.39537822275E+03  0.40103269779E+03  0.00000000000E+00 0.  1.
          5    1    4    4  501    0  0.17254525121E+02  0.15730927424E+02 -0.52589761640E+01  0.24296294884E+02  0.41800000000E+01 0.  1.
         -5    1    4    4    0  501 -0.15372588189E+03  0.19317862905E+02  0.12296997301E+03  0.19784820760E+03  0.41800000000E+01 0.  1.
</event>
<event>
11    1  0.6895052E-009  0.1491144E+03  0.7561462E-02  0.1097787E+00
         22   -1    0    0    0    0  0.00000000000E+00  0.00000000000E+00  0.15238890550E+04  0.15238890550E+04  0.00000000000E+00 0. -1.
         22   -1    0    0    0    0 -0.00000000000E+00 -0.00000000000E+00 -0.14330208101E+03  0.14330208101E+03  0.00000000000E+00 0.  1.
        -24    2    1    2    0    0 -0.21767518896E+02 -0.66128268433E+02 -0.70183083742E+02  0.12745981835E+03  0.80458481742E+02 0.  0.
         25    2    1    2    0    0 -0.51941535467E+02  0.25978997148E+02  0.71149045913E+02  0.15518386320E+03  0.12508802206E+03 0.  0.
         24    2    1    2    0    0  0.73709054363E+02  0.40149271285E+02  0.13796210118E+04  0.13845474545E+04  0.81071133695E+02 0.  0.
        -11    1    5    5    0    0  0.34380428885E+02 -0.23636285672E+02  0.51024804653E+03  0.51195093210E+03  0.00000000000E+00 0.  1.
         12    1    5    5    0    0  0.39328625478E+02  0.63785556957E+02  0.86937296530E+03  0.87259652237E+03  0.00000000000E+00 0. -1.
         11    1    3    3    0    0 -0.20838783701E+02 -0.30412589643E+02  0.11240526100E+02  0.38542573110E+02  0.00000000000E+00 0. -1.
        -12    1    3    3    0    0 -0.92873519478E+00 -0.35715678790E+02 -0.81423609842E+02  0.88917245235E+02  0.00000000000E+00 0.  1.
          5    1    4    4  501    0  0.35168248820E+02  0.47378243663E+01 -0.67164469266E+01  0.36357059343E+02  0.41800000000E+01 0.  1.
         -5    1    4    4    0  501 -0.87109784287E+02  0.21241172782E+02  0.77865492839E+02  0.11882680386E+03  0.41800000000E+01 0.  1.
</event>
<event>
11    1  0.6455215E-009  0.1361024E+03  0.7561462E-02  0.1111990E+00
         22   -1    0    0    0    0  0.00000000000E+00  0.00000000000E+00  0.89526549500E+03  0.89526549500E+03  0.00000000000E+00 0. -1.
         22   -1    0    0    0    0 -0.00000000000E+00 -0.00000000000E+00 -0.29377798277E+03  0.29377798277E+03  0.00000000000E+00 0.  1.
         24    2    1    2    0    0 -0.31176833333E+02 -0.13465768508E+02 -0.26362794094E+03  0.27692522419E+03  0.77682473475E+02 0.  0.
         25    2    1    2    0    0  0.78756394432E+02  0.22873876040E+02  0.26116585921E+03  0.30097335792E+03  0.12510624402E+03 0.  0.
        -24    2    1    2    0    0 -0.47579561099E+02 -0.94081075321E+01  0.60394959396E+03  0.61114489566E+03  0.79941505641E+02 0.  0.
        -13    1    3    3    0    0  0.81182319520E+01  0.22693581939E+02 -0.37499770569E+02  0.44577316473E+02  0.00000000000E+00 0.  1.
         14    1    3    3    0    0 -0.39295065285E+02 -0.36159350448E+02 -0.22612817038E+03  0.23234790771E+03  0.00000000000E+00 0. -1.
         13    1    5    5    0    0 -0.68883819354E+02 -0.11892257969E+02  0.51060965683E+03  0.51537231980E+03  0.00000000000E+00 0. -1.
        -14    1    5    5    0    0  0.21304258255E+02  0.24841504365E+01  0.93339937134E+02  0.95772575862E+02  0.00000000000E+00 0.  1.
          5    1    4    4  501    0  0.93930740037E+02 -0.42212750443E+01  0.25094385479E+03  0.26801323427E+03  0.41800000000E+01 0.  1.
         -5    1    4    4    0  501 -0.15174345606E+02  0.27095151085E+02  0.10222004424E+02  0.32960123654E+02  0.41800000000E+01 0.  1.
</event>
<event>
11    1  0.6455215E-009  0.1342847E+03  0.7561462E-02  0.1114114E+00
         22   -1    0    0    0    0  0.00000000000E+00  0.00000000000E+00  0.11225691793E+04  0.11225691793E+04  0.00000000000E+00 0. -1.
         22   -1    0    0    0    0 -0.00000000000E+00 -0.00000000000E+00 -0.61905228905E+02  0.61905228905E+02  0.00000000000E+00 0.  1.
        -24    2    1    2    0    0 -0.22032194296E+02 -0.18004577090E+02  0.66315550987E+01  0.82582583140E+02  0.77241977793E+02 0.  0.
         25    2    1    2    0    0  0.66812768337E+02  0.34262454497E+01  0.21459680921E+03  0.25724449220E+03  0.12508898062E+03 0.  0.
         24    2    1    2    0    0 -0.44780574041E+02  0.14578331640E+02  0.83943558604E+03  0.84464733282E+03  0.80988802745E+02 0.  0.
        -13    1    5    5    0    0  0.31279170290E+01 -0.22777593328E+02  0.95223747013E+02  0.97960015404E+02  0.00000000000E+00 0.  1.
         14    1    5    5    0    0 -0.47908491070E+02  0.37355924968E+02  0.74421183902E+03  0.74668731742E+03  0.00000000000E+00 0. -1.
         11    1    3    3    0    0 -0.57409795769E+01 -0.42495605829E+02  0.23269706131E+02  0.48788467743E+02  0.00000000000E+00 0. -1.
        -12    1    3    3    0    0 -0.16291214719E+02  0.24491028739E+02 -0.16638151032E+02  0.33794115397E+02  0.00000000000E+00 0.  1.
          5    1    4    4  501    0  0.88995062917E+02  0.13945644078E+02  0.21412182784E+03  0.23233646242E+03  0.41800000000E+01 0. -1.
         -5    1    4    4    0  501 -0.22182294580E+02 -0.10519398628E+02  0.47498137675E+00  0.24908029782E+02  0.41800000000E+01 0. -1.
</event>
<event>
11    1  0.6455215E-009  0.1433987E+03  0.7561462E-02  0.1103821E+00
         22   -1    0    0    0    0  0.00000000000E+00  0.00000000000E+00  0.25389944366E+03  0.25389944366E+03  0.00000000000E+00 0. -1.
         22   -1    0    0    0    0 -0.00000000000E+00 -0.00000000000E+00 -0.68003803434E+03  0.68003803434E+03  0.00000000000E+00 0.  1.
         24    2    1    2    0    0  0.20871242164E+02  0.94463495508E+01 -0.55087204223E+03  0.55705114134E+03  0.79505502252E+02 0.  0.
         25    2    1    2    0    0 -0.73461526244E+02 -0.51998629839E+02 -0.59127295985E+02  0.16505799931E+03  0.12509057783E+03 0.  0.
        -24    2    1    2    0    0  0.52590284080E+02  0.42552280288E+02  0.18386074752E+03  0.21182833736E+03  0.80560756521E+02 0.  0.
        -11    1    3    3    0    0  0.10696739282E+02  0.38000287887E+02 -0.44986256918E+03  0.45159137863E+03  0.00000000000E+00 0.  1.
         12    1    3    3    0    0  0.10174502882E+02 -0.28553938336E+02 -0.10100947305E+03  0.10545976270E+03  0.00000000000E+00 0. -1.
         13    1    5    5    0    0  0.74322181909E+02  0.30407972641E+02  0.14052235816E+03  0.16184858562E+03  0.00000000000E+00 0. -1.
        -14    1    5    5    0    0 -0.21731897829E+02  0.12144307648E+02  0.43338389365E+02  0.49979751742E+02  0.00000000000E+00 0.  1.
          5    1    4    4  501    0 -0.87205371305E+02 -0.48599484119E+02  0.42235076688E+01  0.10000998479E+03  0.41800000000E+01 0.  1.
         -5    1    4    4    0  501  0.13743845061E+02 -0.33991457200E+01 -0.63350803653E+02  0.65048014514E+02  0.41800000000E+01 0.  1.
</event>
<event>
11    1  0.6455215E-009  0.1276282E+03  0.7561462E-02  0.1122218E+00
         22   -1    0    0    0    0  0.00000000000E+00  0.00000000000E+00  0.94994890800E+03  0.94994890800E+03  0.00000000000E+00 0. -1.
         22   -1    0    0    0    0 -0.00000000000E+00 -0.00000000000E+00 -0.64452779657E+02  0.64452779657E+02  0.00000000000E+00 0. -1.
        -24    2    1    2    0    0  0.18729412764E+02 -0.17137798468E+02 -0.17992408658E+02  0.85261668240E+02  0.79380918758E+02 0.  0.
         25    2    1    2    0    0 -0.11236894487E+02  0.24633315617E+02  0.43371525536E+03  0.45220300999E+03  0.12508225884E+03 0.  0.
         24    2    1    2    0    0 -0.74925182771E+01 -0.74955171499E+01  0.46977328164E+03  0.47693700943E+03  0.81667950931E+02 0.  0.
        -11    1    5    5    0    0  0.14490890301E+02 -0.25953124298E+02  0.68913256587E+02  0.75050566260E+02  0.00000000000E+00 0.  1.
         12    1    5    5    0    0 -0.21983408578E+02  0.18457607148E+02  0.40086002506E+03  0.40188644317E+03  0.00000000000E+00 0. -1.
         11    1    3    3    0    0  0.44378620436E+02 -0.14507348168E+02 -0.31335250180E+02  0.56230089867E+02  0.00000000000E+00 0. -1.
        -12    1    3    3    0    0 -0.25649207671E+02 -0.26304502997E+01  0.13342841522E+02  0.29031578373E+02  0.00000000000E+00 0.  1.
          5    1    4    4  501    0  0.23913351773E+02  0.47933497676E+02  0.82588685855E+02  0.98528331071E+02  0.41800000000E+01 0. -1.
         -5    1    4    4    0  501 -0.35150246260E+02 -0.23300182058E+02  0.35112656951E+03  0.35367467892E+03  0.41800000000E+01 0. -1.
</event>
<event>
11    1  0.6455215E-009  0.1350875E+03  0.7561462E-02  0.1113171E+00
         22   -1    0    0    0    0  0.00000000000E+00  0.00000000000E+00  0.81342673406E+03  0.81342673406E+03  0.00000000000E+00 0. -1.
         22   -1    0    0    0    0 -0.00000000000E+00 -0.00000000000E+00 -0.15168899327E+03  0.15168899327E+03  0.00000000000E+00 0. -1.
        -24    2    1    2    0    0 -0.28589408627E+01  0.43940483514E+02 -0.10667177505E+03  0.14093844528E+03  0.80906354079E+02 0.  0.
         25    2    1    2    0    0  0.47249825488E+02 -0.62131650285E+02  0.20290292873E+03  0.25081948059E+03  0.12509166791E+03 0.  0.
         24    2    1    2    0    0 -0.44390884625E+02  0.18191166771E+02  0.56550658711E+03  0.57335780147E+03  0.81486190559E+02 0.  0.
        -11    1    5    5    0    0  0.23472060980E+01  0.37941941412E+02  0.14903911098E+03  0.15381078277E+03  0.00000000000E+00 0.  1.
         12    1    5    5    0    0 -0.46738090723E+02 -0.19750774641E+02  0.41646747613E+03  0.41954701870E+03  0.00000000000E+00 0. -1.
         11    1    3    3    0    0  0.31159668449E+02  0.32597318712E+02 -0.91485180786E+02  0.10199533533E+03  0.00000000000E+00 0. -1.
        -12    1    3    3    0    0 -0.34018609312E+02  0.11343164803E+02 -0.15186594266E+02  0.38943109951E+02  0.00000000000E+00 0.  1.
          5    1    4    4  501    0  0.16258239273E+02 -0.43415322260E+02  0.19501795453E+01  0.46588583918E+02  0.41800000000E+01 0. -1.
         -5    1    4    4    0  501  0.30991586215E+02 -0.18716328025E+02  0.20095274918E+03  0.20423089667E+03  0.41800000000E+01 0. -1.
</event>
<event>
11    1  0.6455215E-009  0.1508746E+03  0.7561462E-02  0.1095989E+00
         22   -1    0    0    0    0  0.00000000000E+00  0.00000000000E+00  0.42364068853E+03  0.42364068853E+03  0.00000000000E+00 0. -1.
         22   -1    0    0    0    0 -0.00000000000E+00 -0.00000000000E+00 -0.78363971256E+03  0.78363971256E+03  0.00000000000E+00 0. -1.
         24    2    1    2    0    0  0.42510170518E+02  0.35152153115E+02 -0.46791319092E+03  0.47785718945E+03  0.79761838024E+02 0.  0.
         25    2    1    2    0    0  0.22383740519E+02 -0.89417287287E+02 -0.28333675297E+03  0.32314514353E+03  0.12508631059E+03 0.  0.
        -24    2    1    2    0    0 -0.64893911037E+02  0.54265134172E+02  0.39125091986E+03  0.40627806812E+03  0.69488573646E+02 0.  0.
        -11    1    3    3    0    0  0.29150298953E+02  0.13247625102E+02 -0.51419455675E+02  0.60573921136E+02  0.00000000000E+00 0.  1.
         12    1    3    3    0    0  0.13359871565E+02  0.21904528013E+02 -0.41649373524E+03  0.41728326831E+03  0.00000000000E+00 0. -1.
         13    1    5    5    0    0 -0.59469965843E+02  0.58206952620E+01  0.24200440425E+03  0.24927231898E+03  0.00000000000E+00 0. -1.
        -14    1    5    5    0    0 -0.54239451937E+01  0.48444438910E+02  0.14924651561E+03  0.15700574914E+03  0.00000000000E+00 0.  1.
          5    1    4    4  501    0 -0.47636348101E+01 -0.41238483697E+02 -0.82585396740E+01  0.42532112947E+02  0.41800000000E+01 0. -1.
         -5    1    4    4    0  501  0.27147375329E+02 -0.48178803590E+02 -0.27507821329E+03  0.28061303058E+03  0.41800000000E+01 0. -1.
</event>
<event>
11    1  0.6455215E-009  0.2783061E+03  0.7561462E-02  0.1009815E+00
         22   -1    0    0    0    0  0.00000000000E+00  0.00000000000E+00  0.28552460747E+03  0.28552460747E+03  0.00000000000E+00 0.  1.
         22   -1    0    0    0    0 -0.00000000000E+00 -0.00000000000E+00 -0.12746336630E+04  0.12746336630E+04  0.00000000000E+00 0. -1.
         24    2    1    2    0    0 -0.23009259220E+03 -0.80620923220E+02 -0.10341243922E+04  0.10654054469E+04  0.78950449140E+02 0.  0.
         25    2    1    2    0    0  0.25679358962E+03  0.12669919607E+03 -0.91692800922E+02  0.32565381630E+03  0.12508878597E+03 0.  0.
        -24    2    1    2    0    0 -0.26700997415E+02 -0.46078272852E+02  0.13670813763E+03  0.16909900727E+03  0.84078587493E+02 0.  0.
        -13    1    3    3    0    0 -0.16582780947E+03 -0.64463213433E+02 -0.58616561122E+03  0.61257203009E+03  0.00000000000E+00 0.  1.
         14    1    3    3    0    0 -0.64264782734E+02 -0.16157709788E+02 -0.44795878099E+03  0.45283341678E+03  0.00000000000E+00 0. -1.
         11    1    5    5    0    0 -0.36107625227E+02 -0.11560519550E+02  0.12623117282E+02  0.39959345612E+02  0.00000000000E+00 0. -1.
        -12    1    5    5    0    0  0.94066278116E+01 -0.34517753302E+02  0.12408502034E+03  0.12913966166E+03  0.00000000000E+00 0.  1.
          5    1    4    4  501    0  0.10247594727E+03  0.22403549029E+02  0.22191507322E+02  0.10729946027E+03  0.41800000000E+01 0. -1.
         -5    1    4    4    0  501  0.15431764235E+03  0.10429564704E+03 -0.11388430824E+03  0.21835435603E+03  0.41800000000E+01 0. -1.
</event>
<event>
11    1  0.6501371E-009  0.1915855E+03  0.7561462E-02  0.1060639E+00
         22   -1    0    0    0    0  0.00000000000E+00  0.00000000000E+00  0.11866677718E+04  0.11866677718E+04  0.00000000000E+00 0. -1.
         22   -1    0    0    0    0 -0.00000000000E+00 -0.00000000000E+00 -0.18528814687E+03  0.18528814687E+03  0.00000000000E+00 0. -1.
         24    2    1    2    0    0 -0.10187761163E+02 -0.69627238719E+02 -0.12165452714E+03  0.16147659122E+03  0.79518065178E+02 0.  0.
         25    2    1    2    0    0 -0.11975678038E+02 -0.86631291520E+02  0.12672755436E+03  0.19838091927E+03  0.12508684408E+03 0.  0.
        -24    2    1    2    0    0  0.22163439201E+02  0.15625853024E+03  0.99630659766E+03  0.10120984081E+04  0.82513058848E+02 0.  0.
        -11    1    3    3    0    0 -0.18980271682E+02 -0.50765935557E+02 -0.20089478046E+02  0.57801540241E+02  0.00000000000E+00 0.  1.
         12    1    3    3    0    0  0.87925105192E+01 -0.18861303162E+02 -0.10156504910E+03  0.10367505098E+03  0.00000000000E+00 0. -1.
         11    1    5    5    0    0  0.14431402141E+02  0.15389054369E+03  0.98958453639E+03  0.10015828071E+04  0.00000000000E+00 0. -1.
        -12    1    5    5    0    0  0.77320370601E+01  0.23679865477E+01  0.67220612780E+01  0.10515601039E+02  0.00000000000E+00 0.  1.
          5    1    4    4  501    0  0.10872877303E+02 -0.72357609307E+02  0.14710047127E+03  0.16434678011E+03  0.41800000000E+01 0. -1.
         -5    1    4    4    0  501 -0.22848555341E+02 -0.14273682213E+02 -0.20372916909E+02  0.34034139162E+02  0.41800000000E+01 0. -1.
</event>
<event>
11    1  0.6455215E-009  0.2305957E+03  0.7561462E-02  0.1034776E+00
         22   -1    0    0    0    0  0.00000000000E+00  0.00000000000E+00  0.29922872250E+04  0.29922872250E+04  0.00000000000E+00 0. -1.
         22   -1    0    0    0    0 -0.00000000000E+00 -0.00000000000E+00 -0.40506078841E+03  0.40506078841E+03  0.00000000000E+00 0. -1.
        -24    2    1    2    0    0  0.52297231939E+02  0.24412392613E+02 -0.34737617149E+03  0.36095210942E+03  0.79279602669E+02 0.  0.
         25    2    1    2    0    0  0.45216460842E+02 -0.19221768146E+03  0.24508242632E+03  0.33868028566E+03  0.12508706891E+03 0.  0.
         24    2    1    2    0    0 -0.97513692781E+02  0.16780528885E+03  0.26895201818E+04  0.26977156183E+04  0.80518408265E+02 0.  0.
        -13    1    5    5    0    0 -0.20158471408E+02  0.51080735297E+02  0.37919762915E+03  0.38315329497E+03  0.00000000000E+00 0.  1.
         14    1    5    5    0    0 -0.77355221373E+02  0.11672455355E+03  0.23103225526E+04  0.23145623234E+04  0.00000000000E+00 0. -1.
         11    1    3    3    0    0  0.38635490055E+02 -0.99300024455E+01 -0.28980807746E+03  0.29254064299E+03  0.00000000000E+00 0. -1.
        -12    1    3    3    0    0  0.13661741884E+02  0.34342395059E+02 -0.57568094025E+02  0.68411466431E+02  0.00000000000E+00 0.  1.
          5    1    4    4  501    0 -0.41287338135E+02 -0.35151952198E+02  0.57889352667E+02  0.79428921596E+02  0.41800000000E+01 0.  1.
         -5    1    4    4    0  501  0.86503798977E+02 -0.15706572926E+03  0.18719307366E+03  0.25925136407E+03  0.41800000000E+01 0.  1.
</event>
<event>
11    1  0.6455215E-009  0.1982957E+03  0.7561462E-02  0.1055735E+00
         22   -1    0    0    0    0  0.00000000000E+00  0.00000000000E+00  0.18197020414E+04  0.18197020414E+04  0.00000000000E+00 0. -1.
         22   -1    0    0    0    0 -0.00000000000E+00 -0.00000000000E+00 -0.30456158486E+03  0.30456158486E+03  0.00000000000E+00 0.  1.
         24    2    1    2    0    0 -0.98336599156E+01 -0.15955754252E+03 -0.19269246564E+03  0.26364506546E+03  0.82601597967E+02 0.  0.
         25    2    1    2    0    0  0.60386699055E+02  0.12817291034E+03  0.44437132375E+02  0.19415748846E+03  0.12509046017E+03 0.  0.
        -24    2    1    2    0    0 -0.50553039140E+02  0.31384632175E+02  0.16633957898E+04  0.16664610723E+04  0.81647701641E+02 0.  0.
        -11    1    3    3    0    0  0.86351666426E+00 -0.99807679769E+02 -0.56870073045E+02  0.11487612376E+03  0.00000000000E+00 0.  1.
         12    1    3    3    0    0 -0.10697176580E+02 -0.59749862749E+02 -0.13582239259E+03  0.14876894170E+03  0.00000000000E+00 0. -1.
         11    1    5    5    0    0 -0.12969190987E+02  0.49059056255E+02  0.56313185401E+03  0.56541354415E+03  0.00000000000E+00 0. -1.
        -12    1    5    5    0    0 -0.37583848152E+02 -0.17674424079E+02  0.11002639358E+04  0.11010475282E+04  0.00000000000E+00 0.  1.
          5    1    4    4  501    0 -0.18523575368E+02 -0.14948610526E+02  0.13782641854E+02  0.27821168515E+02  0.41800000000E+01 0.  1.
         -5    1    4    4    0  501  0.78910274423E+02  0.14312152087E+03  0.30654490521E+02  0.16633631995E+03  0.41800000000E+01 0.  1.
</event>
<event>
11    1  0.6455215E-009  0.2001216E+03  0.7561462E-02  0.1054438E+00
         22   -1    0    0    0    0  0.00000000000E+00  0.00000000000E+00  0.20145454685E+04  0.20145454685E+04  0.00000000000E+00 0. -1.
         22   -1    0    0    0    0 -0.00000000000E+00 -0.00000000000E+00 -0.11166363077E+04  0.11166363077E+04  0.00000000000E+00 0. -1.
         24    2    1    2    0    0 -0.11477502543E+03 -0.44804330014E+02 -0.10746260526E+04  0.10843330489E+04  0.76001800333E+02 0.  0.
         25    2    1    2    0    0  0.24813010382E+03 -0.95373920187E+01  0.56703106722E+03  0.63153125891E+03  0.12509192430E+03 0.  0.
        -24    2    1    2    0    0 -0.13335507839E+03  0.54341722033E+02  0.14055041462E+04  0.14153174683E+04  0.83336855751E+02 0.  0.
        -13    1    3    3    0    0  0.86005877154E+01  0.58246836859E+01 -0.50227168999E+02  0.51290014182E+02  0.00000000000E+00 0.  1.
         14    1    3    3    0    0 -0.12337561314E+03 -0.50629013700E+02 -0.10243988836E+04  0.10330430347E+04  0.00000000000E+00 0. -1.
         13    1    5    5    0    0 -0.13057240042E+03  0.32018096665E+02  0.13225991318E+04  0.13294144477E+04  0.00000000000E+00 0. -1.
        -14    1    5    5    0    0 -0.27826779716E+01  0.22323625368E+02  0.82905014407E+02  0.85903020669E+02  0.00000000000E+00 0.  1.
          5    1    4    4  501    0  0.49308740830E+02 -0.36384693094E+02  0.24091412917E+03  0.24862077115E+03  0.41800000000E+01 0.  1.
         -5    1    4    4    0  501  0.19882136299E+03  0.26847301075E+02  0.32611693805E+03  0.38291048776E+03  0.41800000000E+01 0.  1.
</event>
<event>
11    1  0.6455215E-009  0.1709686E+03  0.7561462E-02  0.1077192E+00
         22   -1    0    0    0    0  0.00000000000E+00  0.00000000000E+00  0.28359841052E+03  0.28359841052E+03  0.00000000000E+00 0.  1.
         22   -1    0    0    0    0 -0.00000000000E+00 -0.00000000000E+00 -0.28092048397E+04  0.28092048397E+04  0.00000000000E+00 0.  1.
         24    2    1    2    0    0  0.44426737820E+02 -0.29780172973E+02 -0.23138934825E+04  0.23155917225E+04  0.70720458446E+02 0.  0.
         25    2    1    2    0    0  0.61414235557E+01  0.13444723275E+03 -0.45783773715E+03  0.49333200099E+03  0.12508914490E+03 0.  0.
        -24    2    1    2    0    0 -0.50568161375E+02 -0.10466705978E+03  0.24612479043E+03  0.28387952676E+03  0.80609186214E+02 0.  0.
        -11    1    3    3    0    0  0.42299362547E+02 -0.40220837233E+02 -0.22541451242E+04  0.22549007057E+04  0.00000000000E+00 0.  1.
         12    1    3    3    0    0  0.21273752727E+01  0.10440664260E+02 -0.59748358325E+02  0.60691016784E+02  0.00000000000E+00 0. -1.
         13    1    5    5    0    0  0.61697904541E+01 -0.61800893642E+01  0.91806750718E+02  0.92221143433E+02  0.00000000000E+00 0. -1.
        -14    1    5    5    0    0 -0.56737951829E+02 -0.98486970413E+02  0.15431803971E+03  0.19165838333E+03  0.00000000000E+00 0.  1.
          5    1    4    4  501    0  0.13978100666E+02  0.11213269344E+03 -0.16805904517E+03  0.20255972773E+03  0.41800000000E+01 0.  1.
         -5    1    4    4    0  501 -0.78366771106E+01  0.22314539311E+02 -0.28977869198E+03  0.29077227326E+03  0.41800000000E+01 0.  1.
</event>
<event>
11    1  0.6455215E-009  0.1630248E+03  0.7561462E-02  0.1084266E+00
         22   -1    0    0    0    0  0.00000000000E+00  0.00000000000E+00  0.13511781276E+04  0.13511781276E+04  0.00000000000E+00 0.  1.
         22   -1    0    0    0    0 -0.00000000000E+00 -0.00000000000E+00 -0.15878490347E+03  0.15878490347E+03  0.00000000000E+00 0. -1.
         24    2    1    2    0    0  0.28258815389E+02 -0.99994958229E+02 -0.10920801967E+03  0.16931246052E+03  0.77089333953E+02 0.  0.
         25    2    1    2    0    0  0.13545664689E+02  0.12163768973E+03  0.43296584091E+03  0.46699724293E+03  0.12509113843E+03 0.  0.
        -24    2    1    2    0    0 -0.41804480078E+02 -0.21642731504E+02  0.86863540287E+03  0.87365332758E+03  0.80787692692E+02 0.  0.
        -11    1    3    3    0    0  0.30063297950E+02 -0.76611794967E+02 -0.31465219792E+02  0.88109188331E+02  0.00000000000E+00 0.  1.
         12    1    3    3    0    0 -0.18044825608E+01 -0.23383163262E+02 -0.77742799882E+02  0.81203272194E+02  0.00000000000E+00 0. -1.
         13    1    5    5    0    0 -0.56186474937E+02 -0.38793218570E+02  0.54789989836E+03  0.55213778388E+03  0.00000000000E+00 0. -1.
        -14    1    5    5    0    0  0.14381994859E+02  0.17150487065E+02  0.32073550451E+03  0.32151554369E+03  0.00000000000E+00 0.  1.
          5    1    4    4  501    0 -0.42436214504E+02  0.10954734808E+03  0.28700692567E+03  0.31014819289E+03  0.41800000000E+01 0.  1.
         -5    1    4    4    0  501  0.55981879193E+02  0.12090341650E+02  0.14595891524E+03  0.15684905003E+03  0.41800000000E+01 0.  1.
</event>
<event>
11    1  0.6455215E-009  0.1650913E+03  0.7561462E-02  0.1082384E+00
         22   -1    0    0    0    0  0.00000000000E+00  0.00000000000E+00  0.22514465097E+04  0.22514465097E+04  0.00000000000E+00 0. -1.
         22   -1    0    0    0    0 -0.00000000000E+00 -0.00000000000E+00 -0.60907699430E+03  0.60907699430E+03  0.00000000000E+00 0.  1.
         24    2    1    2    0    0  0.63497137255E+02 -0.87354978012E+02 -0.56994931402E+03  0.58402730238E+03  0.67697051293E+02 0.  0.
         25    2    1    2    0    0 -0.99829948336E+02  0.50055708168E+02  0.19596698194E+03  0.25791820108E+03  0.12508856036E+03 0.  0.
        -24    2    1    2    0    0  0.36332811081E+02  0.37299269843E+02  0.20163518475E+04  0.20185780006E+04  0.79190042029E+02 0.  0.
        -13    1    3    3    0    0  0.62132834378E+02 -0.75013807497E+02 -0.55915323701E+03  0.56757369819E+03  0.00000000000E+00 0.  1.
         14    1    3    3    0    0  0.13643028765E+01 -0.12341170514E+02 -0.10796077011E+02  0.16453604190E+02  0.00000000000E+00 0. -1.
         13    1    5    5    0    0 -0.19662177753E+02 -0.82408550401E+01  0.61401300721E+03  0.61438301242E+03  0.00000000000E+00 0. -1.
        -14    1    5    5    0    0  0.55994988834E+02  0.45540124884E+02  0.14023388403E+04  0.14041949881E+04  0.00000000000E+00 0.  1.
          5    1    4    4  501    0  0.42155738384E-01 -0.21275035109E+02 -0.51401245929E+01  0.22282777583E+02  0.41800000000E+01 0.  1.
         -5    1    4    4    0  501 -0.99872104074E+02  0.71330743277E+02  0.20110710653E+03  0.23563542350E+03  0.41800000000E+01 0.  1.
</event>
<event>
11    1  0.6455215E-009  0.1535292E+03  0.7561462E-02  0.1093326E+00
         22   -1    0    0    0    0  0.00000000000E+00  0.00000000000E+00  0.23344997261E+02  0.23344997261E+02  0.00000000000E+00 0. -1.
         22   -1    0    0    0    0 -0.00000000000E+00 -0.00000000000E+00 -0.23913802847E+04  0.23913802847E+04  0.00000000000E+00 0. -1.
        -24    2    1    2    0    0 -0.43249671959E+02  0.91854549418E+02 -0.13047648469E+04  0.13111311738E+04  0.79660885853E+02 0.  0.
         25    2    1    2    0    0  0.33908665427E+02 -0.59199977971E+02 -0.94788858641E+03  0.95853839870E+03  0.12509458243E+03 0.  0.
         24    2    1    2    0    0  0.93410065319E+01 -0.32654571447E+02 -0.11538185406E+03  0.14505570943E+03  0.81083975927E+02 0.  0.
        -11    1    5    5    0    0  0.40168311107E+02 -0.25727901126E+02 -0.98003562778E+02  0.10899594685E+03  0.00000000000E+00 0.  1.
         12    1    5    5    0    0 -0.30827304575E+02 -0.69266703213E+01 -0.17378291285E+02  0.36059762577E+02  0.00000000000E+00 0. -1.
         13    1    3    3    0    0  0.11473079463E+02  0.68413762139E+02 -0.73334938479E+03  0.73662296636E+03  0.00000000000E+00 0. -1.
        -14    1    3    3    0    0 -0.54722751422E+02  0.23440787279E+02 -0.57141546216E+03  0.57450820745E+03  0.00000000000E+00 0.  1.
          5    1    4    4  501    0  0.35112896409E+02 -0.15097633967E+02 -0.85240609720E+03  0.85327280572E+03  0.41800000000E+01 0. -1.
         -5    1    4    4    0  501 -0.12042309817E+01 -0.44102344004E+02 -0.95482489213E+02  0.10526559298E+03  0.41800000000E+01 0. -1.
</event>
<event>
11    1  0.6455215E-009  0.2762751E+03  0.7561462E-02  0.1010764E+00
         22   -1    0    0    0    0  0.00000000000E+00  0.00000000000E+00  0.76923009790E+03  0.76923009790E+03  0.00000000000E+00 0. -1.
         22   -1    0    0    0    0 -0.00000000000E+00 -0.00000000000E+00 -0.84866781446E+03  0.84866781446E+03  0.00000000000E+00 0. -1.
         24    2    1    2    0    0 -0.43609706072E+02  0.58011639908E+02 -0.70723642074E+03  0.71546998188E+03  0.80291863411E+02 0.  0.
         25    2    1    2    0    0  0.28026864784E+03 -0.61149926950E+02  0.11757341291E+03  0.33430782253E+03  0.12509350204E+03 0.  0.
        -24    2    1    2    0    0 -0.23665894177E+03  0.31382870417E+01  0.51022529127E+03  0.56812010794E+03  0.80083117030E+02 0.  0.
        -11    1    3    3    0    0  0.14827303465E+02  0.27569490509E+01 -0.29939870435E+03  0.29977830786E+03  0.00000000000E+00 0.  1.
         12    1    3    3    0    0 -0.58437009537E+02  0.55254690857E+02 -0.40783771639E+03  0.41569167403E+03  0.00000000000E+00 0. -1.
         11    1    5    5    0    0 -0.10568307270E+03 -0.11964203091E+02  0.31561865771E+03  0.33305733907E+03  0.00000000000E+00 0. -1.
        -12    1    5    5    0    0 -0.13097586907E+03  0.15102490132E+02  0.19460663356E+03  0.23506276888E+03  0.00000000000E+00 0.  1.
          5    1    4    4  501    0  0.28947412955E+03 -0.63802867533E+02  0.12474844209E+03  0.32162979307E+03  0.41800000000E+01 0.  1.
         -5    1    4    4    0  501 -0.92054817118E+01  0.26529405836E+01 -0.71750291798E+01  0.12678029461E+02  0.41800000000E+01 0.  1.
</event>
<event>
11    1  0.6455215E-009  0.2067457E+03  0.7561462E-02  0.1049853E+00
         22   -1    0    0    0    0  0.00000000000E+00  0.00000000000E+00  0.12271632243E+04  0.12271632243E+04  0.00000000000E+00 0.  1.
         22   -1    0    0    0    0 -0.00000000000E+00 -0.00000000000E+00 -0.11342196738E+04  0.11342196738E+04  0.00000000000E+00 0.  1.
         24    2    1    2    0    0  0.62907574932E+02  0.16143753539E+03 -0.54024786775E+03  0.57297954323E+03  0.80114652456E+02 0.  0.
         25    2    1    2    0    0 -0.18419752414E+03 -0.60379152139E+02 -0.54767018669E+03  0.59427683274E+03  0.12509176882E+03 0.  0.
        -24    2    1    2    0    0  0.12128994920E+03 -0.10105838325E+03  0.11808616049E+04  0.11941265221E+04  0.81117029204E+02 0.  0.
        -13    1    3    3    0    0  0.45387347800E+02  0.10410014645E+03 -0.45367859547E+03  0.46767629811E+03  0.00000000000E+00 0.  1.
         14    1    3    3    0    0  0.17520227132E+02  0.57337388940E+02 -0.86569272283E+02  0.10530324512E+03  0.00000000000E+00 0. -1.
         13    1    5    5    0    0  0.43467660850E+01 -0.75371671436E+01  0.82412414028E+01  0.11984211439E+02  0.00000000000E+00 0. -1.
        -14    1    5    5    0    0  0.11694318312E+03 -0.93521216103E+02  0.11726203635E+04  0.11821423107E+04  0.00000000000E+00 0.  1.
          5    1    4    4  501    0 -0.61311575913E+02 -0.18048863393E+01 -0.52909452629E+02  0.81112573213E+02  0.41800000000E+01 0. -1.
         -5    1    4    4    0  501 -0.12288594822E+03 -0.58574265800E+02 -0.49476073406E+03  0.51316425953E+03  0.41800000000E+01 0. -1.
</event>
<event>
11    1  0.6455215E-009  0.1363688E+03  0.7561462E-02  0.1111682E+00
         22   -1    0    0    0    0  0.00000000000E+00  0.00000000000E+00  0.44017958289E+03  0.44017958289E+03  0.00000000000E+00 0. -1.
         22   -1    0    0    0    0 -0.00000000000E+00 -0.00000000000E+00 -0.59373099774E+03  0.59373099774E+03  0.00000000000E+00 0. -1.
         24    2    1    2    0    0  0.12288883230E+02  0.32250835974E+02 -0.41202232663E+03  0.42136499776E+03  0.81209178219E+02 0.  0.
         25    2    1    2    0    0 -0.50436677446E+02 -0.69144650192E+02 -0.13638099890E+03  0.20389603121E+03  0.12509585765E+03 0.  0.
        -24    2    1    2    0    0  0.38147794217E+02  0.36893814218E+02  0.39485191067E+03  0.40864955165E+03  0.90939633674E+02 0.  0.
        -11    1    3    3    0    0  0.18041477768E+02  0.55484147038E+02 -0.21082828197E+03  0.21875225706E+03  0.00000000000E+00 0.  1.
         12    1    3    3    0    0 -0.57525945386E+01 -0.23233311064E+02 -0.20119404466E+03  0.20261274070E+03  0.00000000000E+00 0. -1.
         11    1    5    5    0    0 -0.89223085646E-01  0.38110731125E+02  0.33789413391E+03  0.34003658850E+03  0.00000000000E+00 0. -1.
        -12    1    5    5    0    0  0.38237017303E+02 -0.12169169075E+01  0.56957776767E+02  0.68612963157E+02  0.00000000000E+00 0.  1.
          5    1    4    4  501    0 -0.65746283015E+02 -0.72453337725E+02 -0.39376709443E+02  0.10554647092E+03  0.41800000000E+01 0.  1.
         -5    1    4    4    0  501  0.15309605568E+02  0.33086875331E+01 -0.97004289458E+02  0.98349560289E+02  0.41800000000E+01 0.  1.
</event>
<event>
11    1  0.6455215E-009  0.1290271E+03  0.7561462E-02  0.1120470E+00
         22   -1    0    0    0    0  0.00000000000E+00  0.00000000000E+00  0.23838794683E+03  0.23838794683E+03  0.00000000000E+00 0.  1.
         22   -1    0    0    0    0 -0.00000000000E+00 -0.00000000000E+00 -0.71249365089E+03  0.71249365089E+03  0.00000000000E+00 0.  1.
        -24    2    1    2    0    0  0.15559369634E+02 -0.24054274524E+01 -0.43752070847E+03  0.44495401094E+03  0.79446972552E+02 0.  0.
         25    2    1    2    0    0 -0.18609182631E+02  0.33780512440E+02 -0.24641938633E+03  0.27902735105E+03  0.12508526683E+03 0.  0.
         24    2    1    2    0    0  0.30498129969E+01 -0.31375084988E+02  0.20983439074E+03  0.22690023572E+03  0.80371314029E+02 0.  0.
        -11    1    5    5    0    0 -0.14961269718E+02 -0.28086227558E+02  0.20567831960E+03  0.20812555567E+03  0.00000000000E+00 0.  1.
         12    1    5    5    0    0  0.18011082715E+02 -0.32888574302E+01  0.41560711349E+01  0.18774680052E+02  0.00000000000E+00 0. -1.
         13    1    3    3    0    0  0.81623447049E+01 -0.16229513165E+02 -0.19543158392E+02  0.26682503792E+02  0.00000000000E+00 0. -1.
        -14    1    3    3    0    0  0.73970249291E+01  0.13824085713E+02 -0.41797755008E+03  0.41827150715E+03  0.00000000000E+00 0.  1.
          5    1    4    4  501    0 -0.63556490019E+02  0.36859695295E+02 -0.90327856944E+02  0.11651033731E+03  0.41800000000E+01 0. -1.
         -5    1    4    4    0  501  0.44947307388E+02 -0.30791828549E+01 -0.15609152939E+03  0.16251701374E+03  0.41800000000E+01 0. -1.
</event>
<event>
11    1  0.6455215E-009  0.1547852E+03  0.7561462E-02  0.1092087E+00
         22   -1    0    0    0    0  0.00000000000E+00  0.00000000000E+00  0.23570581897E+04  0.23570581897E+04  0.00000000000E+00 0.  1.
         22   -1    0    0    0    0 -0.00000000000E+00 -0.00000000000E+00 -0.92662595745E+02  0.92662595745E+02  0.00000000000E+00 0. -1.
        -24    2    1    2    0    0 -0.28406141174E+02  0.39747135185E+02 -0.24806908305E+02  0.98633619813E+02  0.82015026952E+02 0.  0.
         25    2    1    2    0    0  0.99102345658E+02 -0.92976868932E+02  0.26311735692E+03  0.32147464940E+03  0.12509689695E+03 0.  0.
         24    2    1    2    0    0 -0.70696204484E+02  0.53229733747E+02  0.20260851453E+04  0.20296125162E+04  0.80464849262E+02 0.  0.
        -11    1    5    5    0    0 -0.73276951695E+02  0.70769604746E+02  0.17178430737E+04  0.17208610271E+04  0.00000000000E+00 0.  1.
         12    1    5    5    0    0  0.25807472116E+01 -0.17539870998E+02  0.30824207160E+03  0.30875148912E+03  0.00000000000E+00 0. -1.
         11    1    3    3    0    0 -0.48505061079E+02  0.34347873495E+02 -0.41050498117E+02  0.72233377047E+02  0.00000000000E+00 0. -1.
        -12    1    3    3    0    0  0.20098919905E+02  0.53992616894E+01  0.16243589812E+02  0.26400242766E+02  0.00000000000E+00 0.  1.
          5    1    4    4  501    0 -0.13836410981E+02  0.19599841988E+02  0.25335106188E+02  0.35141714249E+02  0.41800000000E+01 0.  1.
         -5    1    4    4    0  501  0.11293875664E+03 -0.11257671092E+03  0.23778225073E+03  0.28633293515E+03  0.41800000000E+01 0.  1.
</event>
<event>
11    1  0.6455215E-009  0.2152647E+03  0.7561462E-02  0.1044225E+00
         22   -1    0    0    0    0  0.00000000000E+00  0.00000000000E+00  0.97086448273E+03  0.97086448273E+03  0.00000000000E+00 0. -1.
         22   -1    0    0    0    0 -0.00000000000E+00 -0.00000000000E+00 -0.75052546840E+03  0.75052546840E+03  0.00000000000E+00 0.  1.
        -24    2    1    2    0    0 -0.10139485426E+02  0.15169697556E+02 -0.49256283615E+03  0.49929870946E+03  0.79675120426E+02 0.  0.
         25    2    1    2    0    0  0.16202068024E+03  0.72030114031E+02 -0.19641072696E+03  0.29268713450E+03  0.12509814900E+03 0.  0.
         24    2    1    2    0    0 -0.15188119482E+03 -0.87199811588E+02  0.90931257744E+03  0.92940410718E+03  0.79189181525E+02 0.  0.
        -13    1    5    5    0    0 -0.55114070968E+01  0.89560982759E+01  0.16418358139E+02  0.19497430305E+02  0.00000000000E+00 0.  1.
         14    1    5    5    0    0 -0.14636978772E+03 -0.96155909864E+02  0.89289421930E+03  0.90990667687E+03  0.00000000000E+00 0. -1.
         11    1    3    3    0    0 -0.24683572816E+02 -0.23935542967E+02 -0.13499059071E+03  0.13930056915E+03  0.00000000000E+00 0. -1.
        -12    1    3    3    0    0  0.14544087390E+02  0.39105240524E+02 -0.35757224544E+03  0.35999814031E+03  0.00000000000E+00 0.  1.
          5    1    4    4  501    0  0.20073827229E+02 -0.31647101088E+02 -0.56778361313E+02  0.68159755430E+02  0.41800000000E+01 0.  1.
         -5    1    4    4    0  501  0.14194685302E+03  0.10367721512E+03 -0.13963236565E+03  0.22452737907E+03  0.41800000000E+01 0.  1.
</event>
<event>
11    1  0.6455215E-009  0.1570895E+03  0.7561462E-02  0.1089847E+00
         22   -1    0    0    0    0  0.00000000000E+00  0.00000000000E+00  0.36339400627E+03  0.36339400627E+03  0.00000000000E+00 0. -1.
         22   -1    0    0    0    0 -0.00000000000E+00 -0.00000000000E+00 -0.89621573418E+03  0.89621573418E+03  0.00000000000E+00 0. -1.
         24    2    1    2    0    0  0.80306233616E+02  0.51361798300E+02 -0.74074280111E+03  0.75111988666E+03  0.79962874251E+02 0.  0.
         25    2    1    2    0    0 -0.64316202428E+02 -0.70485801808E+02 -0.10177413015E+03  0.18737871904E+03  0.12509192073E+03 0.  0.
        -24    2    1    2    0    0 -0.15990031188E+02  0.19124003508E+02  0.30969520334E+03  0.32111113474E+03  0.81116171475E+02 0.  0.
        -13    1    3    3    0    0  0.10575993754E+01  0.10389334044E+02 -0.85073314451E+01  0.13469649833E+02  0.00000000000E+00 0.  1.
         14    1    3    3    0    0  0.79248634241E+02  0.40972464256E+02 -0.73223546967E+03  0.73765023683E+03  0.00000000000E+00 0. -1.
         13    1    5    5    0    0 -0.75065335125E+01 -0.12020028983E+02  0.26803421959E+03  0.26840859155E+03  0.00000000000E+00 0. -1.
        -14    1    5    5    0    0 -0.84834976754E+01  0.31144032491E+02  0.41660983751E+02  0.52702543199E+02  0.00000000000E+00 0.  1.
          5    1    4    4  501    0 -0.63957689105E-01  0.64948246973E+01 -0.85333597355E+02  0.85682449054E+02  0.41800000000E+01 0. -1.
         -5    1    4    4    0  501 -0.64252244739E+02 -0.76980626505E+02 -0.16440532791E+02  0.10169626999E+03  0.41800000000E+01 0. -1.
</event>
<event>
11    1  0.6455215E-009  0.1713997E+03  0.7561462E-02  0.1076820E+00
         22   -1    0    0    0    0  0.00000000000E+00  0.00000000000E+00  0.18431041406E+03  0.18431041406E+03  0.00000000000E+00 0.  1.
         22   -1    0    0    0    0 -0.00000000000E+00 -0.00000000000E+00 -0.13100662039E+04  0.13100662039E+04  0.00000000000E+00 0.  1.
         24    2    1    2    0    0  0.69818007656E+02  0.56050177231E+02 -0.71094494408E+03  0.72138437694E+03  0.83285828387E+02 0.  0.
         25    2    1    2    0    0 -0.72059268424E+02 -0.17011955190E+03 -0.54047465778E+03  0.58471724276E+03  0.12509275831E+03 0.  0.
        -24    2    1    2    0    0  0.22412607675E+01  0.11406937467E+03  0.12566381203E+03  0.18827499825E+03  0.81481506044E+02 0.  0.
        -13    1    3    3    0    0  0.56785788276E+02  0.73945906907E+02 -0.45322681804E+03  0.46271716144E+03  0.00000000000E+00 0.  1.
         14    1    3    3    0    0  0.13032219380E+02 -0.17895729677E+02 -0.25771812604E+03  0.25866721550E+03  0.00000000000E+00 0. -1.
         13    1    5    5    0    0 -0.28466792269E+02  0.37521583058E+02  0.13393607706E+02  0.48965459097E+02  0.00000000000E+00 0. -1.
        -14    1    5    5    0    0  0.30708053036E+02  0.76547791608E+02  0.11227020432E+03  0.13930953915E+03  0.00000000000E+00 0.  1.
          5    1    4    4  501    0 -0.70229257623E+01 -0.31716451554E+02 -0.12550089393E+02  0.35074662211E+02  0.41800000000E+01 0. -1.
         -5    1    4    4    0  501 -0.65036342662E+02 -0.13840310034E+03 -0.52792456839E+03  0.54964258055E+03  0.41800000000E+01 0. -1.
</event>
<event>
11    1  0.6455215E-009  0.1661188E+03  0.7561462E-02  0.1081459E+00
         22   -1    0    0    0    0  0.00000000000E+00  0.00000000000E+00  0.18758517404E+03  0.18758517404E+03  0.00000000000E+00 0. -1.
         22   -1    0    0    0    0 -0.00000000000E+00 -0.00000000000E+00 -0.37132717001E+03  0.37132717001E+03  0.00000000000E+00 0. -1.
        -24    2    1    2    0    0  0.61142793292E+02  0.33001483386E+02 -0.20036692386E+03  0.22658879567E+03  0.79799994178E+02 0.  0.
         25    2    1    2    0    0 -0.24312824859E+02  0.83305627106E+02 -0.64962496121E+02  0.16552542230E+03  0.12509036159E+03 0.  0.
         24    2    1    2    0    0 -0.36829968433E+02 -0.11630711049E+03  0.81587424002E+02  0.16679812608E+03  0.79254757480E+02 0.  0.
        -11    1    5    5    0    0  0.14643757236E+01  0.68896672442E+01 -0.72891359263E+01  0.10136242575E+02  0.00000000000E+00 0.  1.
         12    1    5    5    0    0 -0.38294344157E+02 -0.12319677774E+03  0.88876559928E+02  0.15666188351E+03  0.00000000000E+00 0. -1.
         13    1    3    3    0    0  0.61507294985E+02  0.25553156334E+02 -0.72291093825E+02  0.98296049674E+02  0.00000000000E+00 0. -1.
        -14    1    3    3    0    0 -0.36450169264E+00  0.74483270522E+01 -0.12807583003E+03  0.12829274600E+03  0.00000000000E+00 0.  1.
          5    1    4    4  501    0 -0.77176991465E+01  0.92928217149E+02  0.43924690484E+01  0.93445078025E+02  0.41800000000E+01 0.  1.
         -5    1    4    4    0  501 -0.16595125713E+02 -0.96225900431E+01 -0.69354965170E+02  0.72080344271E+02  0.41800000000E+01 0.  1.
</event>
<event>
11    1  0.6455215E-009  0.1371060E+03  0.7561462E-02  0.1110834E+00
         22   -1    0    0    0    0  0.00000000000E+00  0.00000000000E+00  0.46143721049E+03  0.46143721049E+03  0.00000000000E+00 0. -1.
         22   -1    0    0    0    0 -0.00000000000E+00 -0.00000000000E+00 -0.14186852855E+03  0.14186852855E+03  0.00000000000E+00 0.  1.
         24    2    1    2    0    0 -0.50341071581E+02 -0.20258310694E+02 -0.43218468742E+01  0.96584597726E+02  0.79782726936E+02 0.  0.
         25    2    1    2    0    0 -0.16861252009E+01 -0.10104635835E+02 -0.37802350487E+02  0.13107209097E+03  0.12508368656E+03 0.  0.
        -24    2    1    2    0    0  0.52027196782E+02  0.30362946529E+02  0.36169287930E+03  0.37564905034E+03  0.81619436169E+02 0.  0.
        -13    1    3    3    0    0 -0.48141446625E+02  0.17215513622E+02  0.16417329016E+02  0.53698244706E+02  0.00000000000E+00 0.  1.
         14    1    3    3    0    0 -0.21996249557E+01 -0.37473824315E+02 -0.20739175891E+02  0.42886353020E+02  0.00000000000E+00 0. -1.
         13    1    5    5    0    0  0.47548536766E+02  0.19310266008E+02  0.35995788578E+03  0.36359789501E+03  0.00000000000E+00 0. -1.
        -14    1    5    5    0    0  0.44786600162E+01  0.11052680521E+02  0.17349935171E+01  0.12051155328E+02  0.00000000000E+00 0.  1.
          5    1    4    4  501    0  0.42138337018E+02  0.24266585215E+02 -0.54128809601E+02  0.72882830855E+02  0.41800000000E+01 0.  1.
         -5    1    4    4    0  501 -0.43824462219E+02 -0.34371221050E+02  0.16326459114E+02  0.58189260112E+02  0.41800000000E+01 0.  1.
</event>
<event>
11    1  0.6455215E-009  0.1322998E+03  0.7561462E-02  0.1116475E+00
         22   -1    0    0    0    0  0.00000000000E+00  0.00000000000E+00  0.10643090059E+03  0.10643090059E+03  0.00000000000E+00 0.  1.
         22   -1    0    0    0    0 -0.00000000000E+00 -0.00000000000E+00 -0.51985543802E+03  0.51985543802E+03  0.00000000000E+00 0.  1.
        -24    2    1    2    0    0 -0.34342609788E+02  0.57561289376E+02 -0.37324458487E+03  0.38748666678E+03  0.79634665322E+02 0.  0.
         25    2    1    2    0    0  0.64027345426E+01  0.50400626859E+01 -0.40146777960E+02  0.13162558694E+03  0.12508850513E+03 0.  0.
         24    2    1    2    0    0  0.27939875245E+02 -0.62601352062E+02 -0.33174597387E-01  0.10717408489E+03  0.82381535931E+02 0.  0.
        -11    1    5    5    0    0  0.52741469665E+02 -0.30112475698E+02  0.16733135800E+02  0.62995409744E+02  0.00000000000E+00 0.  1.
         12    1    5    5    0    0 -0.24801594420E+02 -0.32488876364E+02 -0.16766310398E+02  0.44178675144E+02  0.00000000000E+00 0. -1.
         11    1    3    3    0    0 -0.19140977506E+02  0.71053720102E+02 -0.20099600829E+03  0.21404299453E+03  0.00000000000E+00 0. -1.
        -12    1    3    3    0    0 -0.15201632282E+02 -0.13492430726E+02 -0.17224857658E+03  0.17344367225E+03  0.00000000000E+00 0.  1.
          5    1    4    4  501    0 -0.45576583038E+02 -0.34284660187E+02 -0.32740038128E+02  0.65894198092E+02  0.41800000000E+01 0.  1.
         -5    1    4    4    0  501  0.51979317581E+02  0.39324722873E+02 -0.74067398321E+01  0.65731388850E+02  0.41800000000E+01 0.  1.
</event>
<event>
11    1  0.6455215E-009  0.1461985E+03  0.7561462E-02  0.1100828E+00
         22   -1    0    0    0    0  0.00000000000E+00  0.00000000000E+00  0.56375680854E+03  0.56375680854E+03  0.00000000000E+00 0. -1.
         22   -1    0    0    0    0 -0.00000000000E+00 -0.00000000000E+00 -0.45466342202E+03  0.45466342202E+03  0.00000000000E+00 0.  1.
        -24    2    1    2    0    0  0.83621533124E+02  0.15975659794E+02 -0.35225135328E+03  0.37108302124E+03  0.79836146322E+02 0.  0.
         25    2    1    2    0    0 -0.20634770419E+02 -0.31259463652E+02 -0.39245380472E+02  0.13634630805E+03  0.12508864062E+03 0.  0.
         24    2    1    2    0    0 -0.62986762705E+02  0.15283803858E+02  0.50059012028E+03  0.51099090127E+03  0.79500350470E+02 0.  0.
        -13    1    5    5    0    0 -0.30584869260E+02  0.22607095026E+02  0.74867001494E+02  0.83973703537E+02  0.00000000000E+00 0.  1.
         14    1    5    5    0    0 -0.32401893445E+02 -0.73232911675E+01  0.42572311878E+03  0.42701719773E+03  0.00000000000E+00 0. -1.
         11    1    3    3    0    0  0.68291443282E+01 -0.11113630890E+02 -0.18087106372E+03  0.18134081640E+03  0.00000000000E+00 0. -1.
        -12    1    3    3    0    0  0.76792388796E+02  0.27089290684E+02 -0.17138028957E+03  0.18974220484E+03  0.00000000000E+00 0.  1.
          5    1    4    4  501    0  0.22048477596E+02 -0.64619545236E+02 -0.44736363599E+02  0.81735155343E+02  0.41800000000E+01 0.  1.
         -5    1    4    4    0  501 -0.42683248015E+02  0.33360081584E+02  0.54909831265E+01  0.54611152708E+02  0.41800000000E+01 0.  1.
</event>
<event>
11    1  0.6455215E-009  0.1417961E+03  0.7561462E-02  0.1105569E+00
         22   -1    0    0    0    0  0.00000000000E+00  0.00000000000E+00  0.51609005290E+03  0.51609005290E+03  0.00000000000E+00 0. -1.
         22   -1    0    0    0    0 -0.00000000000E+00 -0.00000000000E+00 -0.87915936007E+03  0.87915936007E+03  0.00000000000E+00 0.  1.
         24    2    1    2    0    0  0.42254142709E+02  0.51098764990E+02 -0.84201724596E+03  0.84851429748E+03  0.81160176037E+02 0.  0.
         25    2    1    2    0    0 -0.85473947514E+02 -0.65385404264E+02  0.24555406642E+03  0.29584887147E+03  0.12509479773E+03 0.  0.
        -24    2    1    2    0    0  0.43219804805E+02  0.14286639274E+02  0.23339387237E+03  0.25088624402E+03  0.79994676007E+02 0.  0.
        -11    1    3    3    0    0  0.25024600573E+02  0.48593831343E+02 -0.23599848375E+03  0.24224548585E+03  0.00000000000E+00 0.  1.
         12    1    3    3    0    0  0.17229542136E+02  0.25049336467E+01 -0.60601876220E+03  0.60626881163E+03  0.00000000000E+00 0. -1.
         11    1    5    5    0    0  0.48174679007E+02 -0.16641232192E+02  0.19385989377E+03  0.20044797010E+03  0.00000000000E+00 0. -1.
        -12    1    5    5    0    0 -0.49548742018E+01  0.30927871465E+02  0.39533978601E+02  0.50438273917E+02  0.00000000000E+00 0.  1.
          5    1    4    4  501    0 -0.10326916988E+03 -0.63403653621E+02  0.24917372638E+03  0.27710929803E+03  0.41800000000E+01 0. -1.
         -5    1    4    4    0  501  0.17795222364E+02 -0.19817506428E+01 -0.36196599518E+01  0.18739573441E+02  0.41800000000E+01 0. -1.
</event>
<event>
11    1  0.6455215E-009  0.1379385E+03  0.7561462E-02  0.1109882E+00
         22   -1    0    0    0    0  0.00000000000E+00  0.00000000000E+00  0.29085247538E+04  0.29085247538E+04  0.00000000000E+00 0.  1.
         22   -1    0    0    0    0 -0.00000000000E+00 -0.00000000000E+00 -0.30451081048E+02  0.30451081048E+02  0.00000000000E+00 0.  1.
        -24    2    1    2    0    0  0.14088488120E+02  0.12714196398E+02  0.48984881743E+02  0.98792635527E+02  0.83667974204E+02 0.  0.
         25    2    1    2    0    0  0.48670655750E+02 -0.88045248796E+01  0.12094385527E+04  0.12168955039E+04  0.12508677885E+03 0.  0.
         24    2    1    2    0    0 -0.62759143871E+02 -0.39096715181E+01  0.16196502382E+04  0.16232876954E+04  0.88555361282E+02 0.  0.
        -13    1    5    5    0    0  0.22516599050E+02 -0.24131931282E+01  0.27182509904E+03  0.27276675971E+03  0.00000000000E+00 0.  1.
         14    1    5    5    0    0 -0.85275742921E+02 -0.14964783899E+01  0.13478251392E+04  0.13505209356E+04  0.00000000000E+00 0. -1.
         13    1    3    3    0    0 -0.32694751219E+02  0.20171935083E+02  0.21568990417E+02  0.44057633503E+02  0.00000000000E+00 0. -1.
        -14    1    3    3    0    0  0.46783239339E+02 -0.74577386852E+01  0.27415891326E+02  0.54735002024E+02  0.00000000000E+00 0.  1.
          5    1    4    4  501    0  0.64071740933E+01 -0.44657767060E+02  0.97133129422E+03  0.97238743491E+03  0.41800000000E+01 0.  1.
         -5    1    4    4    0  501  0.42263481657E+02  0.35853242181E+02  0.23810725851E+03  0.24450806902E+03  0.41800000000E+01 0.  1.
</event>
<event>
11    1  0.6455215E-009  0.1763239E+03  0.7561462E-02  0.1072656E+00
         22   -1    0    0    0    0  0.00000000000E+00  0.00000000000E+00  0.39020263106E+03  0.39020263106E+03  0.00000000000E+00 0.  1.
         22   -1    0    0    0    0 -0.00000000000E+00 -0.00000000000E+00 -0.90821537129E+03  0.90821537129E+03  0.00000000000E+00 0. -1.
         24    2    1    2    0    0 -0.61712875345E+01  0.30798884385E+02 -0.57441799651E+03  0.58111215055E+03  0.82150110962E+02 0.  0.
         25    2    1    2    0    0  0.72306589193E+02 -0.13438891352E+03 -0.28439066472E+03  0.34614925193E+03  0.12511047723E+03 0.  0.
        -24    2    1    2    0    0 -0.66135301658E+02  0.10359002914E+03  0.34079592101E+03  0.37115659986E+03  0.80688224545E+02 0.  0.
        -11    1    3    3    0    0 -0.43274366364E+02  0.16627091517E+02 -0.24893913313E+03  0.25321892299E+03  0.00000000000E+00 0.  1.
         12    1    3    3    0    0  0.37103078829E+02  0.14171792868E+02 -0.32547886338E+03  0.32789322756E+03  0.00000000000E+00 0. -1.
         11    1    5    5    0    0  0.74858529239E+01  0.51798249756E+02  0.83258002111E+02  0.98341199847E+02  0.00000000000E+00 0. -1.
        -12    1    5    5    0    0 -0.73621154582E+02  0.51791779384E+02  0.25753791890E+03  0.27281540002E+03  0.00000000000E+00 0.  1.
          5    1    4    4  501    0 -0.17867529067E+02 -0.98477981601E+02 -0.14256713922E+03  0.17424127824E+03  0.41800000000E+01 0. -1.
         -5    1    4    4    0  501  0.90174118259E+02 -0.35910931923E+02 -0.14182352550E+03  0.17190797370E+03  0.41800000000E+01 0. -1.
</event>
<event>
11    1  0.6455215E-009  0.2078614E+03  0.7561462E-02  0.1049100E+00
         22   -1    0    0    0    0  0.00000000000E+00  0.00000000000E+00  0.58715532412E+03  0.58715532412E+03  0.00000000000E+00 0. -1.
         22   -1    0    0    0    0 -0.00000000000E+00 -0.00000000000E+00 -0.51999763050E+03  0.51999763050E+03  0.00000000000E+00 0.  1.
        -24    2    1    2    0    0  0.24404012275E+02 -0.37947729285E+02 -0.39097700792E+03  0.40151278845E+03  0.79460132086E+02 0.  0.
         25    2    1    2    0    0 -0.94047992631E+02  0.18147766140E+03  0.29727925322E+02  0.24147633616E+03  0.12509158596E+03 0.  0.
         24    2    1    2    0    0  0.69643980356E+02 -0.14352993211E+03  0.42840677622E+03  0.46416383002E+03  0.80402548300E+02 0.  0.
        -13    1    5    5    0    0  0.60528035601E+02 -0.46122833068E+02  0.13623798000E+03  0.15605045985E+03  0.00000000000E+00 0.  1.
         14    1    5    5    0    0  0.91159447550E+01 -0.97407099043E+02  0.29216879622E+03  0.30811337017E+03  0.00000000000E+00 0. -1.
         13    1    3    3    0    0 -0.22548544759E+02 -0.84372672392E+01 -0.22988960767E+03  0.23114682793E+03  0.00000000000E+00 0. -1.
        -14    1    3    3    0    0  0.46952557034E+02 -0.29510462046E+02 -0.16108740026E+03  0.17036596052E+03  0.00000000000E+00 0.  1.
          5    1    4    4  501    0  0.17746113666E+02  0.93697306206E+02 -0.32218538820E+01  0.95508965458E+02  0.41800000000E+01 0.  1.
         -5    1    4    4    0  501 -0.11179410630E+03  0.87780355191E+02  0.32949779204E+02  0.14596737070E+03  0.41800000000E+01 0.  1.
</event>
<event>
11    1  0.6455215E-009  0.2359162E+03  0.7561462E-02  0.1031681E+00
         22   -1    0    0    0    0  0.00000000000E+00  0.00000000000E+00  0.74630625172E+02  0.74630625172E+02  0.00000000000E+00 0.  1.
         22   -1    0    0    0    0 -0.00000000000E+00 -0.00000000000E+00 -0.19487701943E+04  0.19487701943E+04  0.00000000000E+00 0. -1.
        -24    2    1    2    0    0 -0.69466687130E+02 -0.20197364865E+03 -0.84639312825E+03  0.87692002706E+03  0.83596835644E+02 0.  0.
         25    2    1    2    0    0  0.12946095802E+03 -0.88171907197E+02 -0.43504331357E+03  0.47900392655E+03  0.12509057559E+03 0.  0.
         24    2    1    2    0    0 -0.59994270893E+02  0.29014555585E+03 -0.59270312727E+03  0.66747686583E+03  0.80278348384E+02 0.  0.
        -11    1    5    5    0    0 -0.60533498397E+02  0.27117163856E+03 -0.49229179510E+03  0.56528716022E+03  0.00000000000E+00 0.  1.
         12    1    5    5    0    0  0.53922750316E+00  0.18973917287E+02 -0.10041133217E+03  0.10218970561E+03  0.00000000000E+00 0. -1.
         13    1    3    3    0    0  0.53973656811E+01 -0.11119055075E+03 -0.43644473348E+03  0.45041811188E+03  0.00000000000E+00 0. -1.
        -14    1    3    3    0    0 -0.74864052811E+02 -0.90783097901E+02 -0.40994839478E+03  0.42650191518E+03  0.00000000000E+00 0.  1.
          5    1    4    4  501    0  0.12128186469E+03 -0.80689213120E+02 -0.22155400657E+03  0.26518614225E+03  0.41800000000E+01 0. -1.
         -5    1    4    4    0  501  0.81790933303E+01 -0.74826940772E+01 -0.21348930701E+03  0.21381778430E+03  0.41800000000E+01 0. -1.
</event>
<event>
11    1  0.6455215E-009  0.2294064E+03  0.7561462E-02  0.1035480E+00
         22   -1    0    0    0    0  0.00000000000E+00  0.00000000000E+00  0.52767927596E+03  0.52767927596E+03  0.00000000000E+00 0. -1.
         22   -1    0    0    0    0 -0.00000000000E+00 -0.00000000000E+00 -0.50587923667E+03  0.50587923667E+03  0.00000000000E+00 0.  1.
         24    2    1    2    0    0 -0.12164359524E+03 -0.12669552935E+03 -0.18053936225E+03  0.26302389374E+03  0.75750814753E+02 0.  0.
         25    2    1    2    0    0  0.97399529528E+02  0.19894330214E+03 -0.21859830417E+03  0.33540741515E+03  0.12509120565E+03 0.  0.
        -24    2    1    2    0    0  0.24244065714E+02 -0.72247772786E+02  0.42093770572E+03  0.43512720375E+03  0.79621705292E+02 0.  0.
        -13    1    3    3    0    0 -0.40498806039E+02 -0.22948796565E+02 -0.95513132519E+02  0.10625233662E+03  0.00000000000E+00 0.  1.
         14    1    3    3    0    0 -0.81144789203E+02 -0.10374673279E+03 -0.85026229731E+02  0.15677155712E+03  0.00000000000E+00 0. -1.
         13    1    5    5    0    0 -0.24244940058E+02 -0.47501233757E+02  0.16283578702E+03  0.17134665990E+03  0.00000000000E+00 0. -1.
        -14    1    5    5    0    0  0.48489005772E+02 -0.24746539029E+02  0.25810191870E+03  0.26378054385E+03  0.00000000000E+00 0.  1.
          5    1    4    4  501    0 -0.17669442721E+02 -0.24869218900E+01 -0.27880815961E+01  0.18537523717E+02  0.41800000000E+01 0.  1.
         -5    1    4    4    0  501  0.11506897225E+03  0.20143022403E+03 -0.21581022258E+03  0.31686989143E+03  0.41800000000E+01 0.  1.
</event>
<event>
11    1  0.6455215E-009  0.1409292E+03  0.7561462E-02  0.1106525E+00
         22   -1    0    0    0    0  0.00000000000E+00  0.00000000000E+00  0.12516903402E+03  0.12516903402E+03  0.00000000000E+00 0. -1.
         22   -1    0    0    0    0 -0.00000000000E+00 -0.00000000000E+00 -0.47889534951E+03  0.47889534951E+03  0.00000000000E+00 0.  1.
         24    2    1    2    0    0  0.52414067710E+01 -0.68380830983E+02 -0.27361537013E+03  0.29352220302E+03  0.81157270186E+02 0.  0.
         25    2    1    2    0    0  0.38224082119E+02  0.53608577697E+02 -0.13958221698E+03  0.19866032388E+03  0.12509104256E+03 0.  0.
        -24    2    1    2    0    0 -0.43465488890E+02  0.14772253286E+02  0.59471271611E+02  0.11188185663E+03  0.82905063204E+02 0.  0.
        -13    1    3    3    0    0 -0.16500853443E+02 -0.79600204982E+02 -0.19767500221E+03  0.21373787052E+03  0.00000000000E+00 0.  1.
         14    1    3    3    0    0  0.21742260214E+02  0.11219373999E+02 -0.75940367916E+02  0.79784332493E+02  0.00000000000E+00 0. -1.
         13    1    5    5    0    0  0.15282934442E+01  0.39379676174E+02  0.42268358331E+02  0.57790212774E+02  0.00000000000E+00 0. -1.
        -14    1    5    5    0    0 -0.44993782335E+02 -0.24607422888E+02  0.17202913280E+02  0.54091643858E+02  0.00000000000E+00 0.  1.
          5    1    4    4  501    0 -0.32122050041E+02 -0.12659392674E+02 -0.74073740240E+02  0.81832009109E+02  0.41800000000E+01 0. -1.
         -5    1    4    4    0  501  0.70346132161E+02  0.66267970371E+02 -0.65508476740E+02  0.11682831477E+03  0.41800000000E+01 0. -1.
</event>
<event>
11    1  0.6455215E-009  0.1444717E+03  0.7561462E-02  0.1102665E+00
         22   -1    0    0    0    0  0.00000000000E+00  0.00000000000E+00  0.10159924156E+03  0.10159924156E+03  0.00000000000E+00 0.  1.
         22   -1    0    0    0    0 -0.00000000000E+00 -0.00000000000E+00 -0.20483318054E+04  0.20483318054E+04  0.00000000000E+00 0. -1.
         24    2    1    2    0    0  0.12489024129E+02  0.73135549967E+02 -0.16886112033E+04  0.16923110454E+04  0.83690465970E+02 0.  0.
         25    2    1    2    0    0  0.29827116777E+02 -0.61225469968E+02 -0.31733079427E+03  0.34782834630E+03  0.12509000933E+03 0.  0.
        -24    2    1    2    0    0 -0.42316140906E+02 -0.11910079999E+02  0.59209433724E+02  0.10979165526E+03  0.81338457914E+02 0.  0.
        -11    1    3    3    0    0  0.31189256294E+02 -0.46330980000E+01 -0.53779810174E+03  0.53872166611E+03  0.00000000000E+00 0.  1.
         12    1    3    3    0    0 -0.18700232165E+02  0.77768647967E+02 -0.11508131016E+04  0.11535893793E+04  0.00000000000E+00 0. -1.
         11    1    5    5    0    0  0.24027121136E+02  0.88163877666E+00  0.22346985193E+02  0.32824801359E+02  0.00000000000E+00 0. -1.
        -12    1    5    5    0    0 -0.66343262042E+02 -0.12791718776E+02  0.36862448531E+02  0.76966853900E+02  0.00000000000E+00 0.  1.
          5    1    4    4  501    0  0.60953117056E+02 -0.22590580469E+01 -0.22933733708E+03  0.23734673455E+03  0.41800000000E+01 0. -1.
         -5    1    4    4    0  501 -0.31126000279E+02 -0.58966411921E+02 -0.87993457192E+02  0.11048161176E+03  0.41800000000E+01 0. -1.
</event>
<event>
11    1  0.6455215E-009  0.1640421E+03  0.7561462E-02  0.1083336E+00
         22   -1    0    0    0    0  0.00000000000E+00  0.00000000000E+00  0.38687851347E+03  0.38687851347E+03  0.00000000000E+00 0.  1.
         22   -1    0    0    0    0 -0.00000000000E+00 -0.00000000000E+00 -0.12204820806E+04  0.12204820806E+04  0.00000000000E+00 0.  1.
        -24    2    1    2    0    0  0.14788173557E+02 -0.10747720863E+03 -0.10051996793E+04  0.10142870788E+04  0.81128555456E+02 0.  0.
         25    2    1    2    0    0  0.33040573545E+02  0.94059721896E+02 -0.17306327569E+03  0.23565840234E+03  0.12508027189E+03 0.  0.
         24    2    1    2    0    0 -0.47828747101E+02  0.13417486731E+02  0.34465938786E+03  0.35741511293E+03  0.80547199270E+02 0.  0.
        -11    1    5    5    0    0 -0.15902686792E+02  0.31017707332E+02  0.28759503458E+03  0.28969966781E+03  0.00000000000E+00 0.  1.
         12    1    5    5    0    0 -0.31926060309E+02 -0.17600220602E+02  0.57064353281E+02  0.67715445118E+02  0.00000000000E+00 0. -1.
         11    1    3    3    0    0 -0.17033343490E+02 -0.78577936045E+01 -0.50407089197E+02  0.53784331846E+02  0.00000000000E+00 0. -1.
        -12    1    3    3    0    0  0.31821517046E+02 -0.99619415022E+02 -0.95479259013E+03  0.96050274699E+03  0.00000000000E+00 0.  1.
          5    1    4    4  501    0  0.64009469460E+02  0.68836236432E+02 -0.17132448244E+03  0.19546148038E+03  0.41800000000E+01 0. -1.
         -5    1    4    4    0  501 -0.30968895916E+02  0.25223485464E+02 -0.17387932503E+01  0.40196921961E+02  0.41800000000E+01 0. -1.
</event>
<event>
11    1  0.6455215E-009  0.1867694E+03  0.7561462E-02  0.1064295E+00
         22   -1    0    0    0    0  0.00000000000E+00  0.00000000000E+00  0.10289569610E+04  0.10289569610E+04  0.00000000000E+00 0.  1.
         22   -1    0    0    0    0 -0.00000000000E+00 -0.00000000000E+00 -0.12945344434E+03  0.12945344434E+03  0.00000000000E+00 0.  1.
         24    2    1    2    0    0  0.13295686680E+03  0.23103196357E+02 -0.31000091098E+02  0.16295142429E+03  0.85912018476E+02 0.  0.
         25    2    1    2    0    0 -0.15477419333E+03 -0.32630550454E+02  0.31247425234E+03  0.37189749156E+03  0.12509109525E+03 0.  0.
        -24    2    1    2    0    0  0.21817326525E+02  0.95273540974E+01  0.61802935544E+03  0.62356148952E+03  0.79384386415E+02 0.  0.
        -13    1    3    3    0    0  0.28274540826E+02  0.19700384680E+02 -0.45647203378E+02  0.57194597574E+02  0.00000000000E+00 0.  1.
         14    1    3    3    0    0  0.10468232598E+03  0.34028116763E+01  0.14647112280E+02  0.10575682672E+03  0.00000000000E+00 0. -1.
         11    1    5    5    0    0 -0.25920367314E+02  0.71313764862E+01  0.36955800580E+03  0.37053453499E+03  0.00000000000E+00 0. -1.
        -12    1    5    5    0    0  0.47737693839E+02  0.23959776112E+01  0.24847134964E+03  0.25302695452E+03  0.00000000000E+00 0.  1.
          5    1    4    4  501    0 -0.61953914789E+02 -0.56699896945E+02  0.64438158300E+02  0.10593825804E+03  0.41800000000E+01 0. -1.
         -5    1    4    4    0  501 -0.92820278538E+02  0.24069346491E+02  0.24803609404E+03  0.26595923352E+03  0.41800000000E+01 0. -1.
</event>
<event>
11    1  0.6455215E-009  0.1378883E+03  0.7561462E-02  0.1109940E+00
         22   -1    0    0    0    0  0.00000000000E+00  0.00000000000E+00  0.78044879387E+02  0.78044879387E+02  0.00000000000E+00 0.  1.
         22   -1    0    0    0    0 -0.00000000000E+00 -0.00000000000E+00 -0.11811300439E+04  0.11811300439E+04  0.00000000000E+00 0. -1.
         24    2    1    2    0    0  0.53443918674E+02  0.12006553267E+02 -0.77685936780E+03  0.78359453345E+03  0.86657404438E+02 0.  0.
         25    2    1    2    0    0 -0.77916073284E+02  0.28779692487E+02 -0.34920643875E+03  0.38012098971E+03  0.12509054633E+03 0.  0.
        -24    2    1    2    0    0  0.24472154611E+02 -0.40786245754E+02  0.22980642042E+02  0.95459400120E+02  0.79510898426E+02 0.  0.
        -13    1    3    3    0    0 -0.19470914675E+01 -0.81387323670E+01 -0.51968753100E+03  0.51975490379E+03  0.00000000000E+00 0.  1.
         14    1    3    3    0    0  0.55391010141E+02  0.20145285634E+02 -0.25717183680E+03  0.26383962966E+03  0.00000000000E+00 0. -1.
         11    1    5    5    0    0 -0.14735653403E+02 -0.59745195085E+01 -0.21472792380E+02  0.26719191178E+02  0.00000000000E+00 0. -1.
        -12    1    5    5    0    0  0.39207808014E+02 -0.34811726246E+02  0.44453434422E+02  0.68740208942E+02  0.00000000000E+00 0.  1.
          5    1    4    4  501    0 -0.47918542312E+02  0.10971095948E+01 -0.26720226109E+02  0.55034836514E+02  0.41800000000E+01 0. -1.
         -5    1    4    4    0  501 -0.29997530972E+02  0.27682582892E+02 -0.32248621264E+03  0.32508615320E+03  0.41800000000E+01 0. -1.
</event>
<event>
11    1  0.6455215E-009  0.1605521E+03  0.7561462E-02  0.1086559E+00
         22   -1    0    0    0    0  0.00000000000E+00  0.00000000000E+00  0.45137577593E+03  0.45137577593E+03  0.00000000000E+00 0. -1.
         22   -1    0    0    0    0 -0.00000000000E+00 -0.00000000000E+00 -0.40561200530E+03  0.40561200530E+03  0.00000000000E+00 0.  1.
        -24    2    1    2    0    0 -0.10272545495E+02 -0.59052238302E+02 -0.34945712312E+03  0.36355681491E+03  0.80377762634E+02 0.  0.
         25    2    1    2    0    0  0.84793144782E+02 -0.28025052389E+02  0.17666618201E+03  0.23417501910E+03  0.12510682931E+03 0.  0.
         24    2    1    2    0    0 -0.74520599287E+02  0.87077290691E+02  0.21855471175E+03  0.25925594722E+03  0.79446270337E+02 0.  0.
        -11    1    5    5    0    0 -0.12640574747E+02 -0.73546033481E+01  0.16367860251E+01  0.14715753084E+02  0.00000000000E+00 0.  1.
         12    1    5    5    0    0 -0.61880024540E+02  0.94431894039E+02  0.21691792572E+03  0.24454019414E+03  0.00000000000E+00 0. -1.
         13    1    3    3    0    0 -0.29757895578E+02  0.80031731396E+00 -0.55953361292E+02  0.63379424871E+02  0.00000000000E+00 0. -1.
        -14    1    3    3    0    0  0.19485350083E+02 -0.59852555616E+02 -0.29350376183E+03  0.30017739004E+03  0.00000000000E+00 0.  1.
          5    1    4    4  501    0 -0.13393777920E+02  0.28059967668E+02  0.10387190589E+02  0.33047257084E+02  0.41800000000E+01 0. -1.
         -5    1    4    4    0  501  0.98186922702E+02 -0.56085020056E+02  0.16627899142E+03  0.20112776201E+03  0.41800000000E+01 0. -1.
</event>
<event>
11    1  0.6455215E-009  0.1553966E+03  0.7561462E-02  0.1091489E+00
         22   -1    0    0    0    0  0.00000000000E+00  0.00000000000E+00  0.14268575498E+04  0.14268575498E+04  0.00000000000E+00 0.  1.
         22   -1    0    0    0    0 -0.00000000000E+00 -0.00000000000E+00 -0.17512333869E+04  0.17512333869E+04  0.00000000000E+00 0. -1.
        -24    2    1    2    0    0 -0.55178264964E+02  0.71726832829E+02 -0.16152877984E+04  0.16198599429E+04  0.81253822128E+02 0.  0.
         25    2    1    2    0    0  0.58066149580E+02 -0.14067260292E+03 -0.57922477672E+02  0.20533571358E+03  0.12508909990E+03 0.  0.
         24    2    1    2    0    0 -0.28878846161E+01  0.68945770094E+02  0.13488344389E+04  0.13528952802E+04  0.78799978509E+02 0.  0.
        -13    1    5    5    0    0 -0.19980505363E+02  0.38306370633E+02  0.26545301732E+03  0.26894591097E+03  0.00000000000E+00 0.  1.
         14    1    5    5    0    0  0.17092620747E+02  0.30639399461E+02  0.10833814216E+04  0.10839493693E+04  0.00000000000E+00 0. -1.
         11    1    3    3    0    0 -0.64663939493E+02  0.65948078081E+02 -0.15834291799E+04  0.15861205950E+04  0.00000000000E+00 0. -1.
        -12    1    3    3    0    0  0.94856745298E+01  0.57787547481E+01 -0.31858618481E+02  0.33739347938E+02  0.00000000000E+00 0.  1.
          5    1    4    4  501    0  0.16126306468E+02 -0.20337214972E+02 -0.72388682457E+02  0.77014633811E+02  0.41800000000E+01 0. -1.
         -5    1    4    4    0  501  0.41939843111E+02 -0.12033538795E+03  0.14466204785E+02  0.12832107977E+03  0.41800000000E+01 0. -1.
</event>
<event>
11    1  0.6455215E-009  0.1596128E+03  0.7561462E-02  0.1087442E+00
         22   -1    0    0    0    0  0.00000000000E+00  0.00000000000E+00  0.18463805646E+04  0.18463805646E+04  0.00000000000E+00 0.  1.
         22   -1    0    0    0    0 -0.00000000000E+00 -0.00000000000E+00 -0.10911491829E+04  0.10911491829E+04  0.00000000000E+00 0. -1.
         24    2    1    2    0    0  0.90745747895E+02  0.35508518484E+02 -0.93915236829E+03  0.94969494409E+03  0.10206698932E+03 0.  0.
         25    2    1    2    0    0 -0.12038869619E+03 -0.86250433438E+01 -0.93703664972E+02  0.19747172725E+03  0.12508747616E+03 0.  0.
        -24    2    1    2    0    0  0.29642948294E+02 -0.26883475140E+02  0.17880874150E+04  0.17903630761E+04  0.80882105486E+02 0.  0.
        -13    1    3    3    0    0  0.31572047307E+02  0.54619259593E+02 -0.25364490918E+03  0.26137290916E+03  0.00000000000E+00 0.  1.
         14    1    3    3    0    0  0.59173700588E+02 -0.19110741109E+02 -0.68550745911E+03  0.68832203493E+03  0.00000000000E+00 0. -1.
         11    1    5    5    0    0 -0.17645129609E+02 -0.24379230151E+01  0.11254214217E+04  0.11255623797E+04  0.00000000000E+00 0. -1.
        -12    1    5    5    0    0  0.47288077903E+02 -0.24445552125E+02  0.66266599323E+03  0.66480069639E+03  0.00000000000E+00 0.  1.
          5    1    4    4  501    0 -0.37968064699E+02 -0.30910833727E+02 -0.10034623813E+03  0.11173134513E+03  0.41800000000E+01 0. -1.
         -5    1    4    4    0  501 -0.82420631490E+02  0.22285790383E+02  0.66425731544E+01  0.85740382121E+02  0.41800000000E+01 0. -1.
</event>
<event>
11    1  0.6455215E-009  0.1323010E+03  0.7561462E-02  0.1116474E+00
         22   -1    0    0    0    0  0.00000000000E+00  0.00000000000E+00  0.11554524501E+04  0.11554524501E+04  0.00000000000E+00 0. -1.
         22   -1    0    0    0    0 -0.00000000000E+00 -0.00000000000E+00 -0.13472799630E+03  0.13472799630E+03  0.00000000000E+00 0.  1.
         24    2    1    2    0    0  0.83723912619E+01 -0.43741045478E+02 -0.10065456043E+03  0.13630022080E+03  0.80392995098E+02 0.  0.
         25    2    1    2    0    0  0.59320070771E+01  0.21598809368E+02  0.27024460152E+03  0.29863010872E+03  0.12508437117E+03 0.  0.
        -24    2    1    2    0    0 -0.14304398339E+02  0.22142236109E+02  0.85113441267E+03  0.85525011684E+03  0.79549226830E+02 0.  0.
        -13    1    3    3    0    0  0.36280836723E+02 -0.48781062228E+02 -0.83040300830E+02  0.10291541530E+03  0.00000000000E+00 0.  1.
         14    1    3    3    0    0 -0.27908445461E+02  0.50400167505E+01 -0.17614259600E+02  0.33384805498E+02  0.00000000000E+00 0. -1.
         13    1    5    5    0    0 -0.20793297808E+01  0.11176448578E+02  0.81974825177E+03  0.81982707499E+03  0.00000000000E+00 0. -1.
        -14    1    5    5    0    0 -0.12225068558E+02  0.10965787531E+02  0.31386160905E+02  0.35423041848E+02  0.00000000000E+00 0.  1.
          5    1    4    4  501    0  0.50287354629E+02 -0.29035320474E+02  0.10328242694E+03  0.11856053300E+03  0.41800000000E+01 0. -1.
         -5    1    4    4    0  501 -0.44355347552E+02  0.50634129842E+02  0.16696217457E+03  0.18006957572E+03  0.41800000000E+01 0. -1.
</event>
<event>
11    1  0.6455215E-009  0.1266581E+03  0.7561462E-02  0.1123445E+00
         22   -1    0    0    0    0  0.00000000000E+00  0.00000000000E+00  0.24276714749E+04  0.24276714749E+04  0.00000000000E+00 0. -1.
         22   -1    0    0    0    0 -0.00000000000E+00 -0.00000000000E+00 -0.19213896246E+03  0.19213896246E+03  0.00000000000E+00 0. -1.
        -24    2    1    2    0    0 -0.20048465249E+01  0.19700319566E+02 -0.17273367430E+03  0.19220210334E+03  0.81930484483E+02 0.  0.
         25    2    1    2    0    0 -0.45143471274E+01 -0.19131603425E+02  0.44344904955E+03  0.46117740860E+03  0.12510453659E+03 0.  0.
         24    2    1    2    0    0  0.65191936523E+01 -0.56871614164E+00  0.19648171372E+04  0.19664309254E+04  0.79381222926E+02 0.  0.
        -11    1    5    5    0    0  0.43152411141E+01  0.18170426001E+02  0.11415435680E+03  0.11567196230E+03  0.00000000000E+00 0.  1.
         12    1    5    5    0    0  0.22039525382E+01 -0.18739142142E+02  0.18506627804E+04  0.18507589631E+04  0.00000000000E+00 0. -1.
         13    1    3    3    0    0 -0.14426654379E+02  0.21331034938E+02 -0.17707892151E+03  0.17894157106E+03  0.00000000000E+00 0. -1.
        -14    1    3    3    0    0  0.12421807854E+02 -0.16307153714E+01  0.43452472105E+01  0.13260532278E+02  0.00000000000E+00 0.  1.
          5    1    4    4  501    0 -0.49812643870E+02 -0.27245964421E+02  0.10369365105E+03  0.11829407312E+03  0.41800000000E+01 0. -1.
         -5    1    4    4    0  501  0.45298296742E+02  0.81143609960E+01  0.33975539850E+03  0.34288333548E+03  0.41800000000E+01 0. -1.
</event>
<event>
11    1  0.6455215E-009  0.1822837E+03  0.7561462E-02  0.1067810E+00
         22   -1    0    0    0    0  0.00000000000E+00  0.00000000000E+00  0.17211539973E+04  0.17211539973E+04  0.00000000000E+00 0.  1.
         22   -1    0    0    0    0 -0.00000000000E+00 -0.00000000000E+00 -0.16166451817E+03  0.16166451817E+03  0.00000000000E+00 0. -1.
        -24    2    1    2    0    0  0.91991641839E+02 -0.10304724212E+03 -0.10464225222E+03  0.19121445786E+03  0.80819376818E+02 0.  0.
         25    2    1    2    0    0 -0.61707161818E+02  0.42693498736E+02  0.45341893828E+03  0.47630504546E+03  0.12508898467E+03 0.  0.
         24    2    1    2    0    0 -0.30284480021E+02  0.60353743380E+02  0.12107127931E+04  0.12152990122E+04  0.81033928345E+02 0.  0.
        -11    1    5    5    0    0  0.42915821424E+01  0.68240379823E+02  0.89275025156E+03  0.89536482999E+03  0.00000000000E+00 0.  1.
         12    1    5    5    0    0 -0.34576062163E+02 -0.78866364437E+01  0.31796254156E+03  0.31993418220E+03  0.00000000000E+00 0. -1.
         13    1    3    3    0    0  0.43842256307E+02 -0.37627004184E+02 -0.92531918656E+02  0.10908753757E+03  0.00000000000E+00 0. -1.
        -14    1    3    3    0    0  0.48149385532E+02 -0.65420237931E+02 -0.12110333565E+02  0.82126920295E+02  0.00000000000E+00 0.  1.
          5    1    4    4  501    0 -0.35204706460E+02  0.85133063223E+02  0.33969909971E+03  0.35199426210E+03  0.41800000000E+01 0. -1.
         -5    1    4    4    0  501 -0.26502455359E+02 -0.42439564487E+02  0.11371983857E+03  0.12431078335E+03  0.41800000000E+01 0. -1.
</event>
<event>
11    1  0.6455215E-009  0.1326560E+03  0.7561462E-02  0.1116048E+00
         22   -1    0    0    0    0  0.00000000000E+00  0.00000000000E+00  0.56818459518E+03  0.56818459518E+03  0.00000000000E+00 0. -1.
         22   -1    0    0    0    0 -0.00000000000E+00 -0.00000000000E+00 -0.24786579621E+04  0.24786579621E+04  0.00000000000E+00 0. -1.
        -24    2    1    2    0    0  0.25734046530E+02 -0.11961794835E+02 -0.22035772108E+04  0.22053158017E+04  0.82824727472E+02 0.  0.
         25    2    1    2    0    0 -0.45173164796E+02  0.51285726824E+02 -0.25183662192E+03  0.28937906987E+03  0.12509085236E+03 0.  0.
         24    2    1    2    0    0  0.19439118266E+02 -0.39323931988E+02  0.54494046582E+03  0.55214768570E+03  0.77347944950E+02 0.  0.
        -13    1    5    5    0    0  0.30515646060E+02 -0.13904096908E+02  0.85052996069E+02  0.91425055130E+02  0.00000000000E+00 0.  1.
         14    1    5    5    0    0 -0.11076527793E+02 -0.25419835080E+02  0.45988746976E+03  0.46072263057E+03  0.00000000000E+00 0. -1.
         13    1    3    3    0    0  0.48712634012E+02 -0.76275631072E+01 -0.19596816773E+04  0.19603018586E+04  0.00000000000E+00 0. -1.
        -14    1    3    3    0    0 -0.22978587482E+02 -0.43342317282E+01 -0.24389553347E+03  0.24501394306E+03  0.00000000000E+00 0.  1.
          5    1    4    4  501    0 -0.41541930509E+02  0.18941275341E+02 -0.25242904119E+03  0.25655875962E+03  0.41800000000E+01 0.  1.
         -5    1    4    4    0  501 -0.36312342876E+01  0.32344451483E+02  0.59241927086E+00  0.32820310248E+02  0.41800000000E+01 0.  1.
</event>
<event>
11    1  0.6455215E-009  0.1352179E+03  0.7561462E-02  0.1113019E+00
         22   -1    0    0    0    0  0.00000000000E+00  0.00000000000E+00  0.65601213610E+02  0.65601213610E+02  0.00000000000E+00 0.  1.
         22   -1    0    0    0    0 -0.00000000000E+00 -0.00000000000E+00 -0.55907482116E+03  0.55907482116E+03  0.00000000000E+00 0.  1.
        -24    2    1    2    0    0  0.53383140879E+02  0.36786714085E+00 -0.31344984110E+03  0.32799996290E+03  0.80518803536E+02 0.  0.
         25    2    1    2    0    0 -0.44080233669E+02 -0.18352510963E+02 -0.17444281720E+03  0.21990376877E+03  0.12508992521E+03 0.  0.
         24    2    1    2    0    0 -0.93029072100E+01  0.17984643823E+02 -0.55809492564E+01  0.76772303097E+02  0.73843402090E+02 0.  0.
        -11    1    5    5    0    0 -0.28867423969E+02  0.12175718734E+02  0.24948172508E+02  0.40049814042E+02  0.00000000000E+00 0.  1.
         12    1    5    5    0    0  0.19564516759E+02  0.58089250886E+01 -0.30529121764E+02  0.36722489055E+02  0.00000000000E+00 0. -1.
         13    1    3    3    0    0  0.29050453441E+02  0.12770385856E+02 -0.31440415822E+02  0.44671146696E+02  0.00000000000E+00 0. -1.
        -14    1    3    3    0    0  0.24332687437E+02 -0.12402518715E+02 -0.28200942527E+03  0.28332881620E+03  0.00000000000E+00 0.  1.
          5    1    4    4  501    0 -0.87141249734E+02 -0.23158928709E+02 -0.11364918584E+03  0.14513284682E+03  0.41800000000E+01 0. -1.
         -5    1    4    4    0  501  0.43061016065E+02  0.48064177452E+01 -0.60793631351E+02  0.74770921948E+02  0.41800000000E+01 0. -1.
</event>
<event>
11    1  0.6455215E-009  0.1411049E+03  0.7561462E-02  0.1106331E+00
         22   -1    0    0    0    0  0.00000000000E+00  0.00000000000E+00  0.85162776206E+03  0.85162776206E+03  0.00000000000E+00 0.  1.
         22   -1    0    0    0    0 -0.00000000000E+00 -0.00000000000E+00 -0.60785756329E+03  0.60785756329E+03  0.00000000000E+00 0. -1.
        -24    2    1    2    0    0 -0.30911202253E+02  0.29486700118E+02 -0.55599672424E+03  0.56312505204E+03  0.78437866928E+02 0.  0.
         25    2    1    2    0    0  0.92042499016E+02 -0.42637135287E+02  0.10055214387E+03  0.18986110701E+03  0.12508700727E+03 0.  0.
         24    2    1    2    0    0 -0.61131296762E+02  0.13150435169E+02  0.69921477914E+03  0.70649916630E+03  0.79560010177E+02 0.  0.
        -11    1    5    5    0    0 -0.76538370385E+02  0.13026263023E+02  0.65679534653E+03  0.66136822791E+03  0.00000000000E+00 0.  1.
         12    1    5    5    0    0  0.15407073623E+02  0.12417214612E+00  0.42419432615E+02  0.45130938387E+02  0.00000000000E+00 0. -1.
         13    1    3    3    0    0 -0.32670585172E+02  0.79769142337E+01 -0.52048030814E+03  0.52156567128E+03  0.00000000000E+00 0. -1.
        -14    1    3    3    0    0  0.17593829186E+01  0.21509785884E+02 -0.35516416092E+02  0.41559380759E+02  0.00000000000E+00 0.  1.
          5    1    4    4  501    0  0.91542823233E+02 -0.78016038514E+01  0.11885708700E+03  0.15028450698E+03  0.41800000000E+01 0.  1.
         -5    1    4    4    0  501  0.49967578293E+00 -0.34835531435E+02 -0.18304943138E+02  0.39576600025E+02  0.41800000000E+01 0.  1.
</event>
<event>
11    1  0.6455215E-009  0.1567624E+03  0.7561462E-02  0.1090163E+00
         22   -1    0    0    0    0  0.00000000000E+00  0.00000000000E+00  0.12692165396E+04  0.12692165396E+04  0.00000000000E+00 0.  1.
         22   -1    0    0    0    0 -0.00000000000E+00 -0.00000000000E+00 -0.21552361275E+03  0.21552361275E+03  0.00000000000E+00 0.  1.
         24    2    1    2    0    0  0.30304730307E+02  0.85290205068E+02 -0.14877875805E+03  0.19181287592E+03  0.80400651505E+02 0.  0.
         25    2    1    2    0    0  0.18292351091E+01 -0.14082728291E+03  0.16915175505E+03  0.25317674610E+03  0.12510187375E+03 0.  0.
        -24    2    1    2    0    0 -0.32133965416E+02  0.55537077841E+02  0.10333199298E+04  0.10397505303E+04  0.95990255543E+02 0.  0.
        -13    1    3    3    0    0  0.28121767810E+02  0.93689897233E+02 -0.15343491705E+03  0.18196401963E+03  0.00000000000E+00 0.  1.
         14    1    3    3    0    0  0.21829624974E+01 -0.83996921653E+01  0.46561589974E+01  0.98488562963E+01  0.00000000000E+00 0. -1.
         13    1    5    5    0    0  0.87616375130E+01  0.22771580102E+02  0.56713748588E+02  0.61739456032E+02  0.00000000000E+00 0. -1.
        -14    1    5    5    0    0 -0.40895602929E+02  0.32765497738E+02  0.97660618121E+03  0.97801107425E+03  0.00000000000E+00 0.  1.
          5    1    4    4  501    0  0.48313043915E+02 -0.82828067853E+02  0.14690217389E+03  0.17547752030E+03  0.41800000000E+01 0. -1.
         -5    1    4    4    0  501 -0.46483808806E+02 -0.57999215056E+02  0.22249581163E+02  0.77699225801E+02  0.41800000000E+01 0. -1.
</event>
<event>
11    1  0.6455215E-009  0.1587520E+03  0.7561462E-02  0.1088257E+00
         22   -1    0    0    0    0  0.00000000000E+00  0.00000000000E+00  0.32432643880E+04  0.32432643880E+04  0.00000000000E+00 0. -1.
         22   -1    0    0    0    0 -0.00000000000E+00 -0.00000000000E+00 -0.39672360863E+03  0.39672360863E+03  0.00000000000E+00 0.  1.
        -24    2    1    2    0    0  0.50804434753E+02  0.83112117092E+02 -0.37310110877E+03  0.39339480818E+03  0.77886604333E+02 0.  0.
         25    2    1    2    0    0 -0.91743490241E+02 -0.82025648491E+02  0.59463219980E+03  0.61998399279E+03  0.12509046036E+03 0.  0.
         24    2    1    2    0    0  0.40939055488E+02 -0.10864686012E+01  0.26250096884E+04  0.26266091957E+04  0.81992780809E+02 0.  0.
        -13    1    5    5    0    0 -0.21673171146E+02 -0.27128244801E+01  0.31790378823E+03  0.31865326663E+03  0.00000000000E+00 0.  1.
         14    1    5    5    0    0  0.62612226634E+02  0.16263558789E+01  0.23071059002E+04  0.23079559291E+04  0.00000000000E+00 0. -1.
         13    1    3    3    0    0  0.49154602910E+02  0.15093082506E+02 -0.10671731772E+03  0.11845911543E+03  0.00000000000E+00 0. -1.
        -14    1    3    3    0    0  0.16498318428E+01  0.68019034586E+02 -0.26638379105E+03  0.27493569275E+03  0.00000000000E+00 0.  1.
          5    1    4    4  501    0 -0.11858295124E+03 -0.57232361342E+02  0.52453205936E+03  0.54082234902E+03  0.41800000000E+01 0. -1.
         -5    1    4    4    0  501  0.26839461003E+02 -0.24793287148E+02  0.70100140443E+02  0.79161643772E+02  0.41800000000E+01 0. -1.
</event>
<event>
11    1  0.6455215E-009  0.1797580E+03  0.7561462E-02  0.1069839E+00
         22   -1    0    0    0    0  0.00000000000E+00  0.00000000000E+00  0.19683978940E+03  0.19683978940E+03  0.00000000000E+00 0. -1.
         22   -1    0    0    0    0 -0.00000000000E+00 -0.00000000000E+00 -0.10492800405E+04  0.10492800405E+04  0.00000000000E+00 0. -1.
        -24    2    1    2    0    0  0.12688089317E+03 -0.52716996139E+02 -0.71687377771E+03  0.73247452523E+03  0.61098888771E+02 0.  0.
         25    2    1    2    0    0 -0.10744948001E+03  0.15112031909E+02 -0.29035806290E+03  0.33425444383E+03  0.12507783283E+03 0.  0.
         24    2    1    2    0    0 -0.19431413156E+02  0.37604964230E+02  0.15479158956E+03  0.17939086080E+03  0.80180618535E+02 0.  0.
        -11    1    5    5    0    0  0.33339026430E+01  0.20789200500E+02 -0.97161184647E+00  0.21077234017E+02  0.00000000000E+00 0.  1.
         12    1    5    5    0    0 -0.22765315799E+02  0.16815763730E+02  0.15576320140E+03  0.15831362678E+03  0.00000000000E+00 0. -1.
         11    1    3    3    0    0  0.11127156028E+03 -0.59577145695E+02 -0.68285700672E+03  0.69442385330E+03  0.00000000000E+00 0. -1.
        -12    1    3    3    0    0  0.15609332887E+02  0.68601495565E+01 -0.34016770992E+02  0.38050671923E+02  0.00000000000E+00 0.  1.
          5    1    4    4  501    0  0.14904981030E+02  0.19898100085E+02 -0.79816740578E+01  0.26443758569E+02  0.41800000000E+01 0.  1.
         -5    1    4    4    0  501 -0.12235446104E+03 -0.47860681763E+01 -0.28237638884E+03  0.30781068526E+03  0.41800000000E+01 0.  1.
</event>
<event>
11    1  0.6455215E-009  0.1299446E+03  0.7561462E-02  0.1119337E+00
         22   -1    0    0    0    0  0.00000000000E+00  0.00000000000E+00  0.17349230505E+04  0.17349230505E+04  0.00000000000E+00 0.  1.
         22   -1    0    0    0    0 -0.00000000000E+00 -0.00000000000E+00 -0.25925675474E+02  0.25925675474E+02  0.00000000000E+00 0. -1.
        -24    2    1    2    0    0  0.38311137111E+02 -0.47226495911E+01  0.16030621050E+03  0.18329795972E+03  0.80062564699E+02 0.  0.
         25    2    1    2    0    0 -0.29001420004E+02 -0.16797759234E+02  0.30994031561E+03  0.33590743148E+03  0.12509019229E+03 0.  0.
         24    2    1    2    0    0 -0.93097171063E+01  0.21520408825E+02  0.12387508489E+04  0.12416433348E+04  0.81392298559E+02 0.  0.
        -11    1    5    5    0    0  0.21031215957E+02  0.45484164477E+01  0.10132428008E+04  0.10134712495E+04  0.00000000000E+00 0.  1.
         12    1    5    5    0    0 -0.30340933063E+02  0.16971992377E+02  0.22550804815E+03  0.22817208533E+03  0.00000000000E+00 0. -1.
         11    1    3    3    0    0  0.51985547614E+02 -0.17515338965E+02  0.15409670541E+03  0.16356979818E+03  0.00000000000E+00 0. -1.
        -12    1    3    3    0    0 -0.13674410504E+02  0.12792689374E+02  0.62095050898E+01  0.19728161534E+02  0.00000000000E+00 0.  1.
          5    1    4    4  501    0 -0.34725040486E+02 -0.67244277433E+02  0.15020591278E+03  0.16824657476E+03  0.41800000000E+01 0.  1.
         -5    1    4    4    0  501  0.57236204818E+01  0.50446518199E+02  0.15973440283E+03  0.16766085673E+03  0.41800000000E+01 0.  1.
</event>
<event>
11    1  0.6455215E-009  0.1826621E+03  0.7561462E-02  0.1067510E+00
         22   -1    0    0    0    0  0.00000000000E+00  0.00000000000E+00  0.92181735046E+03  0.92181735046E+03  0.00000000000E+00 0. -1.
         22   -1    0    0    0    0 -0.00000000000E+00 -0.00000000000E+00 -0.80448306403E+03  0.80448306403E+03  0.00000000000E+00 0. -1.
        -24    2    1    2    0    0 -0.13742148836E+03  0.65448493588E+02 -0.61920027561E+03  0.64272537738E+03  0.80738829792E+02 0.  0.
         25    2    1    2    0    0  0.52244931697E+02 -0.68194878303E+02 -0.13561705037E+03  0.20351831820E+03  0.12509055591E+03 0.  0.
         24    2    1    2    0    0  0.85176556662E+02  0.27463847158E+01  0.87215161241E+03  0.88005671891E+03  0.81171454488E+02 0.  0.
        -13    1    5    5    0    0  0.33688866273E+02 -0.37619488415E+02  0.30623048347E+03  0.31036635550E+03  0.00000000000E+00 0.  1.
         14    1    5    5    0    0  0.51487690390E+02  0.40365873131E+02  0.56592112894E+03  0.56969036341E+03  0.00000000000E+00 0. -1.
         11    1    3    3    0    0 -0.11235433279E+03  0.44055300360E+02 -0.57535789561E+03  0.58787845140E+03  0.00000000000E+00 0. -1.
        -12    1    3    3    0    0 -0.25067155570E+02  0.21393193228E+02 -0.43842380008E+02  0.54846925982E+02  0.00000000000E+00 0.  1.
          5    1    4    4  501    0  0.58168957953E+02  0.78537091365E+01 -0.14971281320E+02  0.60720013841E+02  0.41800000000E+01 0. -1.
         -5    1    4    4    0  501 -0.59240262561E+01 -0.76048587440E+02 -0.12064576905E+03  0.14279830436E+03  0.41800000000E+01 0. -1.
</event>
<event>
11    1  0.6455215E-009  0.1388833E+03  0.7561462E-02  0.1108812E+00
         22   -1    0    0    0    0  0.00000000000E+00  0.00000000000E+00  0.16305700810E+04  0.16305700810E+04  0.00000000000E+00 0.  1.
         22   -1    0    0    0    0 -0.00000000000E+00 -0.00000000000E+00 -0.12048177976E+03  0.12048177976E+03  0.00000000000E+00 0. -1.
        -24    2    1    2    0    0 -0.33311232900E+02 -0.96064966820E+01 -0.74710900806E+02  0.11418562078E+03  0.79086751596E+02 0.  0.
         25    2    1    2    0    0 -0.21280437777E+02  0.39088842102E+02  0.15772867928E+03  0.20617034961E+03  0.12508829754E+03 0.  0.
         24    2    1    2    0    0  0.54591670677E+02 -0.29482345420E+02  0.14270705228E+04  0.14306958904E+04  0.80690733963E+02 0.  0.
        -11    1    5    5    0    0  0.46236674383E+02  0.18814519075E+02  0.88789629663E+03  0.88929840310E+03  0.00000000000E+00 0.  1.
         12    1    5    5    0    0  0.83549962934E+01 -0.48296864494E+02  0.53917422619E+03  0.54139748731E+03  0.00000000000E+00 0. -1.
         11    1    3    3    0    0 -0.84306085841E+01  0.45971559673E+01 -0.83630368771E+02  0.84179852607E+02  0.00000000000E+00 0. -1.
        -12    1    3    3    0    0 -0.24880624316E+02 -0.14203652649E+02  0.89194679652E+01  0.30005768174E+02  0.00000000000E+00 0.  1.
          5    1    4    4  501    0  0.33947047318E+02  0.11440140858E+02 -0.70481764150E+00  0.36072815421E+02  0.41800000000E+01 0. -1.
         -5    1    4    4    0  501 -0.55227485095E+02  0.27648701244E+02  0.15843349692E+03  0.17009753419E+03  0.41800000000E+01 0. -1.
</event>
<event>
11    1  0.6455215E-009  0.2924691E+03  0.7561462E-02  0.1003430E+00
         22   -1    0    0    0    0  0.00000000000E+00  0.00000000000E+00  0.78213673872E+03  0.78213673872E+03  0.00000000000E+00 0. -1.
         22   -1    0    0    0    0 -0.00000000000E+00 -0.00000000000E+00 -0.89453916288E+03  0.89453916288E+03  0.00000000000E+00 0.  1.
        -24    2    1    2    0    0 -0.42159697608E+02  0.12451528150E+03 -0.58041342734E+03  0.60067447860E+03  0.81538869135E+02 0.  0.
         25    2    1    2    0    0 -0.22842570295E+02 -0.20451806639E+02 -0.28296992660E+03  0.31090054047E+03  0.12508839792E+03 0.  0.
         24    2    1    2    0    0  0.65002267903E+02 -0.10406347486E+03  0.75098092978E+03  0.76510088252E+03  0.79702584094E+02 0.  0.
        -11    1    5    5    0    0  0.11896531848E+02  0.95653986837E+01  0.34528200327E+02  0.37752098482E+02  0.00000000000E+00 0.  1.
         12    1    5    5    0    0  0.53105736055E+02 -0.11362887354E+03  0.71645272945E+03  0.72734878404E+03  0.00000000000E+00 0. -1.
         13    1    3    3    0    0 -0.10639249302E+02  0.10883467260E+03 -0.32635862725E+03  0.34419200044E+03  0.00000000000E+00 0. -1.
        -14    1    3    3    0    0 -0.31520448306E+02  0.15680608900E+02 -0.25405480009E+03  0.25648247817E+03  0.00000000000E+00 0.  1.
          5    1    4    4  501    0 -0.31193474421E+02 -0.38799148395E+02 -0.32530549936E+02  0.59616405810E+02  0.41800000000E+01 0.  1.
         -5    1    4    4    0  501  0.83509041259E+01  0.18347341756E+02 -0.25043937666E+03  0.25128413466E+03  0.41800000000E+01 0.  1.
</event>
<event>
11    1  0.6455215E-009  0.1606664E+03  0.7561462E-02  0.1086452E+00
         22   -1    0    0    0    0  0.00000000000E+00  0.00000000000E+00  0.55515991511E+03  0.55515991511E+03  0.00000000000E+00 0.  1.
         22   -1    0    0    0    0 -0.00000000000E+00 -0.00000000000E+00 -0.66914034951E+03  0.66914034951E+03  0.00000000000E+00 0.  1.
         24    2    1    2    0    0  0.49881720606E+02  0.84955517305E+02 -0.36605474408E+03  0.38837985393E+03  0.84482005795E+02 0.  0.
         25    2    1    2    0    0 -0.35737023068E+02 -0.10083129525E+03 -0.26518254686E+03  0.31210939904E+03  0.12508560625E+03 0.  0.
        -24    2    1    2    0    0 -0.14144697538E+02  0.15875777944E+02  0.51725685653E+03  0.52381101166E+03  0.79819844117E+02 0.  0.
        -11    1    3    3    0    0  0.72436671662E+02  0.56048570144E+02 -0.28647577744E+03  0.30076051050E+03  0.00000000000E+00 0.  1.
         12    1    3    3    0    0 -0.22554951056E+02  0.28906947161E+02 -0.79578966637E+02  0.87619343425E+02  0.00000000000E+00 0. -1.
         13    1    5    5    0    0  0.70199082272E+01 -0.16436077258E+02  0.29251351196E+02  0.34279225399E+02  0.00000000000E+00 0. -1.
        -14    1    5    5    0    0 -0.21164605765E+02  0.32311855201E+02  0.48800550533E+03  0.48953178626E+03  0.00000000000E+00 0.  1.
          5    1    4    4  501    0 -0.75741806223E+02 -0.52531583741E+02 -0.10360358815E+03  0.13873559160E+03  0.41800000000E+01 0. -1.
         -5    1    4    4    0  501  0.40004783155E+02 -0.48299711507E+02 -0.16157895871E+03  0.17337380744E+03  0.41800000000E+01 0. -1.
</event>
<event>
11    1  0.6455215E-009  0.1416798E+03  0.7561462E-02  0.1105697E+00
         22   -1    0    0    0    0  0.00000000000E+00  0.00000000000E+00  0.62395070564E+02  0.62395070564E+02  0.00000000000E+00 0. -1.
         22   -1    0    0    0    0 -0.00000000000E+00 -0.00000000000E+00 -0.95264816946E+03  0.95264816946E+03  0.00000000000E+00 0.  1.
         24    2    1    2    0    0 -0.73182449799E+02  0.93871923189E+01 -0.66977591644E+03  0.67856055432E+03  0.80005357907E+02 0.  0.
         25    2    1    2    0    0  0.31419200718E+02 -0.24427068855E+02 -0.20534572072E+03  0.24371673713E+03  0.12508850895E+03 0.  0.
        -24    2    1    2    0    0  0.41763249081E+02  0.15039876536E+02 -0.15131461731E+02  0.92765948574E+02  0.80038698270E+02 0.  0.
        -11    1    3    3    0    0 -0.48186265842E+02 -0.59784134104E+01 -0.61042369123E+03  0.61235181102E+03  0.00000000000E+00 0.  1.
         12    1    3    3    0    0 -0.24996183957E+02  0.15365605729E+02 -0.59352225212E+02  0.66208743301E+02  0.00000000000E+00 0. -1.
         11    1    5    5    0    0  0.22112621372E+02  0.36570201892E+02  0.19942792466E+02  0.47159968848E+02  0.00000000000E+00 0. -1.
        -12    1    5    5    0    0  0.19650627709E+02 -0.21530325356E+02 -0.35074254198E+02  0.45605979727E+02  0.00000000000E+00 0.  1.
          5    1    4    4  501    0 -0.41363793187E+02  0.36225671149E+01 -0.28923555178E+02  0.50775297374E+02  0.41800000000E+01 0. -1.
         -5    1    4    4    0  501  0.72782993905E+02 -0.28049635970E+02 -0.17642216554E+03  0.19294143976E+03  0.41800000000E+01 0. -1.
</event>
<event>
11    1  0.6455215E-009  0.1532833E+03  0.7561462E-02  0.1093570E+00
         22   -1    0    0    0    0  0.00000000000E+00  0.00000000000E+00  0.22324376434E+03  0.22324376434E+03  0.00000000000E+00 0.  1.
         22   -1    0    0    0    0 -0.00000000000E+00 -0.00000000000E+00 -0.63013672345E+03  0.63013672345E+03  0.00000000000E+00 0. -1.
        -24    2    1    2    0    0  0.28288340291E+02  0.90419500562E+00 -0.42697016753E+03  0.43550128666E+03  0.80974063484E+02 0.  0.
         25    2    1    2    0    0  0.44821447850E+02  0.52971274667E+02 -0.15143522147E+03  0.20831084159E+03  0.12508342135E+03 0.  0.
         24    2    1    2    0    0 -0.73109788142E+02 -0.53875469673E+02  0.17151242989E+03  0.20956835953E+03  0.79087144066E+02 0.  0.
        -13    1    5    5    0    0 -0.16833446643E+02 -0.44801367098E+02  0.28712860092E+02  0.55811788669E+02  0.00000000000E+00 0.  1.
         14    1    5    5    0    0 -0.56276341498E+02 -0.90741025742E+01  0.14279956979E+03  0.15375657086E+03  0.00000000000E+00 0. -1.
         11    1    3    3    0    0  0.13232413842E+02 -0.29636613859E+02 -0.34790573005E+03  0.34941640296E+03  0.00000000000E+00 0. -1.
        -12    1    3    3    0    0  0.15055926449E+02  0.30540808865E+02 -0.79064437479E+02  0.86084883697E+02  0.00000000000E+00 0.  1.
          5    1    4    4  501    0 -0.57014412423E+01  0.32871108081E+02 -0.15003682807E+03  0.15375805135E+03  0.41800000000E+01 0. -1.
         -5    1    4    4    0  501  0.50522889092E+02  0.20100166586E+02 -0.13983933991E+01  0.54552790241E+02  0.41800000000E+01 0. -1.
</event>
<event>
11    1  0.6455215E-009  0.1269667E+03  0.7561462E-02  0.1123053E+00
         22   -1    0    0    0    0  0.00000000000E+00  0.00000000000E+00  0.17519702460E+04  0.17519702460E+04  0.00000000000E+00 0. -1.
         22   -1    0    0    0    0 -0.00000000000E+00 -0.00000000000E+00 -0.16783896380E+02  0.16783896380E+02  0.00000000000E+00 0.  1.
        -24    2    1    2    0    0  0.12610445485E+02 -0.10397380974E+01  0.16485148446E+03  0.18351647779E+03  0.79637813253E+02 0.  0.
         25    2    1    2    0    0 -0.11543923383E+01 -0.20126494628E+02  0.88133447571E+03  0.89039545429E+03  0.12508876260E+03 0.  0.
         24    2    1    2    0    0 -0.11456053146E+02  0.21166232726E+02  0.68900038942E+03  0.69484221027E+03  0.86630883648E+02 0.  0.
        -13    1    5    5    0    0 -0.70812569378E+01  0.53139792367E+02  0.32267138368E+03  0.32709448724E+03  0.00000000000E+00 0.  1.
         14    1    5    5    0    0 -0.43747962086E+01 -0.31973559641E+02  0.36632900573E+03  0.36774772304E+03  0.00000000000E+00 0. -1.
         11    1    3    3    0    0  0.31114350021E+01 -0.40208054034E+02  0.81450594553E+02  0.90887666876E+02  0.00000000000E+00 0. -1.
        -12    1    3    3    0    0  0.94990104825E+01  0.39168315937E+02  0.83400889906E+02  0.92628810910E+02  0.00000000000E+00 0.  1.
          5    1    4    4  501    0 -0.16111352764E+02  0.46344360973E+02  0.21467178744E+03  0.22024718887E+03  0.41800000000E+01 0. -1.
         -5    1    4    4    0  501  0.14956960426E+02 -0.66470855601E+02  0.66666268827E+03  0.67014826542E+03  0.41800000000E+01 0. -1.
</event>
<event>
11    1  0.6455215E-009  0.1790273E+03  0.7561462E-02  0.1070432E+00
         22   -1    0    0    0    0  0.00000000000E+00  0.00000000000E+00  0.20048622826E+03  0.20048622826E+03  0.00000000000E+00 0.  1.
         22   -1    0    0    0    0 -0.00000000000E+00 -0.00000000000E+00 -0.13323728229E+04  0.13323728229E+04  0.00000000000E+00 0. -1.
        -24    2    1    2    0    0 -0.59540245932E+02 -0.43024336357E+02 -0.57732118533E+03  0.58884192834E+03  0.89660086656E+02 0.  0.
         25    2    1    2    0    0  0.17416703361E+03 -0.10581171627E+02 -0.70157788890E+03  0.73369212987E+03  0.12508593226E+03 0.  0.
         24    2    1    2    0    0 -0.11462678767E+03  0.53605507984E+02  0.14701247964E+03  0.21032499291E+03  0.81308563723E+02 0.  0.
        -11    1    5    5    0    0 -0.59540072127E+02 -0.10005245394E+02  0.91116981910E+02  0.10930429780E+03  0.00000000000E+00 0.  1.
         12    1    5    5    0    0 -0.55086715548E+02  0.63610753378E+02  0.55895497728E+02  0.10102069511E+03  0.00000000000E+00 0. -1.
         13    1    3    3    0    0 -0.76429097626E+02 -0.96348182991E+01 -0.34233275438E+03  0.35089307689E+03  0.00000000000E+00 0. -1.
        -14    1    3    3    0    0  0.16888851693E+02 -0.33389518058E+02 -0.23498843096E+03  0.23794885146E+03  0.00000000000E+00 0.  1.
          5    1    4    4  501    0  0.14563523046E+03  0.38901183527E+02 -0.41751906318E+03  0.44391729291E+03  0.41800000000E+01 0.  1.
         -5    1    4    4    0  501  0.28531803152E+02 -0.49482355153E+02 -0.28405882572E+03  0.28977483696E+03  0.41800000000E+01 0.  1.
</event>
<event>
11    1  0.6455215E-009  0.1435766E+03  0.7561462E-02  0.1103629E+00
         22   -1    0    0    0    0  0.00000000000E+00  0.00000000000E+00  0.55026072804E+02  0.55026072804E+02  0.00000000000E+00 0. -1.
         22   -1    0    0    0    0 -0.00000000000E+00 -0.00000000000E+00 -0.57406006298E+03  0.57406006298E+03  0.00000000000E+00 0.  1.
         24    2    1    2    0    0  0.77217364541E+02  0.18145701453E+02 -0.15059370721E+03  0.18708723423E+03  0.77661964252E+02 0.  0.
         25    2    1    2    0    0 -0.47294018985E+02 -0.49384798732E+02 -0.29889532591E+03  0.33115013491E+03  0.12508562437E+03 0.  0.
        -24    2    1    2    0    0 -0.29923345556E+02  0.31239097279E+02 -0.69544957051E+02  0.11084876664E+03  0.74697123150E+02 0.  0.
        -11    1    3    3    0    0  0.49590221837E+02 -0.17127171385E+02 -0.12482182196E+03  0.13539947319E+03  0.00000000000E+00 0.  1.
         12    1    3    3    0    0  0.27627142704E+02  0.35272872838E+02 -0.25771885253E+02  0.51687761043E+02  0.00000000000E+00 0. -1.
         11    1    5    5    0    0 -0.19175578384E+02 -0.21664586229E+02 -0.10333568569E+02  0.30721974907E+02  0.00000000000E+00 0. -1.
        -12    1    5    5    0    0 -0.10747767172E+02  0.52903683508E+02 -0.59211388482E+02  0.80126791736E+02  0.00000000000E+00 0.  1.
          5    1    4    4  501    0 -0.74051609085E+02  0.53167241801E+01 -0.11113481176E+03  0.13371734049E+03  0.41800000000E+01 0. -1.
         -5    1    4    4    0  501  0.26757590100E+02 -0.54701522912E+02 -0.18776051415E+03  0.19743279442E+03  0.41800000000E+01 0. -1.
</event>
<event>
11    1  0.6455215E-009  0.1530469E+03  0.7561462E-02  0.1093805E+00
         22   -1    0    0    0    0  0.00000000000E+00  0.00000000000E+00  0.29181918855E+03  0.29181918855E+03  0.00000000000E+00 0.  1.
         22   -1    0    0    0    0 -0.00000000000E+00 -0.00000000000E+00 -0.58731158707E+03  0.58731158707E+03  0.00000000000E+00 0.  1.
        -24    2    1    2    0    0 -0.51331386596E+02 -0.81374142509E+02 -0.48971015814E+03  0.50626536019E+03  0.85040658658E+02 0.  0.
         25    2    1    2    0    0  0.60523290497E+02 -0.15682746089E+02 -0.18006028263E+01  0.13985808793E+03  0.12509206758E+03 0.  0.
         24    2    1    2    0    0 -0.91919039014E+01  0.97056888599E+02  0.19601836245E+03  0.23300732750E+03  0.79778979234E+02 0.  0.
        -13    1    5    5    0    0  0.30798666533E+01  0.10873648009E+03  0.16428064091E+03  0.19703105506E+03  0.00000000000E+00 0.  1.
         14    1    5    5    0    0 -0.12271770555E+02 -0.11679591488E+02  0.31737721548E+02  0.35976272444E+02  0.00000000000E+00 0. -1.
         11    1    3    3    0    0  0.35670971829E+01 -0.43991625792E+02 -0.81465229395E+02  0.92652959599E+02  0.00000000000E+00 0. -1.
        -12    1    3    3    0    0 -0.54898483779E+02 -0.37382516718E+02 -0.40824492875E+03  0.41361240059E+03  0.00000000000E+00 0.  1.
          5    1    4    4  501    0  0.42609253334E+01  0.35048051345E+02  0.39769660987E+02  0.53344350430E+02  0.41800000000E+01 0. -1.
         -5    1    4    4    0  501  0.56262365164E+02 -0.50730797434E+02 -0.41570263813E+02  0.86513737497E+02  0.41800000000E+01 0. -1.
</event>
<event>
11    1  0.6455215E-009  0.1380378E+03  0.7561462E-02  0.1109770E+00
         22   -1    0    0    0    0  0.00000000000E+00  0.00000000000E+00  0.65517016132E+03  0.65517016132E+03  0.00000000000E+00 0. -1.
         22   -1    0    0    0    0 -0.00000000000E+00 -0.00000000000E+00 -0.23864636685E+03  0.23864636685E+03  0.00000000000E+00 0. -1.
         24    2    1    2    0    0 -0.53697358008E+02 -0.38196869787E+02 -0.20243729114E+03  0.22782046812E+03  0.81110429251E+02 0.  0.
         25    2    1    2    0    0  0.44806493309E+02 -0.32991352918E+02  0.29632703520E+03  0.32642385236E+03  0.12508704325E+03 0.  0.
        -24    2    1    2    0    0  0.88908646992E+01  0.71188222705E+02  0.32263405040E+03  0.33957220769E+03  0.77908556837E+02 0.  0.
        -11    1    3    3    0    0 -0.60789425281E+02 -0.53503863730E+01 -0.78620053250E+02  0.99524336889E+02  0.00000000000E+00 0.  1.
         12    1    3    3    0    0  0.70920672725E+01 -0.32846483414E+02 -0.12381723789E+03  0.12829613123E+03  0.00000000000E+00 0. -1.
         11    1    5    5    0    0  0.98511317716E+01 -0.66102248709E+01  0.14698015032E+03  0.14745814477E+03  0.00000000000E+00 0. -1.
        -12    1    5    5    0    0 -0.96026707250E+00  0.77798447576E+02  0.17565390008E+03  0.19211406292E+03  0.00000000000E+00 0.  1.
          5    1    4    4  501    0 -0.34804476273E+02 -0.47325301734E+01  0.17490902500E+03  0.17844995891E+03  0.41800000000E+01 0.  1.
         -5    1    4    4    0  501  0.79610969582E+02 -0.28258822745E+02  0.12141801021E+03  0.14797389345E+03  0.41800000000E+01 0.  1.
</event>
<event>
11    1  0.6455215E-009  0.1337138E+03  0.7561462E-02  0.1114788E+00
         22   -1    0    0    0    0  0.00000000000E+00  0.00000000000E+00  0.32845401535E+03  0.32845401535E+03  0.00000000000E+00 0. -1.
         22   -1    0    0    0    0 -0.00000000000E+00 -0.00000000000E+00 -0.12709094463E+04  0.12709094463E+04  0.00000000000E+00 0. -1.
        -24    2    1    2    0    0 -0.15202964351E+02  0.77435842729E+01 -0.12166442767E+04  0.12194710963E+04  0.81211854593E+02 0.  0.
         25    2    1    2    0    0 -0.22882113011E+02 -0.37749473390E+02  0.59196695035E+02  0.14525905025E+03  0.12508928467E+03 0.  0.
         24    2    1    2    0    0  0.38085077362E+02  0.30005889117E+02  0.21499215079E+03  0.23463331509E+03  0.80500566163E+02 0.  0.
        -13    1    5    5    0    0 -0.24271512834E+02 -0.49042071822E+00  0.48034386263E+02  0.53820526859E+02  0.00000000000E+00 0.  1.
         14    1    5    5    0    0  0.62356590196E+02  0.30496309835E+02  0.16695776452E+03  0.18081278823E+03  0.00000000000E+00 0. -1.
         13    1    3    3    0    0 -0.32064020227E+02  0.60299692030E+01 -0.11571525823E+04  0.11576124398E+04  0.00000000000E+00 0. -1.
        -14    1    3    3    0    0  0.16861055876E+02  0.17136150699E+01 -0.59491694434E+02  0.61858656537E+02  0.00000000000E+00 0.  1.
          5    1    4    4  501    0  0.28698173871E+02 -0.62362748023E+02  0.54519111168E+02  0.87763907200E+02  0.41800000000E+01 0. -1.
         -5    1    4    4    0  501 -0.51580286882E+02  0.24613274633E+02  0.46775838663E+01  0.57495143045E+02  0.41800000000E+01 0. -1.
</event>
<event>
11    1  0.6455215E-009  0.1448803E+03  0.7561462E-02  0.1102228E+00
         22   -1    0    0    0    0  0.00000000000E+00  0.00000000000E+00  0.33231284551E+03  0.33231284551E+03  0.00000000000E+00 0.  1.
         22   -1    0    0    0    0 -0.00000000000E+00 -0.00000000000E+00 -0.55676440048E+03  0.55676440048E+03  0.00000000000E+00 0. -1.
        -24    2    1    2    0    0 -0.26838176174E+02  0.20383891898E+02 -0.47986671480E+03  0.48775922993E+03  0.80630091557E+02 0.  0.
         25    2    1    2    0    0  0.95266315541E+02 -0.20915671498E+02  0.43230772688E+02  0.16441100488E+03  0.12509573385E+03 0.  0.
         24    2    1    2    0    0 -0.68428139366E+02  0.53177959996E+00  0.21218438714E+03  0.23690701117E+03  0.80125056935E+02 0.  0.
        -11    1    5    5    0    0 -0.85169879205E+02 -0.17249211992E+01  0.19506995207E+03  0.21285950736E+03  0.00000000000E+00 0.  1.
         12    1    5    5    0    0  0.16741739838E+02  0.22567007992E+01  0.17114435073E+02  0.24047503804E+02  0.00000000000E+00 0. -1.
         11    1    3    3    0    0 -0.20555657674E+02 -0.20187445686E+02 -0.35811234190E+03  0.35926942181E+03  0.00000000000E+00 0. -1.
        -12    1    3    3    0    0 -0.62825185003E+01  0.40571337583E+02 -0.12175437290E+03  0.12848980813E+03  0.00000000000E+00 0.  1.
          5    1    4    4  501    0  0.85544971864E+01  0.47233179537E+02  0.15490449816E+02  0.50612045076E+02  0.41800000000E+01 0. -1.
         -5    1    4    4    0  501  0.86711818354E+02 -0.68148851034E+02  0.27740322872E+02  0.11379895980E+03  0.41800000000E+01 0. -1.
</event>
<event>
11    1  0.6455215E-009  0.2458254E+03  0.7561462E-02  0.1026147E+00
         22   -1    0    0    0    0  0.00000000000E+00  0.00000000000E+00  0.79335913495E+02  0.79335913495E+02  0.00000000000E+00 0.  1.
         22   -1    0    0    0    0 -0.00000000000E+00 -0.00000000000E+00 -0.45951563715E+04  0.45951563715E+04  0.00000000000E+00 0. -1.
         24    2    1    2    0    0  0.87815021930E+02 -0.18315364294E+03 -0.32401661863E+04  0.32476449344E+04  0.85228926765E+02 0.  0.
         25    2    1    2    0    0 -0.12953298182E+03  0.20860632613E+03 -0.13013763492E+04  0.13302334374E+04  0.12508078678E+03 0.  0.
        -24    2    1    2    0    0  0.41717959887E+02 -0.25452683187E+02  0.25722077427E+02  0.96613913215E+02  0.79274180544E+02 0.  0.
        -11    1    3    3    0    0  0.58065568594E+02 -0.11356333291E+03 -0.13633089748E+04  0.13692624298E+04  0.00000000000E+00 0.  1.
         12    1    3    3    0    0  0.29749453336E+02 -0.69590310035E+02 -0.18768572115E+04  0.18783825046E+04  0.00000000000E+00 0. -1.
         11    1    5    5    0    0 -0.62052723901E+01  0.20210835642E+02 -0.76486007320E+01  0.22482979695E+02  0.00000000000E+00 0. -1.
        -12    1    5    5    0    0  0.47923232277E+02 -0.45663518829E+02  0.33370678159E+02  0.74130933520E+02  0.00000000000E+00 0.  1.
          5    1    4    4  501    0 -0.15932205288E+02  0.13811245748E+03 -0.56992998001E+03  0.58665708944E+03  0.41800000000E+01 0. -1.
         -5    1    4    4    0  501 -0.11360077653E+03  0.70493868647E+02 -0.73144636917E+03  0.74357634800E+03  0.41800000000E+01 0. -1.
</event>
<event>
11    1  0.6855755E-009  0.1638378E+03  0.7561462E-02  0.1083522E+00
         22   -1    0    0    0    0  0.00000000000E+00  0.00000000000E+00  0.79695076898E+03  0.79695076898E+03  0.00000000000E+00 0. -1.
         22   -1    0    0    0    0 -0.00000000000E+00 -0.00000000000E+00 -0.39267791875E+03  0.39267791875E+03  0.00000000000E+00 0. -1.
         24    2    1    2    0    0  0.14410778611E+02  0.47447600764E+02 -0.23511589025E+03  0.25267053241E+03  0.78127912674E+02 0.  0.
         25    2    1    2    0    0  0.45799089934E+02  0.41863213704E+02 -0.10872686796E+03  0.17696457078E+03  0.12507934360E+03 0.  0.
        -24    2    1    2    0    0 -0.60209868545E+02 -0.89310814468E+02  0.74811560844E+03  0.75999358455E+03  0.79445799862E+02 0.  0.
        -11    1    3    3    0    0 -0.30373835447E+02  0.26846044749E+02 -0.13693041197E+03  0.14280482387E+03  0.00000000000E+00 0.  1.
         12    1    3    3    0    0  0.44784614058E+02  0.20601556016E+02 -0.98185478283E+02  0.10986570854E+03  0.00000000000E+00 0. -1.
         11    1    5    5    0    0 -0.70909453086E+02 -0.77780849352E+02  0.72103211872E+03  0.72867367682E+03  0.00000000000E+00 0. -1.
        -12    1    5    5    0    0  0.10699584541E+02 -0.11529965116E+02  0.27083489719E+02  0.31319907731E+02  0.00000000000E+00 0.  1.
          5    1    4    4  501    0  0.35019266953E+02 -0.39506255970E+02 -0.21608483383E+02  0.57196960345E+02  0.41800000000E+01 0. -1.
         -5    1    4    4    0  501  0.10779822981E+02  0.81369469673E+02 -0.87118384577E+02  0.11976761044E+03  0.41800000000E+01 0. -1.
</event>
<event>
11    1  0.6455215E-009  0.1489996E+03  0.7561462E-02  0.1097905E+00
         22   -1    0    0    0    0  0.00000000000E+00  0.00000000000E+00  0.27358453940E+03  0.27358453940E+03  0.00000000000E+00 0.  1.
         22   -1    0    0    0    0 -0.00000000000E+00 -0.00000000000E+00 -0.10460048873E+04  0.10460048873E+04  0.00000000000E+00 0.  1.
         24    2    1    2    0    0  0.20525216410E+02  0.16803484071E+01 -0.87326637104E+03  0.87716747297E+03  0.80028199889E+02 0.  0.
         25    2    1    2    0    0 -0.68811662534E+02  0.62167944745E+02 -0.11842421135E+03  0.19563160149E+03  0.12509009318E+03 0.  0.
        -24    2    1    2    0    0  0.48286446124E+02 -0.63848293152E+02  0.21927023451E+03  0.24679035220E+03  0.80111527129E+02 0.  0.
        -13    1    3    3    0    0  0.32207966758E+02  0.31192393663E+02 -0.66351409443E+03  0.66502727166E+03  0.00000000000E+00 0.  1.
         14    1    3    3    0    0 -0.11682750348E+02 -0.29512045256E+02 -0.20975227661E+03  0.21214020131E+03  0.00000000000E+00 0. -1.
         13    1    5    5    0    0  0.49222270679E+02 -0.59919448342E+02  0.95786195416E+02  0.12324028340E+03  0.00000000000E+00 0. -1.
        -14    1    5    5    0    0 -0.93582455487E+00 -0.39288448102E+01  0.12348403910E+03  0.12355006880E+03  0.00000000000E+00 0.  1.
          5    1    4    4  501    0 -0.52981416680E+02 -0.86031684859E+01  0.32363358996E+01  0.53935065509E+02  0.41800000000E+01 0.  1.
         -5    1    4    4    0  501 -0.15830245854E+02  0.70771113231E+02 -0.12166054725E+03  0.14169653598E+03  0.41800000000E+01 0.  1.
</event>
<event>
11    1  0.6455215E-009  0.1532072E+03  0.7561462E-02  0.1093646E+00
         22   -1    0    0    0    0  0.00000000000E+00  0.00000000000E+00  0.10020571091E+04  0.10020571091E+04  0.00000000000E+00 0.  1.
         22   -1    0    0    0    0 -0.00000000000E+00 -0.00000000000E+00 -0.97585881393E+02  0.97585881393E+02  0.00000000000E+00 0. -1.
        -24    2    1    2    0    0  0.36346204703E+02 -0.24608443454E+02 -0.38555444615E+02  0.95743851592E+02  0.75853416025E+02 0.  0.
         25    2    1    2    0    0 -0.10918296213E+03 -0.20028918417E+02  0.24619857985E+03  0.29763029610E+03  0.12509186881E+03 0.  0.
         24    2    1    2    0    0  0.72836757422E+02  0.44637361870E+02  0.69682809249E+03  0.70626884282E+03  0.77127171300E+02 0.  0.
        -11    1    5    5    0    0  0.44880048191E+02  0.64031791386E+02  0.55119539773E+03  0.55671415961E+03  0.00000000000E+00 0.  1.
         12    1    5    5    0    0  0.27956709232E+02 -0.19394429516E+02  0.14563269476E+03  0.14955468321E+03  0.00000000000E+00 0. -1.
         13    1    3    3    0    0  0.46997894674E+02 -0.39321791475E+02 -0.45472651573E+02  0.76307060156E+02  0.00000000000E+00 0. -1.
        -14    1    3    3    0    0 -0.10651689970E+02  0.14713348021E+02  0.69172069584E+01  0.19436791436E+02  0.00000000000E+00 0.  1.
          5    1    4    4  501    0  0.69162598539E+00 -0.27559289179E+02 -0.65494575695E-02  0.27883063129E+02  0.41800000000E+01 0. -1.
         -5    1    4    4    0  501 -0.10987458811E+03  0.75303707620E+01  0.24620512931E+03  0.26974723297E+03  0.41800000000E+01 0. -1.
</event>
<event>
11    1  0.6455215E-009  0.1413114E+03  0.7561462E-02  0.1106103E+00
         22   -1    0    0    0    0  0.00000000000E+00  0.00000000000E+00  0.21802872530E+03  0.21802872530E+03  0.00000000000E+00 0. -1.
         22   -1    0    0    0    0 -0.00000000000E+00 -0.00000000000E+00 -0.49322812886E+03  0.49322812886E+03  0.00000000000E+00 0.  1.
         24    2    1    2    0    0 -0.41573932949E+02  0.32283233933E+02 -0.10091955310E+03  0.13907386270E+03  0.79913603311E+02 0.  0.
         25    2    1    2    0    0  0.84243427056E+02  0.78371598396E+01 -0.34525987914E+03  0.37684271217E+03  0.12509064510E+03 0.  0.
        -24    2    1    2    0    0 -0.42669494107E+02 -0.40120393773E+02  0.17098002868E+03  0.19534027929E+03  0.74116953404E+02 0.  0.
        -11    1    3    3    0    0 -0.51226221689E+02  0.49537272401E+02 -0.94357308568E+02  0.11824283837E+03  0.00000000000E+00 0.  1.
         12    1    3    3    0    0  0.96522887402E+01 -0.17254038468E+02 -0.65622445352E+01  0.20831024332E+02  0.00000000000E+00 0. -1.
         13    1    5    5    0    0  0.94973190574E+01  0.67138882307E+01  0.78157194444E+02  0.79017861321E+02  0.00000000000E+00 0. -1.
        -14    1    5    5    0    0 -0.52166813164E+02 -0.46834282003E+02  0.92822834238E+02  0.11632241797E+03  0.00000000000E+00 0.  1.
          5    1    4    4  501    0  0.47786212348E+01  0.13113118392E+02  0.66460398446E+01  0.16013473717E+02  0.41800000000E+01 0. -1.
         -5    1    4    4    0  501  0.79464805821E+02 -0.52759585523E+01 -0.35190591898E+03  0.36082923845E+03  0.41800000000E+01 0. -1.
</event>
<event>
11    1  0.6455215E-009  0.1459245E+03  0.7561462E-02  0.1101117E+00
         22   -1    0    0    0    0  0.00000000000E+00  0.00000000000E+00  0.18895643870E+03  0.18895643870E+03  0.00000000000E+00 0.  1.
         22   -1    0    0    0    0 -0.00000000000E+00 -0.00000000000E+00 -0.64601538482E+03  0.64601538482E+03  0.00000000000E+00 0.  1.
         24    2    1    2    0    0  0.34326559719E+02  0.25016832706E+02 -0.46415706882E+03  0.47266537517E+03  0.78527814983E+02 0.  0.
         25    2    1    2    0    0 -0.81317573366E+02 -0.77314101822E+02 -0.11199146997E+03  0.20193957390E+03  0.12508990401E+03 0.  0.
        -24    2    1    2    0    0  0.46991013646E+02  0.52297269116E+02  0.11908959267E+03  0.16036687445E+03  0.81191401132E+02 0.  0.
        -13    1    3    3    0    0  0.93034476384E+01  0.15293717666E+02 -0.42390182718E+03  0.42427963776E+03  0.00000000000E+00 0.  1.
         14    1    3    3    0    0  0.25023112081E+02  0.97231150399E+01 -0.40255241644E+02  0.48385737404E+02  0.00000000000E+00 0. -1.
         11    1    5    5    0    0 -0.13182696799E+02  0.20352619325E+00 -0.40081652342E+01  0.13780069171E+02  0.00000000000E+00 0. -1.
        -12    1    5    5    0    0  0.60173710446E+02  0.52093742923E+02  0.12309775791E+03  0.14658680528E+03  0.00000000000E+00 0.  1.
          5    1    4    4  501    0 -0.61937112773E+02  0.19521610138E+02 -0.66788298092E+02  0.93249388003E+02  0.41800000000E+01 0. -1.
         -5    1    4    4    0  501 -0.19380460593E+02 -0.96835711960E+02 -0.45203171876E+02  0.10869018590E+03  0.41800000000E+01 0. -1.
</event>
<event>
11    1  0.6455215E-009  0.1370221E+03  0.7561462E-02  0.1110930E+00
         22   -1    0    0    0    0  0.00000000000E+00  0.00000000000E+00  0.17616044689E+03  0.17616044689E+03  0.00000000000E+00 0. -1.
         22   -1    0    0    0    0 -0.00000000000E+00 -0.00000000000E+00 -0.15899536537E+04  0.15899536537E+04  0.00000000000E+00 0.  1.
        -24    2    1    2    0    0  0.52899717547E+02  0.21164693113E+02 -0.13794409628E+04  0.13836149092E+04  0.91030339633E+02 0.  0.
         25    2    1    2    0    0 -0.36140490194E+02 -0.28963317669E+02 -0.17283112991E+03  0.21831905167E+03  0.12509036755E+03 0.  0.
         24    2    1    2    0    0 -0.16759227353E+02  0.77986245553E+01  0.13847888597E+03  0.16418013967E+03  0.86238194308E+02 0.  0.
        -13    1    5    5    0    0 -0.23684493605E+02 -0.24494460499E+01 -0.13083861736E+01  0.23846737674E+02  0.00000000000E+00 0.  1.
         14    1    5    5    0    0  0.69252662520E+01  0.10248070605E+02  0.13978727214E+03  0.14033340200E+03  0.00000000000E+00 0. -1.
         11    1    3    3    0    0  0.84267797454E+01  0.19886033345E+02 -0.66479657508E+02  0.69899998580E+02  0.00000000000E+00 0. -1.
        -12    1    3    3    0    0  0.44472937802E+02  0.12786597681E+01 -0.13129613053E+04  0.13137149107E+04  0.00000000000E+00 0.  1.
          5    1    4    4  501    0 -0.60054153846E+02  0.13688791518E+02 -0.32740120289E+02  0.69880414165E+02  0.41800000000E+01 0.  1.
         -5    1    4    4    0  501  0.23913663652E+02 -0.42652109186E+02 -0.14009100962E+03  0.14843863750E+03  0.41800000000E+01 0.  1.
</event>
<event>
11    1  0.6455215E-009  0.1768980E+03  0.7561462E-02  0.1072180E+00
         22   -1    0    0    0    0  0.00000000000E+00  0.00000000000E+00  0.57617258026E+03  0.57617258026E+03  0.00000000000E+00 0.  1.
         22   -1    0    0    0    0 -0.00000000000E+00 -0.00000000000E+00 -0.13916273035E+04  0.13916273035E+04  0.00000000000E+00 0.  1.
        -24    2    1    2    0    0 -0.87736014096E+02 -0.10969491776E+03 -0.86123912796E+03  0.87628482773E+03  0.80072970729E+02 0.  0.
         25    2    1    2    0    0  0.10055487148E+03  0.39734120790E+02 -0.50453966362E+03  0.53094353270E+03  0.12510267870E+03 0.  0.
         24    2    1    2    0    0 -0.12818857380E+02  0.69960796968E+02  0.55032406837E+03  0.56057152329E+03  0.79529970904E+02 0.  0.
        -13    1    5    5    0    0 -0.40545337604E+02  0.12995362685E+02  0.25478890967E+03  0.25832187740E+03  0.00000000000E+00 0.  1.
         14    1    5    5    0    0  0.27726480224E+02  0.56965434283E+02  0.29553515870E+03  0.30224964588E+03  0.00000000000E+00 0. -1.
         13    1    3    3    0    0  0.29842063434E+01 -0.54214858108E+02 -0.34008301772E+03  0.34439020786E+03  0.00000000000E+00 0. -1.
        -14    1    3    3    0    0 -0.90720220439E+02 -0.55480059650E+02 -0.52115611023E+03  0.53189461987E+03  0.00000000000E+00 0.  1.
          5    1    4    4  501    0  0.10352211005E+03  0.39240393862E+02 -0.21966188501E+03  0.24601921044E+03  0.41800000000E+01 0.  1.
         -5    1    4    4    0  501 -0.29672385707E+01  0.49372692876E+00 -0.28487777861E+03  0.28492432226E+03  0.41800000000E+01 0.  1.
</event>
<event>
11    1  0.6455215E-009  0.1379585E+03  0.7561462E-02  0.1109860E+00
         22   -1    0    0    0    0  0.00000000000E+00  0.00000000000E+00  0.11618668079E+04  0.11618668079E+04  0.00000000000E+00 0. -1.
         22   -1    0    0    0    0 -0.00000000000E+00 -0.00000000000E+00 -0.25146228989E+03  0.25146228989E+03  0.00000000000E+00 0. -1.
         24    2    1    2    0    0 -0.29590956719E+02  0.44015428558E+02 -0.16132441722E+03  0.18627934900E+03  0.76560078373E+02 0.  0.
         25    2    1    2    0    0  0.44972096242E+02 -0.78984933748E+02  0.30055915699E+01  0.15465246836E+03  0.12508894112E+03 0.  0.
        -24    2    1    2    0    0 -0.15381139523E+02  0.34969505190E+02  0.10687233437E+04  0.10723972804E+04  0.80043088627E+02 0.  0.
        -11    1    3    3    0    0 -0.13398895910E+02 -0.19694178952E+02 -0.22913318637E+02  0.33051645453E+02  0.00000000000E+00 0.  1.
         12    1    3    3    0    0 -0.16192060809E+02  0.63709607510E+02 -0.13841109858E+03  0.15322770355E+03  0.00000000000E+00 0. -1.
         11    1    5    5    0    0 -0.21089151887E+02  0.53890587209E+02  0.50119063841E+03  0.50452056821E+03  0.00000000000E+00 0. -1.
        -12    1    5    5    0    0  0.57080123642E+01 -0.18921082019E+02  0.56753270525E+03  0.56787671222E+03  0.00000000000E+00 0.  1.
          5    1    4    4  501    0 -0.21403233877E+02 -0.13854043861E+02 -0.43500735255E+02  0.50594657025E+02  0.41800000000E+01 0. -1.
         -5    1    4    4    0  501  0.66375330119E+02 -0.65130889887E+02  0.46506326825E+02  0.10405781134E+03  0.41800000000E+01 0. -1.
</event>
<event>
11    1  0.6455215E-009  0.1288323E+03  0.7561462E-02  0.1120712E+00
         22   -1    0    0    0    0  0.00000000000E+00  0.00000000000E+00  0.65223806888E+03  0.65223806888E+03  0.00000000000E+00 0. -1.
         22   -1    0    0    0    0 -0.00000000000E+00 -0.00000000000E+00 -0.10289556121E+04  0.10289556121E+04  0.00000000000E+00 0.  1.
        -24    2    1    2    0    0 -0.26250515727E+02 -0.25334612507E+02 -0.99737888028E+03  0.10013084323E+04  0.80765175596E+02 0.  0.
         25    2    1    2    0    0 -0.71504164236E+01  0.31189480826E+02  0.14285956021E+03  0.19256281359E+03  0.12509065139E+03 0.  0.
         24    2    1    2    0    0  0.33400932151E+02 -0.58548683192E+01  0.47780177686E+03  0.48732243508E+03  0.89658887004E+02 0.  0.
        -13    1    5    5    0    0 -0.14530674687E+02  0.99070605842E+01  0.19530215995E+02  0.26281546627E+02  0.00000000000E+00 0.  1.
         14    1    5    5    0    0  0.47931606837E+02 -0.15761928903E+02  0.45827156086E+03  0.46104088846E+03  0.00000000000E+00 0. -1.
         11    1    3    3    0    0  0.18488687543E+02  0.16212021095E+02 -0.18310133225E+03  0.18474511920E+03  0.00000000000E+00 0. -1.
        -12    1    3    3    0    0 -0.44739203270E+02 -0.41546633601E+02 -0.81427754803E+03  0.81656331310E+03  0.00000000000E+00 0.  1.
          5    1    4    4  501    0  0.32732136848E+02  0.59490990036E+02  0.12104276977E+03  0.13885026176E+03  0.41800000000E+01 0. -1.
         -5    1    4    4    0  501 -0.39882553272E+02 -0.28301509210E+02  0.21816790446E+02  0.53712551833E+02  0.41800000000E+01 0. -1.
</event>
<event>
11    1  0.6455215E-009  0.1390674E+03  0.7561462E-02  0.1108604E+00
         22   -1    0    0    0    0  0.00000000000E+00  0.00000000000E+00  0.53937450264E+03  0.53937450264E+03  0.00000000000E+00 0. -1.
         22   -1    0    0    0    0 -0.00000000000E+00 -0.00000000000E+00 -0.26455830331E+03  0.26455830331E+03  0.00000000000E+00 0.  1.
         24    2    1    2    0    0  0.19336110122E+02  0.58031752025E+02 -0.22791257228E+03  0.24919276081E+03  0.80070731468E+02 0.  0.
         25    2    1    2    0    0  0.30866546539E+02 -0.60328807532E+02  0.31236520425E+03  0.34323847002E+03  0.12509323627E+03 0.  0.
        -24    2    1    2    0    0 -0.50202656661E+02  0.22970555068E+01  0.19036356736E+03  0.21150157513E+03  0.77259596836E+02 0.  0.
        -11    1    3    3    0    0  0.34114979506E+02  0.50594818453E+02 -0.22403917447E+03  0.23220081649E+03  0.00000000000E+00 0.  1.
         12    1    3    3    0    0 -0.14778869384E+02  0.74369335721E+01 -0.38733978147E+01  0.16991944323E+02  0.00000000000E+00 0. -1.
         13    1    5    5    0    0 -0.60416693521E+02  0.21608435927E+02  0.10220964474E+03  0.12068103760E+03  0.00000000000E+00 0. -1.
        -14    1    5    5    0    0  0.10214036860E+02 -0.19311380420E+02  0.88153922621E+02  0.90820537524E+02  0.00000000000E+00 0.  1.
          5    1    4    4  501    0 -0.42980148083E+02  0.51341760081E+01  0.93718434648E+02  0.10331636020E+03  0.41800000000E+01 0.  1.
         -5    1    4    4    0  501  0.73846694623E+02 -0.65462983540E+02  0.21864676960E+03  0.23992210981E+03  0.41800000000E+01 0.  1.
</event>
<event>
11    1  0.6455215E-009  0.1463239E+03  0.7561462E-02  0.1100695E+00
         22   -1    0    0    0    0  0.00000000000E+00  0.00000000000E+00  0.14814121750E+03  0.14814121750E+03  0.00000000000E+00 0. -1.
         22   -1    0    0    0    0 -0.00000000000E+00 -0.00000000000E+00 -0.71077997913E+03  0.71077997913E+03  0.00000000000E+00 0. -1.
         24    2    1    2    0    0 -0.11282463623E+01  0.66746037966E+02 -0.58106648803E+03  0.59081063306E+03  0.83442399873E+02 0.  0.
         25    2    1    2    0    0 -0.37784959294E+02  0.22223223261E+02 -0.26373516521E+02  0.13515476549E+03  0.12509865490E+03 0.  0.
        -24    2    1    2    0    0  0.38913205656E+02 -0.88969261227E+02  0.44801242920E+02  0.13295579808E+03  0.78995733170E+02 0.  0.
        -13    1    3    3    0    0 -0.32822563610E+02  0.22944685176E+01 -0.13212375814E+03  0.13615899799E+03  0.00000000000E+00 0.  1.
         14    1    3    3    0    0  0.31694317248E+02  0.64451569448E+02 -0.44894272989E+03  0.45465163507E+03  0.00000000000E+00 0. -1.
         11    1    5    5    0    0  0.47887770047E+02 -0.61592340464E+02  0.61777877094E+02  0.99515632049E+02  0.00000000000E+00 0. -1.
        -12    1    5    5    0    0 -0.89745643915E+01 -0.27376920763E+02 -0.16976634174E+02  0.33440166034E+02  0.00000000000E+00 0.  1.
          5    1    4    4  501    0  0.20801067746E+02 -0.33352540154E+02 -0.36323985241E+02  0.53684081978E+02  0.41800000000E+01 0.  1.
         -5    1    4    4    0  501 -0.58586027040E+02  0.55575763415E+02  0.99504687196E+01  0.81470683508E+02  0.41800000000E+01 0.  1.
</event>
<event>
11    1  0.6455215E-009  0.1417605E+03  0.7561462E-02  0.1105608E+00
         22   -1    0    0    0    0  0.00000000000E+00  0.00000000000E+00  0.17818999490E+04  0.17818999490E+04  0.00000000000E+00 0. -1.
         22   -1    0    0    0    0 -0.00000000000E+00 -0.00000000000E+00 -0.24819304023E+04  0.24819304023E+04  0.00000000000E+00 0.  1.
        -24    2    1    2    0    0 -0.15338053786E+00 -0.74898638039E+02 -0.24312373323E+04  0.24337161063E+04  0.80307474357E+02 0.  0.
         25    2    1    2    0    0  0.59711465363E+02  0.41863707156E+02  0.62965066874E+02  0.15789104414E+03  0.12508778158E+03 0.  0.
         24    2    1    2    0    0 -0.59558084825E+02  0.33034930884E+02  0.16682418121E+04  0.16722232009E+04  0.93065664078E+02 0.  0.
        -13    1    5    5    0    0 -0.12540667014E+02 -0.19999862896E+02  0.99133014022E+03  0.99161116863E+03  0.00000000000E+00 0.  1.
         14    1    5    5    0    0 -0.47017417811E+02  0.53034793780E+02  0.67691167192E+03  0.68061203230E+03  0.00000000000E+00 0. -1.
         11    1    3    3    0    0 -0.52845374438E+01 -0.13922429171E+02 -0.64853741522E+02  0.66541476986E+02  0.00000000000E+00 0. -1.
        -12    1    3    3    0    0  0.51311569060E+01 -0.60976208868E+02 -0.23663835908E+04  0.23671746293E+04  0.00000000000E+00 0.  1.
          5    1    4    4  501    0  0.21344203645E+02 -0.14025692985E+01 -0.36644889169E+02  0.42636399145E+02  0.41800000000E+01 0. -1.
         -5    1    4    4    0  501  0.38367261719E+02  0.43266276454E+02  0.99609956043E+02  0.11525464499E+03  0.41800000000E+01 0. -1.
</event>
<event>
11    1  0.6455215E-009  0.2383617E+03  0.7561462E-02  0.1030288E+00
         22   -1    0    0    0    0  0.00000000000E+00  0.00000000000E+00  0.15612944153E+04  0.15612944153E+04  0.00000000000E+00 0. -1.
         22   -1    0    0    0    0 -0.00000000000E+00 -0.00000000000E+00 -0.13385573460E+03  0.13385573460E+03  0.00000000000E+00 0. -1.
        -24    2    1    2    0    0  0.22833573808E+02  0.23893547613E+02 -0.34096958230E+02  0.95065251960E+02  0.82356091816E+02 0.  0.
         25    2    1    2    0    0  0.13463315075E+03 -0.15232453746E+03  0.17680620577E+03  0.29704460297E+03  0.12508481828E+03 0.  0.
         24    2    1    2    0    0 -0.15746672455E+03  0.12843098985E+03  0.12847294331E+04  0.13030402949E+04  0.78064110797E+02 0.  0.
        -11    1    5    5    0    0 -0.14461219181E+02 -0.71361120619E+01  0.19280615768E+03  0.19347936684E+03  0.00000000000E+00 0.  1.
         12    1    5    5    0    0 -0.14300550537E+03  0.13556710191E+03  0.10919232754E+04  0.11095609281E+04  0.00000000000E+00 0. -1.
         11    1    3    3    0    0 -0.39375873058E+00  0.30507647397E+01 -0.56541140342E+02  0.56624753974E+02  0.00000000000E+00 0. -1.
        -12    1    3    3    0    0  0.23227332538E+02  0.20842782874E+02  0.22444182112E+02  0.38440497986E+02  0.00000000000E+00 0.  1.
          5    1    4    4  501    0  0.39449682982E+02 -0.11543702095E+03  0.14606426010E+03  0.19035289273E+03  0.41800000000E+01 0.  1.
         -5    1    4    4    0  501  0.95183467763E+02 -0.36887516512E+02  0.30741945664E+02  0.10669171024E+03  0.41800000000E+01 0.  1.
</event>
<event>
11    1  0.6455215E-009  0.1423813E+03  0.7561462E-02  0.1104928E+00
         22   -1    0    0    0    0  0.00000000000E+00  0.00000000000E+00  0.43613756978E+03  0.43613756978E+03  0.00000000000E+00 0. -1.
         22   -1    0    0    0    0 -0.00000000000E+00 -0.00000000000E+00 -0.29020277005E+03  0.29020277005E+03  0.00000000000E+00 0. -1.
        -24    2    1    2    0    0  0.10413840264E+02  0.41770887286E+02 -0.24791338939E+03  0.26360807400E+03  0.78580614309E+02 0.  0.
         25    2    1    2    0    0 -0.51055961591E+02  0.22119591829E+02  0.16385528890E+03  0.21352250768E+03  0.12508924026E+03 0.  0.
         24    2    1    2    0    0  0.40642121327E+02 -0.63890479115E+02  0.22999290022E+03  0.24920975815E+03  0.58949080204E+02 0.  0.
        -11    1    5    5    0    0 -0.13767208066E+02 -0.25554542810E+02  0.80351110857E+02  0.85433434276E+02  0.00000000000E+00 0.  1.
         12    1    5    5    0    0  0.54409329393E+02 -0.38335936305E+02  0.14964178936E+03  0.16377632387E+03  0.00000000000E+00 0. -1.
         13    1    3    3    0    0  0.23307342992E+02 -0.64316630375E+01 -0.16557219102E+03  0.16732826709E+03  0.00000000000E+00 0. -1.
        -14    1    3    3    0    0 -0.12893502728E+02  0.48202550324E+02 -0.82341198369E+02  0.96279806913E+02  0.00000000000E+00 0.  1.
          5    1    4    4  501    0 -0.91694206769E+02  0.11862320904E+02  0.93762872729E+02  0.13174783078E+03  0.41800000000E+01 0. -1.
         -5    1    4    4    0  501  0.40638245178E+02  0.10257270924E+02  0.70092416170E+02  0.81774676903E+02  0.41800000000E+01 0. -1.
</event>
<event>
11    1  0.6455215E-009  0.1298849E+03  0.7561462E-02  0.1119410E+00
         22   -1    0    0    0    0  0.00000000000E+00  0.00000000000E+00  0.10042361630E+03  0.10042361630E+03  0.00000000000E+00 0.  1.
         22   -1    0    0    0    0 -0.00000000000E+00 -0.00000000000E+00 -0.10600709583E+04  0.10600709583E+04  0.00000000000E+00 0.  1.
         24    2    1    2    0    0 -0.33009245451E+02  0.16068287092E+01 -0.81733777322E+03  0.82197791810E+03  0.80712267552E+02 0.  0.
         25    2    1    2    0    0  0.51386149604E+02 -0.85195039218E+01 -0.19845443830E+03  0.24030823421E+03  0.12510301767E+03 0.  0.
        -24    2    1    2    0    0 -0.18376904154E+02  0.69126752126E+01  0.56144869490E+02  0.98208422307E+02  0.78148270340E+02 0.  0.
        -13    1    3    3    0    0 -0.42815266937E+02  0.31754646928E+02 -0.59635971644E+03  0.59873735150E+03  0.00000000000E+00 0.  1.
         14    1    3    3    0    0  0.98060214861E+01 -0.30147818219E+02 -0.22097805677E+03  0.22324056660E+03  0.00000000000E+00 0. -1.
         11    1    5    5    0    0 -0.29720964229E+02 -0.25560344170E+02  0.96461698835E+01  0.40369734978E+02  0.00000000000E+00 0. -1.
        -12    1    5    5    0    0  0.11344060075E+02  0.32473019383E+02  0.46498699607E+02  0.57838687329E+02  0.00000000000E+00 0.  1.
          5    1    4    4  501    0  0.88139754645E+02  0.14439530658E+02 -0.11029209195E+03  0.14198216206E+03  0.41800000000E+01 0.  1.
         -5    1    4    4    0  501 -0.36753605041E+02 -0.22959034580E+02 -0.88162346349E+02  0.98326072158E+02  0.41800000000E+01 0.  1.
</event>
<event>
11    1  0.6455215E-009  0.1702840E+03  0.7561462E-02  0.1077785E+00
         22   -1    0    0    0    0  0.00000000000E+00  0.00000000000E+00  0.12030988006E+04  0.12030988006E+04  0.00000000000E+00 0.  1.
         22   -1    0    0    0    0 -0.00000000000E+00 -0.00000000000E+00 -0.29343285959E+03  0.29343285959E+03  0.00000000000E+00 0. -1.
         24    2    1    2    0    0  0.14668858380E+02  0.94168751530E+01 -0.25802491605E+03  0.27110977873E+03  0.81362164901E+02 0.  0.
         25    2    1    2    0    0 -0.12123230115E+03  0.29529195493E+02  0.31223398337E+03  0.35875819199E+03  0.12509250865E+03 0.  0.
        -24    2    1    2    0    0  0.10656344277E+03 -0.38946070646E+02  0.85545687369E+03  0.86666368947E+03  0.80168099385E+02 0.  0.
        -11    1    3    3    0    0 -0.19934735091E+02 -0.21138768767E+02 -0.48314122788E+02  0.56378148860E+02  0.00000000000E+00 0.  1.
         12    1    3    3    0    0  0.34603593471E+02  0.30555643921E+02 -0.20971079326E+03  0.21473162987E+03  0.00000000000E+00 0. -1.
         11    1    5    5    0    0 -0.49846770342E+01  0.81268170788E+01  0.16835221746E+02  0.19347269890E+02  0.00000000000E+00 0. -1.
        -12    1    5    5    0    0  0.11154811980E+03 -0.47072887724E+02  0.83862165194E+03  0.84731641958E+03  0.00000000000E+00 0.  1.
          5    1    4    4  501    0 -0.97887077272E+02  0.17260485055E+02  0.87639215642E+02  0.13258170598E+03  0.41800000000E+01 0.  1.
         -5    1    4    4    0  501 -0.23345223873E+02  0.12268710437E+02  0.22459476773E+03  0.22617648601E+03  0.41800000000E+01 0.  1.
</event>
<event>
11    1  0.6455215E-009  0.1781225E+03  0.7561462E-02  0.1071172E+00
         22   -1    0    0    0    0  0.00000000000E+00  0.00000000000E+00  0.11990059659E+04  0.11990059659E+04  0.00000000000E+00 0. -1.
         22   -1    0    0    0    0 -0.00000000000E+00 -0.00000000000E+00 -0.54407099594E+03  0.54407099594E+03  0.00000000000E+00 0.  1.
        -24    2    1    2    0    0 -0.23898862389E+02 -0.12821783384E+03 -0.49488841512E+03  0.51829033373E+03  0.81849606491E+02 0.  0.
         25    2    1    2    0    0  0.61775472336E+02  0.63303907009E+02  0.13575139359E+03  0.20469374902E+03  0.12508995324E+03 0.  0.
         24    2    1    2    0    0 -0.37876609947E+02  0.64913926829E+02  0.10140719915E+04  0.10200928791E+04  0.81234368064E+02 0.  0.
        -11    1    5    5    0    0  0.95196000152E+01  0.25899202996E+02  0.93767481542E+02  0.97743194622E+02  0.00000000000E+00 0.  1.
         12    1    5    5    0    0 -0.47396209962E+02  0.39014723833E+02  0.92030450998E+03  0.92234968449E+03  0.00000000000E+00 0. -1.
         11    1    3    3    0    0  0.29169669012E+02 -0.35487925866E+02 -0.12065016276E+03  0.12909966788E+03  0.00000000000E+00 0. -1.
        -12    1    3    3    0    0 -0.53068531401E+02 -0.92729907971E+02 -0.37423825236E+03  0.38919066585E+03  0.00000000000E+00 0.  1.
          5    1    4    4  501    0  0.79640309248E+02 -0.33555384041E+01  0.48612610276E+02  0.93458529696E+02  0.41800000000E+01 0.  1.
         -5    1    4    4    0  501 -0.17864836913E+02  0.66659445413E+02  0.87138783316E+02  0.11123521933E+03  0.41800000000E+01 0.  1.
</event>
<event>
11    1  0.6455215E-009  0.1552782E+03  0.7561462E-02  0.1091604E+00
         22   -1    0    0    0    0  0.00000000000E+00  0.00000000000E+00  0.19748365577E+04  0.19748365577E+04  0.00000000000E+00 0.  1.
         22   -1    0    0    0    0 -0.00000000000E+00 -0.00000000000E+00 -0.78291958736E+02  0.78291958736E+02  0.00000000000E+00 0.  1.
        -24    2    1    2    0    0 -0.68400749546E+02  0.62067358577E+02 -0.13041477059E+02  0.12327590179E+03  0.80596825614E+02 0.  0.
         25    2    1    2    0    0  0.95304435327E+02 -0.23302966579E+02  0.74137351282E+03  0.75822687300E+03  0.12508933522E+03 0.  0.
         24    2    1    2    0    0 -0.26903685781E+02 -0.38764391998E+02  0.11682125632E+04  0.11716257417E+04  0.75893341369E+02 0.  0.
        -13    1    5    5    0    0 -0.13726964476E+02 -0.60486556915E+02  0.70766212680E+03  0.71037506912E+03  0.00000000000E+00 0.  1.
         14    1    5    5    0    0 -0.13176721306E+02  0.21722164917E+02  0.46055043642E+03  0.46125067254E+03  0.00000000000E+00 0. -1.
         13    1    3    3    0    0 -0.49307190123E+02  0.52853993213E+01  0.21583496832E+02  0.54083100681E+02  0.00000000000E+00 0. -1.
        -14    1    3    3    0    0 -0.19093559423E+02  0.56781959256E+02 -0.34624973891E+02  0.69192801109E+02  0.00000000000E+00 0.  1.
          5    1    4    4  501    0  0.27964775777E+02  0.69276294064E+01  0.25965995716E+02  0.39009307441E+02  0.41800000000E+01 0. -1.
         -5    1    4    4    0  501  0.67339659550E+02 -0.30230595986E+02  0.71540751710E+03  0.71921756556E+03  0.41800000000E+01 0. -1.
</event>
<event>
11    1  0.6455215E-009  0.1529366E+03  0.7561462E-02  0.1093915E+00
         22   -1    0    0    0    0  0.00000000000E+00  0.00000000000E+00  0.57704467856E+03  0.57704467856E+03  0.00000000000E+00 0. -1.
         22   -1    0    0    0    0 -0.00000000000E+00 -0.00000000000E+00 -0.98985041528E+03  0.98985041528E+03  0.00000000000E+00 0. -1.
         24    2    1    2    0    0 -0.33892878210E+02 -0.34895705226E+01 -0.84435663544E+03  0.84913061020E+03  0.83209140632E+02 0.  0.
         25    2    1    2    0    0  0.10364396383E+03  0.54809774372E+02 -0.82420227876E+02  0.19022675330E+03  0.12508773363E+03 0.  0.
        -24    2    1    2    0    0 -0.69751085615E+02 -0.51320203849E+02  0.51397112659E+03  0.52753773034E+03  0.81429482951E+02 0.  0.
        -11    1    3    3    0    0 -0.53763667694E+02  0.21305208224E+02 -0.51044589428E+03  0.51371145096E+03  0.00000000000E+00 0.  1.
         12    1    3    3    0    0  0.19870789484E+02 -0.24794778746E+02 -0.33391074116E+03  0.33541915924E+03  0.00000000000E+00 0. -1.
         13    1    5    5    0    0 -0.62107643728E+02 -0.12013999353E+02  0.42858941526E+03  0.43323271167E+03  0.00000000000E+00 0. -1.
        -14    1    5    5    0    0 -0.76434418871E+01 -0.39306204496E+02  0.85381711326E+02  0.94305018661E+02  0.00000000000E+00 0.  1.
          5    1    4    4  501    0  0.10513185622E+03  0.63607286832E+01 -0.92849761435E+02  0.14046962896E+03  0.41800000000E+01 0.  1.
         -5    1    4    4    0  501 -0.14878923994E+01  0.48449045689E+02  0.10429533559E+02  0.49757124336E+02  0.41800000000E+01 0.  1.
</event>
<event>
11    1  0.6455215E-009  0.1503220E+03  0.7561462E-02  0.1096550E+00
         22   -1    0    0    0    0  0.00000000000E+00  0.00000000000E+00  0.99846049411E+03  0.99846049411E+03  0.00000000000E+00 0.  1.
         22   -1    0    0    0    0 -0.00000000000E+00 -0.00000000000E+00 -0.20589024722E+03  0.20589024722E+03  0.00000000000E+00 0. -1.
        -24    2    1    2    0    0 -0.26388684373E+02  0.79036251866E+02 -0.12128448445E+03  0.16763586845E+03  0.80304211912E+02 0.  0.
         25    2    1    2    0    0  0.21746717730E+02 -0.80748148265E+02  0.35265003373E+02  0.15454597741E+03  0.12509058914E+03 0.  0.
         24    2    1    2    0    0  0.46419666434E+01  0.17118963985E+01  0.87858972797E+03  0.88216889547E+03  0.79231127756E+02 0.  0.
        -11    1    5    5    0    0  0.30336024626E+02  0.22724865969E+02  0.26675169702E+03  0.26943118191E+03  0.00000000000E+00 0.  1.
         12    1    5    5    0    0 -0.25694057982E+02 -0.21012969570E+02  0.61183803095E+03  0.61273771357E+03  0.00000000000E+00 0. -1.
         13    1    3    3    0    0 -0.19113042568E+02  0.12111038227E+02 -0.91084068917E+02  0.93852507977E+02  0.00000000000E+00 0. -1.
        -14    1    3    3    0    0 -0.72756418052E+01  0.66925213639E+02 -0.30200415532E+02  0.73783360473E+02  0.00000000000E+00 0.  1.
          5    1    4    4  501    0  0.22459244422E+02  0.14313142042E+02 -0.29098052501E+02  0.39666771415E+02  0.41800000000E+01 0.  1.
         -5    1    4    4    0  501 -0.71252669188E+00 -0.95061290307E+02  0.64363055874E+02  0.11487920600E+03  0.41800000000E+01 0.  1.
</event>
<event>
11    1  0.6455215E-009  0.1702190E+03  0.7561462E-02  0.1077841E+00
         22   -1    0    0    0    0  0.00000000000E+00  0.00000000000E+00  0.38034685043E+04  0.38034685043E+04  0.00000000000E+00 0.  1.
         22   -1    0    0    0    0 -0.00000000000E+00 -0.00000000000E+00 -0.68309442153E+03  0.68309442153E+03  0.00000000000E+00 0. -1.
         24    2    1    2    0    0 -0.87599846702E+02 -0.82212698695E+01 -0.64828107110E+03  0.65916626876E+03  0.80563641311E+02 0.  0.
         25    2    1    2    0    0  0.42180865683E+02 -0.10001651454E+03  0.21744720011E+03  0.27334180204E+03  0.12509966947E+03 0.  0.
        -24    2    1    2    0    0  0.45418981019E+02  0.10823778441E+03  0.35512079537E+04  0.35540548550E+04  0.80309899543E+02 0.  0.
        -11    1    3    3    0    0 -0.19735368859E+02  0.27946639021E+02 -0.32813595953E+03  0.32991469708E+03  0.00000000000E+00 0.  1.
         12    1    3    3    0    0 -0.67864477843E+02 -0.36167908891E+02 -0.32014511157E+03  0.32925157167E+03  0.00000000000E+00 0. -1.
         11    1    5    5    0    0 -0.19225824323E+02  0.13749885654E+02  0.34808694600E+03  0.34888854044E+03  0.00000000000E+00 0. -1.
        -12    1    5    5    0    0  0.64644805342E+02  0.94487898752E+02  0.32031210077E+04  0.32051663146E+04  0.00000000000E+00 0.  1.
          5    1    4    4  501    0  0.22481542163E+02  0.15883350096E+02  0.20527368473E+01  0.27917497682E+02  0.41800000000E+01 0. -1.
         -5    1    4    4    0  501  0.19699323520E+02 -0.11589986463E+03  0.21539446326E+03  0.24542430436E+03  0.41800000000E+01 0. -1.
</event>
<event>
11    1  0.6455215E-009  0.1362642E+03  0.7561462E-02  0.1111803E+00
         22   -1    0    0    0    0  0.00000000000E+00  0.00000000000E+00  0.11135560547E+03  0.11135560547E+03  0.00000000000E+00 0. -1.
         22   -1    0    0    0    0 -0.00000000000E+00 -0.00000000000E+00 -0.15255649987E+04  0.15255649987E+04  0.00000000000E+00 0. -1.
        -24    2    1    2    0    0 -0.30063267093E+01 -0.32092139428E+02 -0.12231439129E+04  0.12265753891E+04  0.85832453756E+02 0.  0.
         25    2    1    2    0    0 -0.39909073931E+02  0.62390484870E+02 -0.25614641144E+03  0.29454179762E+03  0.12513424657E+03 0.  0.
         24    2    1    2    0    0  0.42915400640E+02 -0.30298345443E+02  0.65080931073E+02  0.11580341747E+03  0.80094834788E+02 0.  0.
        -13    1    5    5    0    0  0.41066817754E+02 -0.15385320003E+02 -0.49918992268E+01  0.44137406470E+02  0.00000000000E+00 0.  1.
         14    1    5    5    0    0  0.18485828868E+01 -0.14913025439E+02  0.70072830300E+02  0.71666011000E+02  0.00000000000E+00 0. -1.
         11    1    3    3    0    0  0.49486019520E+01 -0.59885592721E+02 -0.67488814302E+03  0.67755795211E+03  0.00000000000E+00 0. -1.
        -12    1    3    3    0    0 -0.79549286613E+01  0.27793453293E+02 -0.54825576986E+03  0.54901743700E+03  0.00000000000E+00 0.  1.
          5    1    4    4  501    0 -0.72620578469E+02  0.36896216762E+02 -0.23299995468E+03  0.24686338431E+03  0.41800000000E+01 0. -1.
         -5    1    4    4    0  501  0.32711504538E+02  0.25494268108E+02 -0.23146456762E+02  0.47678413314E+02  0.41800000000E+01 0. -1.
</event>
<event>
11    1  0.6455215E-009  0.1438903E+03  0.7561462E-02  0.1103290E+00
         22   -1    0    0    0    0  0.00000000000E+00  0.00000000000E+00  0.10917423978E+04  0.10917423978E+04  0.00000000000E+00 0.  1.
         22   -1    0    0    0    0 -0.00000000000E+00 -0.00000000000E+00 -0.38129607450E+03  0.38129607450E+03  0.00000000000E+00 0. -1.
         24    2    1    2    0    0 -0.73665785919E+00 -0.32952064658E+02 -0.30839843230E+03  0.32115259504E+03  0.83324756365E+02 0.  0.
         25    2    1    2    0    0 -0.34324603175E+02 -0.30372432593E+02  0.61533889197E+01  0.13336662697E+03  0.12509248558E+03 0.  0.
        -24    2    1    2    0    0  0.35061261034E+02  0.63324497251E+02  0.10126913666E+04  0.10185192503E+04  0.81230382874E+02 0.  0.
        -11    1    3    3    0    0  0.13438860122E+02 -0.34715160597E+02 -0.49878638623E+02  0.62238444129E+02  0.00000000000E+00 0.  1.
         12    1    3    3    0    0 -0.14175517981E+02  0.17630959396E+01 -0.25851979368E+03  0.25891415091E+03  0.00000000000E+00 0. -1.
         13    1    5    5    0    0  0.60183482013E+01 -0.12463008471E+02  0.37778474656E+02  0.40233819637E+02  0.00000000000E+00 0. -1.
        -14    1    5    5    0    0  0.29042912833E+02  0.75787505722E+02  0.97491289198E+03  0.97828543062E+03  0.00000000000E+00 0.  1.
          5    1    4    4  501    0  0.39740590781E+02 -0.11192272988E+01  0.30173729141E+02  0.50084863538E+02  0.41800000000E+01 0.  1.
         -5    1    4    4    0  501 -0.74065193956E+02 -0.29253205294E+02 -0.24020340221E+02  0.83281763431E+02  0.41800000000E+01 0.  1.
</event>
<event>
11    1  0.1131637E-008  0.1617356E+03  0.7561462E-02  0.1085456E+00
         22   -1    0    0    0    0  0.00000000000E+00  0.00000000000E+00  0.28378544401E+03  0.28378544401E+03  0.00000000000E+00 0. -1.
         22   -1    0    0    0    0 -0.00000000000E+00 -0.00000000000E+00 -0.14089569031E+04  0.14089569031E+04  0.00000000000E+00 0.  1.
        -24    2    1    2    0    0 -0.71271655106E+01 -0.48173327598E+01 -0.10113672730E+04  0.10147557449E+04  0.82410301050E+02 0.  0.
         25    2    1    2    0    0  0.96601763797E+02 -0.44923583287E+02 -0.36292088150E+03  0.39838344347E+03  0.12509105763E+03 0.  0.
         24    2    1    2    0    0 -0.89474598286E+02  0.49740916047E+02  0.24911669547E+03  0.27960315869E+03  0.75092848630E+02 0.  0.
        -13    1    5    5    0    0  0.11627103809E+02  0.86155218759E+01  0.55352760544E+02  0.57213152858E+02  0.00000000000E+00 0.  1.
         14    1    5    5    0    0 -0.10110170209E+03  0.41125394171E+02  0.19376393493E+03  0.22239000583E+03  0.00000000000E+00 0. -1.
         13    1    3    3    0    0 -0.96092185058E+01  0.23240394159E+02 -0.10569979342E+03  0.10865035356E+03  0.00000000000E+00 0. -1.
        -14    1    3    3    0    0  0.24820529952E+01 -0.28057726919E+02 -0.90566747961E+03  0.90610539136E+03  0.00000000000E+00 0.  1.
          5    1    4    4  501    0  0.72773801015E+02 -0.86038294506E+02 -0.21231811193E+03  0.24040604670E+03  0.41800000000E+01 0.  1.
         -5    1    4    4    0  501  0.23827962782E+02  0.41114711219E+02 -0.15060276957E+03  0.15797739677E+03  0.41800000000E+01 0.  1.
</event>
<event>
11    1  0.6455215E-009  0.2494865E+03  0.7561462E-02  0.1024173E+00
         22   -1    0    0    0    0  0.00000000000E+00  0.00000000000E+00  0.52107042848E+03  0.52107042848E+03  0.00000000000E+00 0.  1.
         22   -1    0    0    0    0 -0.00000000000E+00 -0.00000000000E+00 -0.58483017211E+03  0.58483017211E+03  0.00000000000E+00 0.  1.
        -24    2    1    2    0    0 -0.59288208142E+02 -0.31714321803E+00 -0.45282199267E+03  0.46367777280E+03  0.80213014750E+02 0.  0.
         25    2    1    2    0    0 -0.58149316470E+01 -0.21062990852E+03  0.87603295960E+02  0.26023457958E+03  0.12509567199E+03 0.  0.
         24    2    1    2    0    0  0.65103139789E+02  0.21094705174E+03  0.30145895308E+03  0.38198824822E+03  0.79375335840E+02 0.  0.
        -11    1    5    5    0    0  0.46590362944E+02  0.15727163843E+03  0.15819394655E+03  0.22788232687E+03  0.00000000000E+00 0.  1.
         12    1    5    5    0    0  0.18512776844E+02  0.53675413311E+02  0.14326500653E+03  0.15410592135E+03  0.00000000000E+00 0. -1.
         13    1    3    3    0    0  0.25683042309E+00 -0.21601532854E+02 -0.35236594504E+02  0.41331704244E+02  0.00000000000E+00 0. -1.
        -14    1    3    3    0    0 -0.59545038565E+02  0.21284389636E+02 -0.41758539817E+03  0.42234606855E+03  0.00000000000E+00 0.  1.
          5    1    4    4  501    0 -0.59458447205E+02 -0.67536458953E+02  0.49078217709E+02  0.10257984249E+03  0.41800000000E+01 0. -1.
         -5    1    4    4    0  501  0.53643515558E+02 -0.14309344957E+03  0.38525078251E+02  0.15765473709E+03  0.41800000000E+01 0. -1.
</event>
<event>
11    1  0.6455215E-009  0.1344312E+03  0.7561462E-02  0.1113941E+00
         22   -1    0    0    0    0  0.00000000000E+00  0.00000000000E+00  0.24337238894E+04  0.24337238894E+04  0.00000000000E+00 0.  1.
         22   -1    0    0    0    0 -0.00000000000E+00 -0.00000000000E+00 -0.82563736296E+02  0.82563736296E+02  0.00000000000E+00 0. -1.
         24    2    1    2    0    0  0.17542259488E+02 -0.11750390280E+02 -0.83172664676E+01  0.83629052579E+02  0.80491235387E+02 0.  0.
         25    2    1    2    0    0  0.28178187061E+02  0.30858985706E+02  0.86620409668E+02  0.15778804978E+03  0.12509071132E+03 0.  0.
        -24    2    1    2    0    0 -0.45720446549E+02 -0.19108595425E+02  0.22728570099E+04  0.22748705233E+04  0.81862157394E+02 0.  0.
        -13    1    3    3    0    0  0.56141717859E+01 -0.37388896828E+02  0.20707024454E+02  0.43107184930E+02  0.00000000000E+00 0.  1.
         14    1    3    3    0    0  0.11928087702E+02  0.25638506548E+02 -0.29024290921E+02  0.40521867649E+02  0.00000000000E+00 0. -1.
         13    1    5    5    0    0  0.11561591021E+02 -0.86679047127E+01  0.83618981405E+02  0.84858334949E+02  0.00000000000E+00 0. -1.
        -14    1    5    5    0    0 -0.57282037570E+02 -0.10440690713E+02  0.21892380285E+04  0.21900121884E+04  0.00000000000E+00 0.  1.
          5    1    4    4  501    0 -0.29473088629E+02 -0.33872036816E+02  0.28715007388E+02  0.53460283208E+02  0.41800000000E+01 0. -1.
         -5    1    4    4    0  501  0.57651275690E+02  0.64731022521E+02  0.57905402280E+02  0.10432776658E+03  0.41800000000E+01 0. -1.
</event>
<event>
11    1  0.6455215E-009  0.1578239E+03  0.7561462E-02  0.1089142E+00
         22   -1    0    0    0    0  0.00000000000E+00  0.00000000000E+00  0.12807362607E+04  0.12807362607E+04  0.00000000000E+00 0.  1.
         22   -1    0    0    0    0 -0.00000000000E+00 -0.00000000000E+00 -0.16925782420E+04  0.16925782420E+04  0.00000000000E+00 0. -1.
        -24    2    1    2    0    0 -0.95176707244E+02  0.13486409057E+02 -0.16562103295E+04  0.16608919355E+04  0.79302440923E+02 0.  0.
         25    2    1    2    0    0  0.10108456930E+03 -0.42651101776E+02  0.18091367716E+03  0.24579260047E+03  0.12508811786E+03 0.  0.
         24    2    1    2    0    0 -0.59078620547E+01  0.29164692719E+02  0.10634546710E+04  0.10666299667E+04  0.76669201723E+02 0.  0.
        -11    1    5    5    0    0 -0.34801933940E+02  0.20252157712E+02  0.85984778408E+03  0.86079006517E+03  0.00000000000E+00 0.  1.
         12    1    5    5    0    0  0.28894071885E+02  0.89125350077E+01  0.20360688694E+03  0.20583990157E+03  0.00000000000E+00 0. -1.
         13    1    3    3    0    0 -0.42140316614E+02 -0.11068259232E+02 -0.12207250214E+04  0.12215023088E+04  0.00000000000E+00 0. -1.
        -14    1    3    3    0    0 -0.53036390629E+02  0.24554668289E+02 -0.43548530808E+03  0.43938962666E+03  0.00000000000E+00 0.  1.
          5    1    4    4  501    0 -0.12432104736E+02 -0.31358332904E+02  0.26273078158E+01  0.34092189971E+02  0.41800000000E+01 0.  1.
         -5    1    4    4    0  501  0.11351667403E+03 -0.11292768873E+02  0.17828636934E+03  0.21170041050E+03  0.41800000000E+01 0.  1.
</event>
<event>
11    1  0.6455215E-009  0.1606144E+03  0.7561462E-02  0.1086501E+00
         22   -1    0    0    0    0  0.00000000000E+00  0.00000000000E+00  0.30822014830E+03  0.30822014830E+03  0.00000000000E+00 0. -1.
         22   -1    0    0    0    0 -0.00000000000E+00 -0.00000000000E+00 -0.13764352741E+04  0.13764352741E+04  0.00000000000E+00 0. -1.
         24    2    1    2    0    0 -0.40100809135E+02  0.91159070888E+02 -0.12780489308E+04  0.12862061904E+04  0.10487727899E+03 0.  0.
         25    2    1    2    0    0  0.87563787634E+02 -0.10269110765E+03  0.18536152312E+02  0.18494350186E+03  0.12509048502E+03 0.  0.
        -24    2    1    2    0    0 -0.47462978500E+02  0.11532036758E+02  0.19129765267E+03  0.21350573014E+03  0.81266122632E+02 0.  0.
        -13    1    3    3    0    0  0.46442874119E+01  0.79651619590E+01 -0.73121527622E+03  0.73127340536E+03  0.00000000000E+00 0.  1.
         14    1    3    3    0    0 -0.44745096547E+02  0.83193908929E+02 -0.54683365455E+03  0.55493278503E+03  0.00000000000E+00 0. -1.
         13    1    5    5    0    0 -0.18825289728E+02  0.41899064135E+02  0.14016410592E+03  0.14749881253E+03  0.00000000000E+00 0. -1.
        -14    1    5    5    0    0 -0.28637688771E+02 -0.30367027377E+02  0.51133546744E+02  0.66006917611E+02  0.00000000000E+00 0.  1.
          5    1    4    4  501    0  0.55526070998E+01 -0.10154997398E+03  0.72398421567E+01  0.10204467833E+03  0.41800000000E+01 0.  1.
         -5    1    4    4    0  501  0.82011180535E+02 -0.11411336613E+01  0.11296310155E+02  0.82898823525E+02  0.41800000000E+01 0.  1.
</event>
<event>
11    1  0.6455215E-009  0.1263491E+03  0.7561462E-02  0.1123838E+00
         22   -1    0    0    0    0  0.00000000000E+00  0.00000000000E+00  0.16890048267E+03  0.16890048267E+03  0.00000000000E+00 0. -1.
         22   -1    0    0    0    0 -0.00000000000E+00 -0.00000000000E+00 -0.12405658769E+04  0.12405658769E+04  0.00000000000E+00 0. -1.
        -24    2    1    2    0    0 -0.60752282109E+01 -0.20026408672E+02 -0.11678853139E+04  0.11707294706E+04  0.78825259310E+02 0.  0.
         25    2    1    2    0    0 -0.45249495867E+01 -0.53585117214E+00  0.21808970615E+02  0.12706058689E+03  0.12509196311E+03 0.  0.
         24    2    1    2    0    0  0.10600177798E+02  0.20562259844E+02  0.74410948969E+02  0.11167630216E+03  0.79996480156E+02 0.  0.
        -11    1    5    5    0    0  0.21335086849E+02 -0.11801012049E+02 -0.53247833232E+01  0.24956023996E+02  0.00000000000E+00 0.  1.
         12    1    5    5    0    0 -0.10734909052E+02  0.32363271892E+02  0.79735732292E+02  0.86720278159E+02  0.00000000000E+00 0. -1.
         13    1    3    3    0    0 -0.18408658721E+02 -0.19979825194E+02 -0.11389660404E+04  0.11392900041E+04  0.00000000000E+00 0. -1.
        -14    1    3    3    0    0  0.12333430510E+02 -0.46583477225E-01 -0.28919273413E+02  0.31439466486E+02  0.00000000000E+00 0.  1.
          5    1    4    4  501    0  0.33581584343E+02  0.47710824153E+02 -0.72297856331E+01  0.58938847534E+02  0.41800000000E+01 0.  1.
         -5    1    4    4    0  501 -0.38106533930E+02 -0.48246675325E+02  0.29038756248E+02  0.68121739353E+02  0.41800000000E+01 0.  1.
</event>
<event>
11    1  0.6455215E-009  0.1454932E+03  0.7561462E-02  0.1101575E+00
         22   -1    0    0    0    0  0.00000000000E+00  0.00000000000E+00  0.96205939309E+03  0.96205939309E+03  0.00000000000E+00 0. -1.
         22   -1    0    0    0    0 -0.00000000000E+00 -0.00000000000E+00 -0.64597636047E+03  0.64597636047E+03  0.00000000000E+00 0.  1.
        -24    2    1    2    0    0  0.25454136802E+02 -0.70420524334E+02 -0.49963167135E+03  0.51216260091E+03  0.84093753781E+02 0.  0.
         25    2    1    2    0    0 -0.80977852416E+02  0.41998527332E+02 -0.93626338168E+02  0.18092776803E+03  0.12509067577E+03 0.  0.
         24    2    1    2    0    0  0.55523715614E+02  0.28421997002E+02  0.90934104213E+03  0.91494538463E+03  0.79581612420E+02 0.  0.
        -11    1    5    5    0    0  0.48237946914E+01  0.36965489333E+02  0.18140204319E+03  0.18519292014E+03  0.00000000000E+00 0.  1.
         12    1    5    5    0    0  0.50699920923E+02 -0.85434923307E+01  0.72793899894E+03  0.72975246448E+03  0.00000000000E+00 0. -1.
         11    1    3    3    0    0 -0.16120430487E+02  0.11553336442E+02 -0.66937892766E+02  0.69814248904E+02  0.00000000000E+00 0. -1.
        -12    1    3    3    0    0  0.41574567288E+02 -0.81973860776E+02 -0.43269377858E+03  0.44234835200E+03  0.00000000000E+00 0.  1.
          5    1    4    4  501    0  0.13050207157E+02 -0.32024223354E+02 -0.16931048383E+02  0.38729724858E+02  0.41800000000E+01 0.  1.
         -5    1    4    4    0  501 -0.94028059573E+02  0.74022750686E+02 -0.76695289785E+02  0.14219804317E+03  0.41800000000E+01 0.  1.
</event>
<event>
11    1  0.6455215E-009  0.1355668E+03  0.7561462E-02  0.1112612E+00
         22   -1    0    0    0    0  0.00000000000E+00  0.00000000000E+00  0.32817904556E+04  0.32817904556E+04  0.00000000000E+00 0.  1.
         22   -1    0    0    0    0 -0.00000000000E+00 -0.00000000000E+00 -0.30124502411E+03  0.30124502411E+03  0.00000000000E+00 0.  1.
        -24    2    1    2    0    0 -0.45914035107E+02 -0.24439990471E+02 -0.28247021755E+03  0.30190880787E+03  0.93027376144E+02 0.  0.
         25    2    1    2    0    0  0.39879722824E+02  0.73556020412E+02  0.69467113086E+03  0.71078559676E+03  0.12508918447E+03 0.  0.
         24    2    1    2    0    0  0.60343122835E+01 -0.49116029941E+02  0.25683445182E+04  0.25703410751E+04  0.88379188290E+02 0.  0.
        -13    1    5    5    0    0 -0.14016341806E+02 -0.70535045002E+02  0.18550244065E+04  0.18564178407E+04  0.00000000000E+00 0.  1.
         14    1    5    5    0    0  0.20050654090E+02  0.21419015061E+02  0.71332011161E+03  0.71392323436E+03  0.00000000000E+00 0. -1.
         11    1    3    3    0    0 -0.76117053439E+01 -0.74277658024E+01  0.47493708951E+01  0.11647587173E+02  0.00000000000E+00 0. -1.
        -12    1    3    3    0    0 -0.38302329764E+02 -0.17012224669E+02 -0.28721958845E+03  0.29026122070E+03  0.00000000000E+00 0.  1.
          5    1    4    4  501    0 -0.38990403312E+02 -0.66071689703E+00  0.12917856511E+03  0.13500097104E+03  0.41800000000E+01 0.  1.
         -5    1    4    4    0  501  0.78870126136E+02  0.74216737309E+02  0.56549256575E+03  0.57578462571E+03  0.41800000000E+01 0.  1.
</event>
<event>
11    1  0.6455215E-009  0.1803134E+03  0.7561462E-02  0.1069390E+00
         22   -1    0    0    0    0  0.00000000000E+00  0.00000000000E+00  0.81507560336E+02  0.81507560336E+02  0.00000000000E+00 0. -1.
         22   -1    0    0    0    0 -0.00000000000E+00 -0.00000000000E+00 -0.96389886476E+03  0.96389886476E+03  0.00000000000E+00 0.  1.
        -24    2    1    2    0    0  0.10095750866E+03  0.70703057899E+02 -0.61475999585E+03  0.63198451260E+03  0.79266832443E+02 0.  0.
         25    2    1    2    0    0 -0.12394285388E+03 -0.94771584704E+02 -0.26066413399E+03  0.32853796399E+03  0.12509164136E+03 0.  0.
         24    2    1    2    0    0  0.22985345229E+02  0.24068526805E+02 -0.69671745793E+01  0.84883948496E+02  0.77776108881E+02 0.  0.
        -13    1    5    5    0    0 -0.23528948674E+02 -0.11307063618E+02 -0.74386176791E+00  0.26115406252E+02  0.00000000000E+00 0.  1.
         14    1    5    5    0    0  0.46514293903E+02  0.35375590423E+02 -0.62233128114E+01  0.58768542244E+02  0.00000000000E+00 0. -1.
         13    1    3    3    0    0  0.37526058564E+01 -0.14767329414E+02 -0.39373992698E+02  0.42219277229E+02  0.00000000000E+00 0. -1.
        -14    1    3    3    0    0  0.97204902799E+02  0.85470387313E+02 -0.57538600315E+03  0.58976523537E+03  0.00000000000E+00 0.  1.
          5    1    4    4  501    0  0.20072863107E+02 -0.81085591562E+01 -0.74472616428E+02  0.77667957115E+02  0.41800000000E+01 0.  1.
         -5    1    4    4    0  501 -0.14401571699E+03 -0.86663025548E+02 -0.18619151757E+03  0.25087000688E+03  0.41800000000E+01 0.  1.
</event>
<event>
11    1  0.6455215E-009  0.3983957E+03  0.7561462E-02  0.9654503E-01
         22   -1    0    0    0    0  0.00000000000E+00  0.00000000000E+00  0.53798303867E+03  0.53798303867E+03  0.00000000000E+00 0.  1.
         22   -1    0    0    0    0 -0.00000000000E+00 -0.00000000000E+00 -0.30981369946E+03  0.30981369946E+03  0.00000000000E+00 0. -1.
        -24    2    1    2    0    0  0.33687227392E+03 -0.56512704007E+02 -0.55951063515E+02  0.35846705813E+03  0.93228191027E+02 0.  0.
         25    2    1    2    0    0 -0.18452961620E+03  0.14933148855E+02  0.14467993506E+03  0.26618473431E+03  0.12509137053E+03 0.  0.
         24    2    1    2    0    0 -0.15234265773E+03  0.41579555151E+02  0.13944046767E+03  0.22314494569E+03  0.73572263757E+02 0.  0.
        -11    1    5    5    0    0 -0.15163991488E+03  0.54376857080E+02  0.13240192852E+03  0.20852284538E+03  0.00000000000E+00 0.  1.
         12    1    5    5    0    0 -0.70274284995E+00 -0.12797301928E+02  0.70385391452E+01  0.14622100309E+02  0.00000000000E+00 0. -1.
         11    1    3    3    0    0  0.23961038346E+03 -0.22005683913E+01 -0.59915917569E+02  0.24699776424E+03  0.00000000000E+00 0. -1.
        -12    1    3    3    0    0  0.97261890468E+02 -0.54312135615E+02  0.39648540535E+01  0.11146929389E+03  0.00000000000E+00 0.  1.
          5    1    4    4  501    0 -0.86302955344E+02  0.56772546369E+02  0.26226254323E+02  0.10666119697E+03  0.41800000000E+01 0.  1.
         -5    1    4    4    0  501 -0.98226660852E+02 -0.41839397514E+02  0.11845368073E+03  0.15952353734E+03  0.41800000000E+01 0.  1.
</event>
<event>
11    1  0.6455215E-009  0.1374390E+03  0.7561462E-02  0.1110452E+00
         22   -1    0    0    0    0  0.00000000000E+00  0.00000000000E+00  0.44323419199E+03  0.44323419199E+03  0.00000000000E+00 0. -1.
         22   -1    0    0    0    0 -0.00000000000E+00 -0.00000000000E+00 -0.79868537793E+03  0.79868537793E+03  0.00000000000E+00 0. -1.
        -24    2    1    2    0    0 -0.30464425085E+02  0.49772770156E+02 -0.69052802399E+03  0.69741582626E+03  0.78450449048E+02 0.  0.
         25    2    1    2    0    0  0.47654868351E+02 -0.14850528704E+02 -0.54355847935E+02  0.14523686280E+03  0.12509062087E+03 0.  0.
         24    2    1    2    0    0 -0.17190443266E+02 -0.34922241453E+02  0.38943268599E+03  0.39926688085E+03  0.79000955309E+02 0.  0.
        -11    1    5    5    0    0  0.27187600693E+02 -0.11002342131E+02  0.70240592490E+02  0.76118053031E+02  0.00000000000E+00 0.  1.
         12    1    5    5    0    0 -0.44378043959E+02 -0.23919899321E+02  0.31919209350E+03  0.32314882782E+03  0.00000000000E+00 0. -1.
         13    1    3    3    0    0 -0.54156673751E+02  0.19250532025E+02 -0.47343765974E+03  0.47691377203E+03  0.00000000000E+00 0. -1.
        -14    1    3    3    0    0  0.23692248666E+02  0.30522238132E+02 -0.21709036426E+03  0.22050205423E+03  0.00000000000E+00 0.  1.
          5    1    4    4  501    0 -0.14287758346E+02 -0.55405773191E+02 -0.83656469922E+01  0.57977549026E+02  0.41800000000E+01 0.  1.
         -5    1    4    4    0  501  0.61942626697E+02  0.40555244487E+02 -0.45990200943E+02  0.87259313774E+02  0.41800000000E+01 0.  1.
</event>
<event>
11    1  0.6455215E-009  0.1331892E+03  0.7561462E-02  0.1115411E+00
         22   -1    0    0    0    0  0.00000000000E+00  0.00000000000E+00  0.17503636954E+04  0.17503636954E+04  0.00000000000E+00 0. -1.
         22   -1    0    0    0    0 -0.00000000000E+00 -0.00000000000E+00 -0.81979894934E+02  0.81979894934E+02  0.00000000000E+00 0.  1.
         24    2    1    2    0    0 -0.29378555225E+02 -0.41215005213E+02 -0.43210903306E+02  0.10497507705E+03  0.81183794410E+02 0.  0.
         25    2    1    2    0    0 -0.21171068273E+02  0.49099094712E+02  0.10814623096E+04  0.10899847997E+04  0.12508877309E+03 0.  0.
        -24    2    1    2    0    0  0.50549623499E+02 -0.78840894988E+01  0.63013239420E+03  0.63738371366E+03  0.81078609496E+02 0.  0.
        -13    1    3    3    0    0  0.15374301671E+02  0.11531154086E+02 -0.28306727524E+02  0.34214141660E+02  0.00000000000E+00 0.  1.
         14    1    3    3    0    0 -0.44752856897E+02 -0.52746159299E+02 -0.14904175783E+02  0.70760935388E+02  0.00000000000E+00 0. -1.
         11    1    5    5    0    0  0.64256810090E+02 -0.15151439696E+02  0.31372251128E+03  0.32059369590E+03  0.00000000000E+00 0. -1.
        -12    1    5    5    0    0 -0.13707186591E+02  0.72673501977E+01  0.31640988292E+03  0.31679001776E+03  0.00000000000E+00 0.  1.
          5    1    4    4  501    0 -0.62429956013E+02  0.32315762313E+02  0.34225282488E+03  0.34942277607E+03  0.41800000000E+01 0.  1.
         -5    1    4    4    0  501  0.41258887739E+02  0.16783332399E+02  0.73920948473E+03  0.74056202358E+03  0.41800000000E+01 0.  1.
</event>
<event>
11    1  0.6455215E-009  0.2305200E+03  0.7561462E-02  0.1034821E+00
         22   -1    0    0    0    0  0.00000000000E+00  0.00000000000E+00  0.11549086409E+03  0.11549086409E+03  0.00000000000E+00 0. -1.
         22   -1    0    0    0    0 -0.00000000000E+00 -0.00000000000E+00 -0.24409909170E+04  0.24409909170E+04  0.00000000000E+00 0.  1.
         24    2    1    2    0    0 -0.56727045526E+02  0.18115279400E+03 -0.18269419047E+04  0.18388836351E+04  0.87988679025E+02 0.  0.
         25    2    1    2    0    0  0.32506487323E+02 -0.20951218622E+03 -0.55808721105E+03  0.60996845252E+03  0.12509256586E+03 0.  0.
        -24    2    1    2    0    0  0.24220558202E+02  0.28359392225E+02  0.59529062834E+02  0.10762969354E+03  0.81544779371E+02 0.  0.
        -13    1    3    3    0    0 -0.42810239401E+02  0.36097885864E+02 -0.75633204190E+03  0.75840222281E+03  0.00000000000E+00 0.  1.
         14    1    3    3    0    0 -0.13916806125E+02  0.14505490813E+03 -0.10706098628E+04  0.10804814123E+04  0.00000000000E+00 0. -1.
         11    1    5    5    0    0  0.48439571419E+02  0.39030978348E+02  0.48828535243E+02  0.79082458257E+02  0.00000000000E+00 0. -1.
        -12    1    5    5    0    0 -0.24219013216E+02 -0.10671586123E+02  0.10700527591E+02  0.28547235283E+02  0.00000000000E+00 0.  1.
          5    1    4    4  501    0  0.17901566443E+02 -0.19566407803E+03 -0.55551384738E+03  0.58925207216E+03  0.41800000000E+01 0.  1.
         -5    1    4    4    0  501  0.14604920881E+02 -0.13848108196E+02 -0.25733636688E+01  0.20716380357E+02  0.41800000000E+01 0.  1.
</event>
<event>
11    1  0.6455215E-009  0.2353646E+03  0.7561462E-02  0.1031998E+00
         22   -1    0    0    0    0  0.00000000000E+00  0.00000000000E+00  0.52491092470E+03  0.52491092470E+03  0.00000000000E+00 0. -1.
         22   -1    0    0    0    0 -0.00000000000E+00 -0.00000000000E+00 -0.10623253575E+04  0.10623253575E+04  0.00000000000E+00 0. -1.
        -24    2    1    2    0    0 -0.98213117315E+02 -0.17452852766E+03 -0.99729246668E+03  0.10205207233E+04  0.82245116888E+02 0.  0.
         25    2    1    2    0    0  0.13445341723E+03  0.11759186594E+03  0.36891847110E+03  0.42854899719E+03  0.12509131197E+03 0.  0.
         24    2    1    2    0    0 -0.36240299913E+02  0.56936661721E+02  0.90959562774E+02  0.13816656170E+03  0.79127832812E+02 0.  0.
        -11    1    5    5    0    0  0.47737657036E+01  0.31523980422E+02  0.83454306292E+02  0.89337402130E+02  0.00000000000E+00 0.  1.
         12    1    5    5    0    0 -0.41014065616E+02  0.25412681299E+02  0.75052564815E+01  0.48829159567E+02  0.00000000000E+00 0. -1.
         11    1    3    3    0    0  0.10930218710E+02 -0.48283618942E+02 -0.24189292111E+03  0.24690678975E+03  0.00000000000E+00 0. -1.
        -12    1    3    3    0    0 -0.10914333602E+03 -0.12624490872E+03 -0.75539954557E+03  0.77361393358E+03  0.00000000000E+00 0.  1.
          5    1    4    4  501    0  0.14638377250E+03  0.12395894816E+03  0.36718336573E+03  0.41428869903E+03  0.41800000000E+01 0.  1.
         -5    1    4    4    0  501 -0.11930355268E+02 -0.63670822203E+01  0.17351053733E+01  0.14260298155E+02  0.41800000000E+01 0.  1.
</event>
<event>
11    1  0.6455215E-009  0.1666184E+03  0.7561462E-02  0.1081012E+00
         22   -1    0    0    0    0  0.00000000000E+00  0.00000000000E+00  0.68094254857E+03  0.68094254857E+03  0.00000000000E+00 0. -1.
         22   -1    0    0    0    0 -0.00000000000E+00 -0.00000000000E+00 -0.10563358542E+04  0.10563358542E+04  0.00000000000E+00 0.  1.
         24    2    1    2    0    0  0.10990626384E+03 -0.13370390914E+02 -0.98571060766E+03  0.99534557999E+03  0.82639381523E+02 0.  0.
         25    2    1    2    0    0 -0.96202177462E+02  0.89219025032E+01  0.36337852232E+02  0.16218180049E+03  0.12509211651E+03 0.  0.
        -24    2    1    2    0    0 -0.13704086377E+02  0.44484884107E+01  0.57397944982E+03  0.57975102226E+03  0.80319661191E+02 0.  0.
        -13    1    3    3    0    0  0.16709425956E+02 -0.10263085537E+02 -0.52114740728E+03  0.52151620872E+03  0.00000000000E+00 0.  1.
         14    1    3    3    0    0  0.93196837883E+02 -0.31073053765E+01 -0.46456320038E+03  0.47382937127E+03  0.00000000000E+00 0. -1.
         13    1    5    5    0    0  0.10036530403E+00 -0.17570439190E+02  0.51500070731E+03  0.51530035799E+03  0.00000000000E+00 0. -1.
        -14    1    5    5    0    0 -0.13804451681E+02  0.22018927601E+02  0.58978742502E+02  0.64450664279E+02  0.00000000000E+00 0.  1.
          5    1    4    4  501    0 -0.68964481824E+02  0.53879465369E+02  0.58107925542E+02  0.10513372414E+03  0.41800000000E+01 0. -1.
         -5    1    4    4    0  501 -0.27237695638E+02 -0.44957562866E+02 -0.21770073310E+02  0.57048076343E+02  0.41800000000E+01 0. -1.
</event>
<event>
11    1  0.6455215E-009  0.1675732E+03  0.7561462E-02  0.1080163E+00
         22   -1    0    0    0    0  0.00000000000E+00  0.00000000000E+00  0.49304845123E+03  0.49304845123E+03  0.00000000000E+00 0.  1.
         22   -1    0    0    0    0 -0.00000000000E+00 -0.00000000000E+00 -0.56824970070E+03  0.56824970070E+03  0.00000000000E+00 0. -1.
        -24    2    1    2    0    0 -0.41954115046E+02  0.60188601875E+02 -0.47018229723E+03  0.48210951786E+03  0.77300575825E+02 0.  0.
         25    2    1    2    0    0  0.14235451280E+03 -0.17712413533E+02  0.34155017710E+02  0.19337304394E+03  0.12509209399E+03 0.  0.
         24    2    1    2    0    0 -0.10040039776E+03 -0.42476188342E+02  0.36082603005E+03  0.38581559012E+03  0.82302971854E+02 0.  0.
        -11    1    5    5    0    0 -0.83071394357E+02 -0.25542369448E+01  0.15966753670E+03  0.18000306376E+03  0.00000000000E+00 0.  1.
         12    1    5    5    0    0 -0.17329003398E+02 -0.39921951397E+02  0.20115849335E+03  0.20581252636E+03  0.00000000000E+00 0. -1.
         13    1    3    3    0    0 -0.41169842750E+02  0.23341693772E+02 -0.40044928524E+03  0.40323618473E+03  0.00000000000E+00 0. -1.
        -14    1    3    3    0    0 -0.78427229556E+00  0.36846908103E+02 -0.69733011984E+02  0.78873333137E+02  0.00000000000E+00 0.  1.
          5    1    4    4  501    0 -0.59645480819E+01 -0.68101845973E+01  0.43185094116E+02  0.44321317691E+02  0.41800000000E+01 0.  1.
         -5    1    4    4    0  501  0.14831906088E+03 -0.10902228936E+02 -0.90300764056E+01  0.14905172625E+03  0.41800000000E+01 0.  1.
</event>
<event>
11    1  0.6455215E-009  0.1435528E+03  0.7561462E-02  0.1103655E+00
         22   -1    0    0    0    0  0.00000000000E+00  0.00000000000E+00  0.97110897162E+02  0.97110897162E+02  0.00000000000E+00 0. -1.
         22   -1    0    0    0    0 -0.00000000000E+00 -0.00000000000E+00 -0.66494575458E+03  0.66494575458E+03  0.00000000000E+00 0. -1.
        -24    2    1    2    0    0 -0.26858764785E+01 -0.53685005474E+02 -0.45102499342E+03  0.46136452499E+03  0.80897382413E+02 0.  0.
         25    2    1    2    0    0  0.69414668504E+02  0.60542251951E+02 -0.11741202860E+03  0.19472208880E+03  0.12508935579E+03 0.  0.
         24    2    1    2    0    0 -0.66728792026E+02 -0.68572464771E+01  0.60216459756E+00  0.10597003796E+03  0.82033729819E+02 0.  0.
        -11    1    5    5    0    0  0.76755297881E+01  0.17794323811E+02  0.17129816730E+02  0.25864692897E+02  0.00000000000E+00 0.  1.
         12    1    5    5    0    0 -0.74404321814E+02 -0.24651570288E+02 -0.16527652133E+02  0.80105345060E+02  0.00000000000E+00 0. -1.
         13    1    3    3    0    0 -0.11479941134E+02 -0.73743586277E+02 -0.32580760498E+03  0.33424616830E+03  0.00000000000E+00 0. -1.
        -14    1    3    3    0    0  0.87940646554E+01  0.20058580803E+02 -0.12521738844E+03  0.12711835668E+03  0.00000000000E+00 0.  1.
          5    1    4    4  501    0  0.36399564643E+02  0.11181219309E+02 -0.12856888143E+03  0.13415430535E+03  0.41800000000E+01 0. -1.
         -5    1    4    4    0  501  0.33015103862E+02  0.49361032642E+02  0.11156852837E+02  0.60567783447E+02  0.41800000000E+01 0. -1.
</event>
<event>
11    1  0.6455215E-009  0.1834583E+03  0.7561462E-02  0.1066879E+00
         22   -1    0    0    0    0  0.00000000000E+00  0.00000000000E+00  0.13582514606E+04  0.13582514606E+04  0.00000000000E+00 0. -1.
         22   -1    0    0    0    0 -0.00000000000E+00 -0.00000000000E+00 -0.88652258303E+03  0.88652258303E+03  0.00000000000E+00 0. -1.
        -24    2    1    2    0    0  0.74348972257E+02 -0.11063112908E+03 -0.75854978653E+03  0.77481160428E+03  0.84665383048E+02 0.  0.
         25    2    1    2    0    0 -0.81059948297E+02  0.11746123290E+03 -0.42245025836E+02  0.19442052452E+03  0.12508733626E+03 0.  0.
         24    2    1    2    0    0  0.67109760396E+01 -0.68301038256E+01  0.12725236900E+04  0.12755419148E+04  0.87171942208E+02 0.  0.
        -11    1    5    5    0    0  0.41816465683E+02 -0.18896838820E+02  0.49179053562E+03  0.49392675393E+03  0.00000000000E+00 0.  1.
         12    1    5    5    0    0 -0.35105489643E+02  0.12066734994E+02  0.78073315433E+03  0.78161516091E+03  0.00000000000E+00 0. -1.
         13    1    3    3    0    0  0.16492695070E+02 -0.62558024189E+02 -0.53605845305E+03  0.53994831278E+03  0.00000000000E+00 0. -1.
        -14    1    3    3    0    0  0.57856277188E+02 -0.48073104886E+02 -0.22249133348E+03  0.23486329150E+03  0.00000000000E+00 0.  1.
          5    1    4    4  501    0 -0.55150544960E+02  0.13870371647E+03 -0.53820226493E+02  0.15872741651E+03  0.41800000000E+01 0. -1.
         -5    1    4    4    0  501 -0.25909403337E+02 -0.21242483566E+02  0.11575200657E+02  0.35693108012E+02  0.41800000000E+01 0. -1.
</event>
<event>
11    1  0.6455215E-009  0.2177909E+03  0.7561462E-02  0.1042610E+00
         22   -1    0    0    0    0  0.00000000000E+00  0.00000000000E+00  0.15896639275E+04  0.15896639275E+04  0.00000000000E+00 0.  1.
         22   -1    0    0    0    0 -0.00000000000E+00 -0.00000000000E+00 -0.21478220550E+04  0.21478220550E+04  0.00000000000E+00 0. -1.
        -24    2    1    2    0    0 -0.15115768835E+03 -0.13369798370E+03 -0.19743903518E+04  0.19863579511E+04  0.81712002006E+02 0.  0.
         25    2    1    2    0    0 -0.20118193032E+02  0.80774607471E+02 -0.12621976601E+03  0.19623742830E+03  0.12509364506E+03 0.  0.
         24    2    1    2    0    0  0.17127588138E+03  0.52923376233E+02  0.15424519902E+04  0.15548906031E+04  0.79939566535E+02 0.  0.
        -11    1    5    5    0    0  0.84222045713E+02 -0.14249139689E+02  0.74929393281E+03  0.75414706040E+03  0.00000000000E+00 0.  1.
         12    1    5    5    0    0  0.87053835671E+02  0.67172515922E+02  0.79315805735E+03  0.80074354268E+03  0.00000000000E+00 0. -1.
         11    1    3    3    0    0 -0.51361226336E+02 -0.28119778631E+01 -0.58351714132E+03  0.58577993906E+03  0.00000000000E+00 0. -1.
        -12    1    3    3    0    0 -0.99796462015E+02 -0.13088600584E+03 -0.13908732104E+04  0.14005780121E+04  0.00000000000E+00 0.  1.
          5    1    4    4  501    0 -0.50380458324E+02  0.10017160111E+03 -0.10793929264E+03  0.15569490533E+03  0.41800000000E+01 0.  1.
         -5    1    4    4    0  501  0.30262265292E+02 -0.19396993638E+02 -0.18280473370E+02  0.40542522978E+02  0.41800000000E+01 0.  1.
</event>
<event>
11    1  0.6455215E-009  0.1636628E+03  0.7561462E-02  0.1083682E+00
         22   -1    0    0    0    0  0.00000000000E+00  0.00000000000E+00  0.93709138852E+03  0.93709138852E+03  0.00000000000E+00 0. -1.
         22   -1    0    0    0    0 -0.00000000000E+00 -0.00000000000E+00 -0.12313466629E+03  0.12313466629E+03  0.00000000000E+00 0.  1.
         24    2    1    2    0    0  0.33595301011E+02 -0.10132434310E+02 -0.54395825207E+02  0.10168591363E+03  0.78420716373E+02 0.  0.
         25    2    1    2    0    0  0.32322634943E+02  0.94588272998E+02  0.12497891799E+03  0.20312522029E+03  0.12509368912E+03 0.  0.
        -24    2    1    2    0    0 -0.65917935955E+02 -0.84455838688E+02  0.74337362945E+03  0.75541492088E+03  0.81051753609E+02 0.  0.
        -13    1    3    3    0    0  0.36478834445E+02  0.28950647121E+02 -0.26506166101E+02  0.53585652675E+02  0.00000000000E+00 0.  1.
         14    1    3    3    0    0 -0.28835334338E+01 -0.39083081432E+02 -0.27889659107E+02  0.48100260959E+02  0.00000000000E+00 0. -1.
         11    1    5    5    0    0 -0.28393461782E+02 -0.77379437917E+02  0.32450473980E+03  0.33480903847E+03  0.00000000000E+00 0. -1.
        -12    1    5    5    0    0 -0.37524474173E+02 -0.70764007709E+01  0.41886888965E+03  0.42060588242E+03  0.00000000000E+00 0.  1.
          5    1    4    4  501    0 -0.40847408067E+02  0.66701728421E+01  0.14523657886E+02  0.44061445618E+02  0.41800000000E+01 0. -1.
         -5    1    4    4    0  501  0.73170043011E+02  0.87918100156E+02  0.11045526010E+03  0.15906377468E+03  0.41800000000E+01 0. -1.
</event>
<event>
11    1  0.6455215E-009  0.1662962E+03  0.7561462E-02  0.1081301E+00
         22   -1    0    0    0    0  0.00000000000E+00  0.00000000000E+00  0.29048002984E+03  0.29048002984E+03  0.00000000000E+00 0. -1.
         22   -1    0    0    0    0 -0.00000000000E+00 -0.00000000000E+00 -0.21752521020E+03  0.21752521020E+03  0.00000000000E+00 0.  1.
         24    2    1    2    0    0  0.28410676000E+02 -0.10043304622E+03 -0.95090942876E+02  0.16479277830E+03  0.84972990287E+02 0.  0.
         25    2    1    2    0    0 -0.76028532458E+02  0.10744597038E+03  0.37313582000E+02  0.18537877019E+03  0.12509200909E+03 0.  0.
        -24    2    1    2    0    0  0.47617856458E+02 -0.70129241550E+01  0.13073218052E+03  0.15783369156E+03  0.74188474895E+02 0.  0.
        -11    1    3    3    0    0  0.53457043759E+02 -0.84298101528E+02 -0.90326639591E+02  0.13462067920E+03  0.00000000000E+00 0.  1.
         12    1    3    3    0    0 -0.25046367759E+02 -0.16134944694E+02 -0.47643032853E+01  0.30172099098E+02  0.00000000000E+00 0. -1.
         13    1    5    5    0    0  0.55312325459E+02 -0.21475327155E+00  0.13561721225E+03  0.14646340064E+03  0.00000000000E+00 0. -1.
        -14    1    5    5    0    0 -0.76944690015E+01 -0.67981708834E+01 -0.48850317311E+01  0.11370290919E+02  0.00000000000E+00 0.  1.
          5    1    4    4  501    0  0.15811650170E+02 -0.15631413179E+02  0.21041462994E+02  0.30896034115E+02  0.41800000000E+01 0. -1.
         -5    1    4    4    0  501 -0.91840182628E+02  0.12307738356E+03  0.16272119006E+02  0.15448273607E+03  0.41800000000E+01 0. -1.
</event>
<event>
11    1  0.6455215E-009  0.3412172E+03  0.7561462E-02  0.9841139E-01
         22   -1    0    0    0    0  0.00000000000E+00  0.00000000000E+00  0.70988478935E+03  0.70988478935E+03  0.00000000000E+00 0.  1.
         22   -1    0    0    0    0 -0.00000000000E+00 -0.00000000000E+00 -0.55457960446E+03  0.55457960446E+03  0.00000000000E+00 0.  1.
        -24    2    1    2    0    0 -0.31575553500E+03 -0.51561480851E+02 -0.40510399319E+03  0.52275191865E+03  0.82463197623E+02 0.  0.
         25    2    1    2    0    0  0.30853254582E+03 -0.14446063904E+02  0.25894635345E+03  0.42202166352E+03  0.12509216570E+03 0.  0.
         24    2    1    2    0    0  0.72229891783E+01  0.66007544755E+02  0.30146282464E+03  0.31969081164E+03  0.83145732748E+02 0.  0.
        -13    1    5    5    0    0 -0.30684925050E+02  0.26657866844E+01  0.11750296155E+03  0.12147270070E+03  0.00000000000E+00 0.  1.
         14    1    5    5    0    0  0.37907914228E+02  0.63341758071E+02  0.18395986309E+03  0.19821811094E+03  0.00000000000E+00 0. -1.
         13    1    3    3    0    0 -0.28288063790E+02 -0.21004269761E+01 -0.85346593141E+02  0.89937018559E+02  0.00000000000E+00 0. -1.
        -14    1    3    3    0    0 -0.28746747121E+03 -0.49461053875E+02 -0.31975740005E+03  0.43281490009E+03  0.00000000000E+00 0.  1.
          5    1    4    4  501    0 -0.38254828047E+01  0.54765361497E+01  0.38172114833E+02  0.38977038339E+02  0.41800000000E+01 0.  1.
         -5    1    4    4    0  501  0.31235802862E+03 -0.19922600054E+02  0.22077423862E+03  0.38304462518E+03  0.41800000000E+01 0.  1.
</event>
<event>
11    1  0.6455215E-009  0.1329276E+03  0.7561462E-02  0.1115723E+00
         22   -1    0    0    0    0  0.00000000000E+00  0.00000000000E+00  0.48998666834E+03  0.48998666834E+03  0.00000000000E+00 0.  1.
         22   -1    0    0    0    0 -0.00000000000E+00 -0.00000000000E+00 -0.10367843467E+03  0.10367843467E+03  0.00000000000E+00 0.  1.
        -24    2    1    2    0    0  0.14909211686E+02  0.48070839027E+02 -0.14439163099E+02  0.11015293121E+03  0.96912788965E+02 0.  0.
         25    2    1    2    0    0 -0.49794756597E+00 -0.33027725972E+02  0.79813586032E+02  0.15201669759E+03  0.12509112358E+03 0.  0.
         24    2    1    2    0    0 -0.14411264120E+02 -0.15043113055E+02  0.32093381074E+03  0.33149547421E+03  0.80353959208E+02 0.  0.
        -11    1    5    5    0    0 -0.21562576883E+02 -0.50978212325E+01  0.31816677761E+03  0.31893734632E+03  0.00000000000E+00 0.  1.
         12    1    5    5    0    0  0.71513127626E+01 -0.99452918223E+01  0.27670331280E+01  0.12558127886E+02  0.00000000000E+00 0. -1.
         13    1    3    3    0    0  0.38945699272E+02  0.33367567694E+02  0.28592396488E+02  0.58717009482E+02  0.00000000000E+00 0. -1.
        -14    1    3    3    0    0 -0.24036487586E+02  0.14703271333E+02 -0.43031559587E+02  0.51435921726E+02  0.00000000000E+00 0.  1.
          5    1    4    4  501    0  0.22410439678E+02  0.90555746183E+01  0.97677051536E+02  0.10071002947E+03  0.41800000000E+01 0. -1.
         -5    1    4    4    0  501 -0.22908387244E+02 -0.42083300590E+02 -0.17863465504E+02  0.51306668129E+02  0.41800000000E+01 0. -1.
</event>
<event>
11    1  0.6455215E-009  0.1451110E+03  0.7561462E-02  0.1101982E+00
         22   -1    0    0    0    0  0.00000000000E+00  0.00000000000E+00  0.10602768830E+04  0.10602768830E+04  0.00000000000E+00 0. -1.
         22   -1    0    0    0    0 -0.00000000000E+00 -0.00000000000E+00 -0.10826825064E+03  0.10826825064E+03  0.00000000000E+00 0. -1.
        -24    2    1    2    0    0  0.54600744633E+02  0.45215344482E+02 -0.55914696616E+02  0.12073317225E+03  0.80152210783E+02 0.  0.
         25    2    1    2    0    0 -0.68451257208E+02 -0.84074157272E+02  0.38573872959E+03  0.41975722971E+03  0.12509087038E+03 0.  0.
         24    2    1    2    0    0  0.13850512575E+02  0.38858812790E+02  0.62218459940E+03  0.62805473169E+03  0.75081464005E+02 0.  0.
        -11    1    5    5    0    0 -0.27175342721E+02  0.46189704881E+01  0.12480520647E+03  0.12781304199E+03  0.00000000000E+00 0.  1.
         12    1    5    5    0    0  0.41025855296E+02  0.34239842302E+02  0.49737939293E+03  0.50024168970E+03  0.00000000000E+00 0. -1.
         11    1    3    3    0    0  0.73772663284E+02  0.31680394071E+02 -0.54861888102E+02  0.97241349140E+02  0.00000000000E+00 0. -1.
        -12    1    3    3    0    0 -0.19171918651E+02  0.13534950411E+02 -0.10528085142E+01  0.23491823112E+02  0.00000000000E+00 0.  1.
          5    1    4    4  501    0 -0.10104322631E+03 -0.75539576949E+02  0.25293355866E+03  0.28268147934E+03  0.41800000000E+01 0. -1.
         -5    1    4    4    0  501  0.32591969105E+02 -0.85345803228E+01  0.13280517094E+03  0.13707575037E+03  0.41800000000E+01 0. -1.
</event>
<event>
11    1  0.6455215E-009  0.1642235E+03  0.7561462E-02  0.1083171E+00
         22   -1    0    0    0    0  0.00000000000E+00  0.00000000000E+00  0.42672084942E+03  0.42672084942E+03  0.00000000000E+00 0.  1.
         22   -1    0    0    0    0 -0.00000000000E+00 -0.00000000000E+00 -0.46972146943E+03  0.46972146943E+03  0.00000000000E+00 0.  1.
         24    2    1    2    0    0  0.91322780661E+02  0.49805207936E+02 -0.32044838759E+03  0.34647774773E+03  0.80865638891E+02 0.  0.
         25    2    1    2    0    0 -0.75817274310E+02 -0.10188526491E+03 -0.67802675736E+02  0.19071745358E+03  0.12508828072E+03 0.  0.
        -24    2    1    2    0    0 -0.15505506351E+02  0.52080056976E+02  0.34525044332E+03  0.35924711754E+03  0.83113595678E+02 0.  0.
        -13    1    3    3    0    0  0.85291910741E+02  0.22808371769E+02 -0.29814911231E+03  0.31094665946E+03  0.00000000000E+00 0.  1.
         14    1    3    3    0    0  0.60308699198E+01  0.26996836166E+02 -0.22299275284E+02  0.35531088263E+02  0.00000000000E+00 0. -1.
         13    1    5    5    0    0 -0.43281839677E+02  0.46894102999E+01  0.12989421461E+03  0.13699567586E+03  0.00000000000E+00 0. -1.
        -14    1    5    5    0    0  0.27776333326E+02  0.47390646676E+02  0.21535622871E+03  0.22225144168E+03  0.00000000000E+00 0.  1.
          5    1    4    4  501    0  0.29809314083E+02 -0.54550943801E+02 -0.27208078506E+02  0.67986414905E+02  0.41800000000E+01 0. -1.
         -5    1    4    4    0  501 -0.10562658839E+03 -0.47334321111E+02 -0.40594597230E+02  0.12273103868E+03  0.41800000000E+01 0. -1.
</event>
<event>
11    1  0.6455215E-009  0.1440164E+03  0.7561462E-02  0.1103155E+00
         22   -1    0    0    0    0  0.00000000000E+00  0.00000000000E+00  0.47360054380E+03  0.47360054380E+03  0.00000000000E+00 0.  1.
         22   -1    0    0    0    0 -0.00000000000E+00 -0.00000000000E+00 -0.46993526426E+03  0.46993526426E+03  0.00000000000E+00 0. -1.
         24    2    1    2    0    0 -0.71084468829E+00 -0.49644280631E+01 -0.35246721373E+03  0.36158155468E+03  0.80516663377E+02 0.  0.
         25    2    1    2    0    0 -0.58114252094E+02  0.45105033334E+02 -0.56415255801E+02  0.15570573423E+03  0.12509941749E+03 0.  0.
        -24    2    1    2    0    0  0.58825096782E+02 -0.40140605271E+02  0.41254774907E+03  0.42624851916E+03  0.80127989014E+02 0.  0.
        -13    1    3    3    0    0 -0.28709059321E+02  0.16361059801E+02 -0.75861487010E+02  0.82745752618E+02  0.00000000000E+00 0.  1.
         14    1    3    3    0    0  0.27998214633E+02 -0.21325487864E+02 -0.27660572672E+03  0.27883580206E+03  0.00000000000E+00 0. -1.
         13    1    5    5    0    0  0.26718349720E+02 -0.89250885660E+01  0.30242422688E+02  0.41329548119E+02  0.00000000000E+00 0. -1.
        -14    1    5    5    0    0  0.32106747063E+02 -0.31215516705E+02  0.38230532638E+03  0.38491897104E+03  0.00000000000E+00 0.  1.
          5    1    4    4  501    0 -0.47698720491E+02  0.75462685141E+02 -0.76477148676E+02  0.11762657631E+03  0.41800000000E+01 0.  1.
         -5    1    4    4    0  501 -0.10415531603E+02 -0.30357651807E+02  0.20061892875E+02  0.38079157915E+02  0.41800000000E+01 0.  1.
</event>
<event>
11    1  0.6455215E-009  0.1897473E+03  0.7561462E-02  0.1062020E+00
         22   -1    0    0    0    0  0.00000000000E+00  0.00000000000E+00  0.17498058617E+03  0.17498058617E+03  0.00000000000E+00 0. -1.
         22   -1    0    0    0    0 -0.00000000000E+00 -0.00000000000E+00 -0.13634722534E+04  0.13634722534E+04  0.00000000000E+00 0.  1.
        -24    2    1    2    0    0 -0.50719116860E+02 -0.36515065956E+02 -0.11461075492E+04  0.11504476279E+04  0.77855322589E+02 0.  0.
         25    2    1    2    0    0 -0.56037123385E+02 -0.82525091637E+02 -0.11282048292E+03  0.19577407620E+03  0.12509387516E+03 0.  0.
         24    2    1    2    0    0  0.10675624024E+03  0.11904015759E+03  0.70436364886E+02  0.19223113551E+03  0.80150321345E+02 0.  0.
        -13    1    5    5    0    0  0.80781827249E+02  0.51709300023E+02  0.70392844959E+01  0.96172276925E+02  0.00000000000E+00 0.  1.
         14    1    5    5    0    0  0.25974412995E+02  0.67330857569E+02  0.63397080390E+02  0.96058858589E+02  0.00000000000E+00 0. -1.
         13    1    3    3    0    0 -0.17374968800E+02 -0.32178260860E+02 -0.17607756598E+03  0.17983503345E+03  0.00000000000E+00 0. -1.
        -14    1    3    3    0    0 -0.33344148060E+02 -0.43368050962E+01 -0.97002998324E+03  0.97061259444E+03  0.00000000000E+00 0.  1.
          5    1    4    4  501    0 -0.13949679679E+02 -0.18243312464E+02  0.27297943282E+02  0.35917434767E+02  0.41800000000E+01 0. -1.
         -5    1    4    4    0  501 -0.42087443705E+02 -0.64281779173E+02 -0.14011842620E+03  0.15985664144E+03  0.41800000000E+01 0. -1.
</event>
<event>
11    1  0.6455215E-009  0.1301354E+03  0.7561462E-02  0.1119103E+00
         22   -1    0    0    0    0  0.00000000000E+00  0.00000000000E+00  0.10517727301E+03  0.10517727301E+03  0.00000000000E+00 0. -1.
         22   -1    0    0    0    0 -0.00000000000E+00 -0.00000000000E+00 -0.45647234649E+04  0.45647234649E+04  0.00000000000E+00 0. -1.
         24    2    1    2    0    0 -0.69483000249E+01 -0.12057535332E+02 -0.41310157166E+04  0.41318336665E+04  0.81024278783E+02 0.  0.
         25    2    1    2    0    0  0.27961276653E+02  0.40347020786E+02 -0.40224303539E+03  0.42409536663E+03  0.12509078865E+03 0.  0.
        -24    2    1    2    0    0 -0.21012976628E+02 -0.28289485453E+02  0.73712560064E+02  0.11397170482E+03  0.79461738047E+02 0.  0.
        -13    1    3    3    0    0  0.11513035253E+02 -0.42981927588E+02 -0.26896481826E+04  0.26900162346E+04  0.00000000000E+00 0.  1.
         14    1    3    3    0    0 -0.18461335278E+02  0.30924392256E+02 -0.14413675340E+04  0.14418174320E+04  0.00000000000E+00 0. -1.
         13    1    5    5    0    0 -0.48546124061E+02 -0.12937627360E+02  0.25431433704E+02  0.56310444709E+02  0.00000000000E+00 0. -1.
        -14    1    5    5    0    0  0.27533147433E+02 -0.15351858093E+02  0.48281126360E+02  0.57661260107E+02  0.00000000000E+00 0.  1.
          5    1    4    4  501    0 -0.48671509895E+02  0.75669429183E+01 -0.18123705022E+03  0.18785769953E+03  0.41800000000E+01 0.  1.
         -5    1    4    4    0  501  0.76632786547E+02  0.32780077867E+02 -0.22100598516E+03  0.23623766710E+03  0.41800000000E+01 0.  1.
</event>
<event>
11    1  0.6455215E-009  0.1438211E+03  0.7561462E-02  0.1103365E+00
         22   -1    0    0    0    0  0.00000000000E+00  0.00000000000E+00  0.61619974802E+03  0.61619974802E+03  0.00000000000E+00 0.  1.
         22   -1    0    0    0    0 -0.00000000000E+00 -0.00000000000E+00 -0.61135838551E+03  0.61135838551E+03  0.00000000000E+00 0. -1.
        -24    2    1    2    0    0 -0.64280372900E+02  0.28693428050E+02 -0.52797200495E+03  0.53824945125E+03  0.77477445827E+02 0.  0.
         25    2    1    2    0    0  0.63224298164E+02 -0.52536711764E+02 -0.26386438516E+00  0.14968315865E+03  0.12509020904E+03 0.  0.
         24    2    1    2    0    0  0.10560747355E+01  0.23843283714E+02  0.53307723184E+03  0.53962552363E+03  0.80341478549E+02 0.  0.
        -11    1    5    5    0    0 -0.22113897394E+02 -0.40484481688E+01  0.42566085672E+03  0.42625412530E+03  0.00000000000E+00 0.  1.
         12    1    5    5    0    0  0.23169972129E+02  0.27891731883E+02  0.10741637512E+03  0.11337139834E+03  0.00000000000E+00 0. -1.
         11    1    3    3    0    0 -0.75176149042E+02  0.31021892712E+02 -0.32672577923E+03  0.33669503416E+03  0.00000000000E+00 0. -1.
        -12    1    3    3    0    0  0.10895776142E+02 -0.23284646616E+01 -0.20124622572E+03  0.20155441710E+03  0.00000000000E+00 0.  1.
          5    1    4    4  501    0  0.88041458676E+02 -0.52256516869E+02 -0.33669952281E+02  0.10785722084E+03  0.41800000000E+01 0.  1.
         -5    1    4    4    0  501 -0.24817160512E+02 -0.28019489530E+00  0.33406087896E+02  0.41825937809E+02  0.41800000000E+01 0.  1.
</event>
<event>
11    1  0.6455215E-009  0.2614887E+03  0.7561462E-02  0.1017951E+00
         22   -1    0    0    0    0  0.00000000000E+00  0.00000000000E+00  0.24097263165E+03  0.24097263165E+03  0.00000000000E+00 0.  1.
         22   -1    0    0    0    0 -0.00000000000E+00 -0.00000000000E+00 -0.14121058526E+04  0.14121058526E+04  0.00000000000E+00 0.  1.
         24    2    1    2    0    0  0.51246191532E+02  0.90194952493E+02 -0.10070538642E+04  0.10156643366E+04  0.81579762729E+02 0.  0.
         25    2    1    2    0    0 -0.43789586763E+02 -0.30098527397E+03 -0.23189497754E+03  0.40240832574E+03  0.12509003541E+03 0.  0.
        -24    2    1    2    0    0 -0.74566047684E+01  0.21079032148E+03  0.67815620808E+02  0.23500582186E+03  0.78362090959E+02 0.  0.
        -13    1    3    3    0    0  0.43055813903E+02  0.83674351879E+02 -0.51672301872E+03  0.52522174208E+03  0.00000000000E+00 0.  1.
         14    1    3    3    0    0  0.81903776289E+01  0.65206006137E+01 -0.49033084550E+03  0.49044259457E+03  0.00000000000E+00 0. -1.
         13    1    5    5    0    0 -0.37284098310E+02  0.59665607653E+02  0.13295953291E+02  0.71602172434E+02  0.00000000000E+00 0. -1.
        -14    1    5    5    0    0  0.29827493542E+02  0.15112471383E+03  0.54519667517E+02  0.16340364943E+03  0.00000000000E+00 0.  1.
          5    1    4    4  501    0 -0.78882945542E+02 -0.26541758416E+03 -0.21072390271E+03  0.34798139125E+03  0.41800000000E+01 0. -1.
         -5    1    4    4    0  501  0.35093358778E+02 -0.35567689809E+02 -0.21171074824E+02  0.54426934490E+02  0.41800000000E+01 0. -1.
</event>
<event>
11    1  0.6455215E-009  0.1866480E+03  0.7561462E-02  0.1064389E+00
         22   -1    0    0    0    0  0.00000000000E+00  0.00000000000E+00  0.13402905925E+03  0.13402905925E+03  0.00000000000E+00 0.  1.
         22   -1    0    0    0    0 -0.00000000000E+00 -0.00000000000E+00 -0.94940972589E+03  0.94940972589E+03  0.00000000000E+00 0. -1.
         24    2    1    2    0    0 -0.43288204077E+02  0.99825879488E+02 -0.36445853159E+03  0.38884105434E+03  0.80797707065E+02 0.  0.
         25    2    1    2    0    0  0.86969239409E+02 -0.18499649090E+03 -0.50461105660E+03  0.55863001883E+03  0.12509128367E+03 0.  0.
        -24    2    1    2    0    0 -0.43681035332E+02  0.85170611411E+02  0.53688921547E+02  0.13596771197E+03  0.80266135486E+02 0.  0.
        -11    1    3    3    0    0 -0.15368037468E+01  0.72628961156E+02 -0.12789357902E+03  0.14708533346E+03  0.00000000000E+00 0.  1.
         12    1    3    3    0    0 -0.41751400330E+02  0.27196918332E+02 -0.23656495256E+03  0.24175572088E+03  0.00000000000E+00 0. -1.
         13    1    5    5    0    0 -0.25761281525E+01  0.77326753082E+02  0.14661859427E+02  0.78746639930E+02  0.00000000000E+00 0. -1.
        -14    1    5    5    0    0 -0.41104907179E+02  0.78438583291E+01  0.39027062121E+02  0.57221072041E+02  0.00000000000E+00 0.  1.
          5    1    4    4  501    0 -0.78359506494E+01 -0.66918610253E+02 -0.27778831308E+03  0.28587291198E+03  0.41800000000E+01 0. -1.
         -5    1    4    4    0  501  0.94805190058E+02 -0.11807788065E+03 -0.22682274351E+03  0.27275710685E+03  0.41800000000E+01 0. -1.
</event>
<event>
11    1  0.6455215E-009  0.1668838E+03  0.7561462E-02  0.1080776E+00
         22   -1    0    0    0    0  0.00000000000E+00  0.00000000000E+00  0.12925691900E+04  0.12925691900E+04  0.00000000000E+00 0. -1.
         22   -1    0    0    0    0 -0.00000000000E+00 -0.00000000000E+00 -0.44003916671E+03  0.44003916671E+03  0.00000000000E+00 0. -1.
        -24    2    1    2    0    0 -0.21229270085E+01 -0.11411905169E+03 -0.36637258430E+03  0.39213969594E+03  0.80727974262E+02 0.  0.
         25    2    1    2    0    0  0.55500653302E+02  0.77824358454E+02  0.47166067740E+02  0.16434702983E+03  0.12509338505E+03 0.  0.
         24    2    1    2    0    0 -0.53377726294E+02  0.36294693241E+02  0.11717365398E+04  0.11761216309E+04  0.78288476277E+02 0.  0.
        -13    1    5    5    0    0 -0.26461030571E+02 -0.23760884865E+02  0.38749665395E+03  0.38912520172E+03  0.00000000000E+00 0.  1.
         14    1    5    5    0    0 -0.26916695723E+02  0.60055578106E+02  0.78423988587E+03  0.78699642919E+03  0.00000000000E+00 0. -1.
         11    1    3    3    0    0 -0.74727101278E+01 -0.71102240192E+02 -0.32300412973E+03  0.33082176135E+03  0.00000000000E+00 0. -1.
        -12    1    3    3    0    0  0.53497831193E+01 -0.43016811503E+02 -0.43368454564E+02  0.61317934591E+02  0.00000000000E+00 0.  1.
          5    1    4    4  501    0  0.22580541699E+02 -0.33745863952E+02  0.85150667575E+01  0.41697037774E+02  0.41800000000E+01 0. -1.
         -5    1    4    4    0  501  0.32920111603E+02  0.11157022241E+03  0.38651000982E+02  0.12264999206E+03  0.41800000000E+01 0. -1.
</event>
<event>
11    1  0.6455215E-009  0.1625217E+03  0.7561462E-02  0.1084729E+00
         22   -1    0    0    0    0  0.00000000000E+00  0.00000000000E+00  0.25652481611E+04  0.25652481611E+04  0.00000000000E+00 0.  1.
         22   -1    0    0    0    0 -0.00000000000E+00 -0.00000000000E+00 -0.25330113954E+03  0.25330113954E+03  0.00000000000E+00 0. -1.
        -24    2    1    2    0    0 -0.27974174976E+02  0.12464516133E+01 -0.22518131838E+03  0.24083167545E+03  0.80679375583E+02 0.  0.
         25    2    1    2    0    0 -0.75824777049E+02  0.22582417833E+02  0.28144035643E+03  0.31798716374E+03  0.12509116542E+03 0.  0.
         24    2    1    2    0    0  0.10379895203E+03 -0.23828869446E+02  0.22556879835E+04  0.22597304615E+04  0.83135082853E+02 0.  0.
        -13    1    5    5    0    0  0.43963202358E+02  0.13640735769E+02  0.15116066696E+04  0.15123073617E+04  0.00000000000E+00 0.  1.
         14    1    5    5    0    0  0.59835749667E+02 -0.37469605215E+02  0.74408131397E+03  0.74742309976E+03  0.00000000000E+00 0. -1.
         13    1    3    3    0    0 -0.20040924058E+02  0.25278794322E+02 -0.20741898438E+03  0.20991257980E+03  0.00000000000E+00 0. -1.
        -14    1    3    3    0    0 -0.79332509182E+01 -0.24032342709E+02 -0.17762334001E+02  0.30919095643E+02  0.00000000000E+00 0.  1.
          5    1    4    4  501    0  0.13548969717E+02  0.28917919158E+02  0.12609246066E+02  0.34587369302E+02  0.41800000000E+01 0. -1.
         -5    1    4    4    0  501 -0.89373746766E+02 -0.63355013256E+01  0.26883111036E+03  0.28339979444E+03  0.41800000000E+01 0. -1.
</event>
<event>
11    1  0.6520482E-009  0.1800775E+03  0.7561462E-02  0.1069580E+00
         22   -1    0    0    0    0  0.00000000000E+00  0.00000000000E+00  0.20981476047E+04  0.20981476047E+04  0.00000000000E+00 0.  1.
         22   -1    0    0    0    0 -0.00000000000E+00 -0.00000000000E+00 -0.51600475248E+03  0.51600475248E+03  0.00000000000E+00 0.  1.
         24    2    1    2    0    0 -0.13506456166E+03  0.76305802539E+02 -0.37701742099E+03  0.41592490864E+03  0.82379503431E+02 0.  0.
         25    2    1    2    0    0  0.28759045529E+02 -0.77725480411E+02 -0.69355182928E+02  0.16529754904E+03  0.12507919617E+03 0.  0.
        -24    2    1    2    0    0  0.10630551613E+03  0.14196778721E+01  0.20285154561E+04  0.20329298995E+04  0.81401119209E+02 0.  0.
        -13    1    3    3    0    0 -0.89613979263E+02  0.83064129359E+02 -0.32101712446E+03  0.34348552963E+03  0.00000000000E+00 0.  1.
         14    1    3    3    0    0 -0.45450582393E+02 -0.67583268203E+01 -0.56000296525E+02  0.72439379016E+02  0.00000000000E+00 0. -1.
         11    1    5    5    0    0  0.68657564109E+02  0.40431557875E+02  0.11975979845E+04  0.12002456018E+04  0.00000000000E+00 0. -1.
        -12    1    5    5    0    0  0.37647952018E+02 -0.39011880003E+02  0.83091747158E+03  0.83268429771E+03  0.00000000000E+00 0.  1.
          5    1    4    4  501    0 -0.14333057578E+02 -0.38870860495E+02  0.29197871613E+02  0.50856351048E+02  0.41800000000E+01 0.  1.
         -5    1    4    4    0  501  0.43092103106E+02 -0.38854619916E+02 -0.98553054542E+02  0.11444119799E+03  0.41800000000E+01 0.  1.
</event>
<event>
11    1  0.6455215E-009  0.1675629E+03  0.7561462E-02  0.1080172E+00
         22   -1    0    0    0    0  0.00000000000E+00  0.00000000000E+00  0.30014180110E+03  0.30014180110E+03  0.00000000000E+00 0. -1.
         22   -1    0    0    0    0 -0.00000000000E+00 -0.00000000000E+00 -0.43659015329E+03  0.43659015329E+03  0.00000000000E+00 0.  1.
        -24    2    1    2    0    0 -0.53998480467E+02 -0.27156534154E+02 -0.24778455237E+03  0.26747384270E+03  0.80571452131E+02 0.  0.
         25    2    1    2    0    0  0.15366049013E+03  0.60060107187E+02 -0.92178881249E+02  0.22663388354E+03  0.12508880172E+03 0.  0.
         24    2    1    2    0    0 -0.99662009660E+02 -0.32903573033E+02  0.20351508143E+03  0.24262422814E+03  0.80205775522E+02 0.  0.
        -11    1    5    5    0    0 -0.81219269065E+02 -0.83050996810E+01  0.76298190573E+02  0.11174505910E+03  0.00000000000E+00 0.  1.
         12    1    5    5    0    0 -0.18442740595E+02 -0.24598473352E+02  0.12721689085E+03  0.13087916905E+03  0.00000000000E+00 0. -1.
         13    1    3    3    0    0  0.19345018518E+02 -0.34455543260E+00 -0.81507406573E+02  0.83772344997E+02  0.00000000000E+00 0. -1.
        -14    1    3    3    0    0 -0.73343498984E+02 -0.26811978721E+02 -0.16627714580E+03  0.18370149771E+03  0.00000000000E+00 0.  1.
          5    1    4    4  501    0  0.15990132520E+02 -0.30201470826E+02 -0.42364337744E+02  0.54589584085E+02  0.41800000000E+01 0. -1.
         -5    1    4    4    0  501  0.13767035761E+03  0.90261578013E+02 -0.49814543505E+02  0.17204429945E+03  0.41800000000E+01 0. -1.
</event>
<event>
11    1  0.6455215E-009  0.1649878E+03  0.7561462E-02  0.1082478E+00
         22   -1    0    0    0    0  0.00000000000E+00  0.00000000000E+00  0.76889015195E+02  0.76889015195E+02  0.00000000000E+00 0.  1.
         22   -1    0    0    0    0 -0.00000000000E+00 -0.00000000000E+00 -0.19697140574E+04  0.19697140574E+04  0.00000000000E+00 0. -1.
         24    2    1    2    0    0 -0.36881684061E+00  0.10340103652E+03 -0.16238310236E+04  0.16307624455E+04  0.10893599063E+03 0.  0.
         25    2    1    2    0    0 -0.43397985585E+00 -0.14567273652E+03 -0.26025905712E+03  0.32342344942E+03  0.12508883369E+03 0.  0.
        -24    2    1    2    0    0  0.80279669645E+00  0.42271700002E+02 -0.87349614800E+01  0.92417177677E+02  0.81713487713E+02 0.  0.
        -11    1    3    3    0    0  0.32340162993E+02  0.11826600927E+02 -0.15796555466E+03  0.16167520246E+03  0.00000000000E+00 0.  1.
         12    1    3    3    0    0 -0.32708979833E+02  0.91574435595E+02 -0.14658654689E+04  0.14690872430E+04  0.00000000000E+00 0. -1.
         13    1    5    5    0    0  0.31465213546E+02  0.39867636481E+02  0.15673629049E+02  0.53152147178E+02  0.00000000000E+00 0. -1.
        -14    1    5    5    0    0 -0.30662416850E+02  0.24040635207E+01 -0.24408590529E+02  0.39265030499E+02  0.00000000000E+00 0.  1.
          5    1    4    4  501    0  0.87194775216E+00 -0.43530732806E+02 -0.20004954272E+03  0.20477543049E+03  0.41800000000E+01 0.  1.
         -5    1    4    4    0  501 -0.13059276080E+01 -0.10214200372E+03 -0.60209514403E+02  0.11864801893E+03  0.41800000000E+01 0.  1.
</event>
<event>
11    1  0.6476402E-009  0.1859163E+03  0.7561462E-02  0.1064955E+00
         22   -1    0    0    0    0  0.00000000000E+00  0.00000000000E+00  0.85481857842E+03  0.85481857842E+03  0.00000000000E+00 0.  1.
         22   -1    0    0    0    0 -0.00000000000E+00 -0.00000000000E+00 -0.42855714421E+03  0.42855714421E+03  0.00000000000E+00 0. -1.
        -24    2    1    2    0    0 -0.13560976678E+03 -0.30201625666E+02 -0.29446356260E+03  0.33481774160E+03  0.78051158584E+02 0.  0.
         25    2    1    2    0    0  0.14575993259E+03 -0.10090920459E+03  0.52766958331E+01  0.21703633712E+03  0.12509317565E+03 0.  0.
         24    2    1    2    0    0 -0.10150165804E+02  0.13111083026E+03  0.71544830097E+03  0.73152164391E+03  0.77230618723E+02 0.  0.
        -13    1    5    5    0    0 -0.24044399786E+02  0.11773080108E+03  0.68512976664E+03  0.69558714179E+03  0.00000000000E+00 0.  1.
         14    1    5    5    0    0  0.13894233982E+02  0.13380029175E+02  0.30318534328E+02  0.35934502118E+02  0.00000000000E+00 0. -1.
         13    1    3    3    0    0 -0.11897838875E+03 -0.50427267575E+02 -0.26831731334E+03  0.29781361108E+03  0.00000000000E+00 0. -1.
        -14    1    3    3    0    0 -0.16631378032E+02  0.20225641909E+02 -0.26146249254E+02  0.37004130526E+02  0.00000000000E+00 0.  1.
          5    1    4    4  501    0  0.57448580125E+01 -0.54831721628E+02 -0.33389587612E+02  0.64589922210E+02  0.41800000000E+01 0.  1.
         -5    1    4    4    0  501  0.14001507457E+03 -0.46077482963E+02  0.38666283445E+02  0.15244641491E+03  0.41800000000E+01 0.  1.
</event>
<event>
11    1  0.6455215E-009  0.1364446E+03  0.7561462E-02  0.1111595E+00
         22   -1    0    0    0    0  0.00000000000E+00  0.00000000000E+00  0.41083397519E+03  0.41083397519E+03  0.00000000000E+00 0. -1.
         22   -1    0    0    0    0 -0.00000000000E+00 -0.00000000000E+00 -0.21958961309E+04  0.21958961309E+04  0.00000000000E+00 0.  1.
         24    2    1    2    0    0  0.32969771079E+02  0.39394818090E+02 -0.17224491370E+04  0.17251189166E+04  0.81026474282E+02 0.  0.
         25    2    1    2    0    0 -0.54752061067E+02 -0.61818192621E+02 -0.45513213081E+03  0.47917936292E+03  0.12509327807E+03 0.  0.
        -24    2    1    2    0    0  0.21782289989E+02  0.22423374531E+02  0.39251911206E+03  0.40243182656E+03  0.83083366624E+02 0.  0.
        -11    1    3    3    0    0  0.26481574957E+02  0.53996431496E+02 -0.70966530050E+03  0.71220904737E+03  0.00000000000E+00 0.  1.
         12    1    3    3    0    0  0.64881961214E+01 -0.14601613406E+02 -0.10127838365E+04  0.10129098692E+04  0.00000000000E+00 0. -1.
         11    1    5    5    0    0 -0.17900911491E+02  0.40585188697E+02  0.22428286409E+03  0.22862721470E+03  0.00000000000E+00 0. -1.
        -12    1    5    5    0    0  0.39683201480E+02 -0.18161814166E+02  0.16823624797E+03  0.17380461186E+03  0.00000000000E+00 0.  1.
          5    1    4    4  501    0 -0.79527935472E+02 -0.83538412445E+02 -0.37727204708E+03  0.39453140405E+03  0.41800000000E+01 0. -1.
         -5    1    4    4    0  501  0.24775874404E+02  0.21720219824E+02 -0.77860083729E+02  0.84647958865E+02  0.41800000000E+01 0. -1.
</event>
<event>
11    1  0.6455215E-009  0.1928304E+03  0.7561462E-02  0.1059713E+00
         22   -1    0    0    0    0  0.00000000000E+00  0.00000000000E+00  0.15290222538E+04  0.15290222538E+04  0.00000000000E+00 0. -1.
         22   -1    0    0    0    0 -0.00000000000E+00 -0.00000000000E+00 -0.16632695991E+03  0.16632695991E+03  0.00000000000E+00 0. -1.
        -24    2    1    2    0    0  0.51338768085E+02  0.52370960291E+01 -0.12467276693E+01  0.96775723747E+02  0.81858964650E+02 0.  0.
         25    2    1    2    0    0 -0.70082430840E+02  0.14024335971E+03 -0.22838884526E+02  0.20185959808E+03  0.12508371450E+03 0.  0.
         24    2    1    2    0    0  0.18743662754E+02 -0.14548045574E+03  0.13867809060E+04  0.13967138919E+04  0.78310449121E+02 0.  0.
        -11    1    5    5    0    0 -0.11821727603E+02  0.22254031190E+01  0.20395410461E+03  0.20430854717E+03  0.00000000000E+00 0.  1.
         12    1    5    5    0    0  0.30565390357E+02 -0.14770585886E+03  0.11828268014E+04  0.11924053447E+04  0.00000000000E+00 0. -1.
         11    1    3    3    0    0  0.58412068906E+02  0.24805471289E+02  0.20488526746E+02  0.66686287406E+02  0.00000000000E+00 0. -1.
        -12    1    3    3    0    0 -0.70733008210E+01 -0.19568375260E+02 -0.21735254415E+02  0.30089436341E+02  0.00000000000E+00 0.  1.
          5    1    4    4  501    0 -0.89583329333E+02  0.69596472078E+02 -0.49390642840E+02  0.12379721249E+03  0.41800000000E+01 0.  1.
         -5    1    4    4    0  501  0.19500898494E+02  0.70646887629E+02  0.26551758314E+02  0.78062385585E+02  0.41800000000E+01 0.  1.
</event>
<event>
11    1  0.6752713E-009  0.1660709E+03  0.7561462E-02  0.1081502E+00
         22   -1    0    0    0    0  0.00000000000E+00  0.00000000000E+00  0.14728626756E+04  0.14728626756E+04  0.00000000000E+00 0. -1.
         22   -1    0    0    0    0 -0.00000000000E+00 -0.00000000000E+00 -0.14103348598E+04  0.14103348598E+04  0.00000000000E+00 0. -1.
        -24    2    1    2    0    0  0.13679740825E+02  0.72765942372E+02 -0.10797031833E+04  0.10851081063E+04  0.78858231201E+02 0.  0.
         25    2    1    2    0    0  0.75335515311E+02 -0.13555211701E+03 -0.29416009100E+03  0.35528528928E+03  0.12509061256E+03 0.  0.
         24    2    1    2    0    0 -0.89015256136E+02  0.62786174642E+02  0.14363910901E+04  0.14428041398E+04  0.81231782657E+02 0.  0.
        -13    1    5    5    0    0 -0.39965691989E+02 -0.13680096508E+02  0.33063736722E+03  0.33332487183E+03  0.00000000000E+00 0.  1.
         14    1    5    5    0    0 -0.49049564147E+02  0.76466271151E+02  0.11057537229E+04  0.11094792680E+04  0.00000000000E+00 0. -1.
         13    1    3    3    0    0  0.32154989640E+02  0.66737627279E+02 -0.10109648667E+04  0.10136753997E+04  0.00000000000E+00 0. -1.
        -14    1    3    3    0    0 -0.18475248815E+02  0.60283150932E+01 -0.68738316568E+02  0.71432706559E+02  0.00000000000E+00 0.  1.
          5    1    4    4  501    0  0.10701269986E+03 -0.78085729534E+02 -0.21248368138E+03  0.25043140047E+03  0.41800000000E+01 0.  1.
         -5    1    4    4    0  501 -0.31677184550E+02 -0.57466387481E+02 -0.81676409618E+02  0.10485388881E+03  0.41800000000E+01 0.  1.
</event>
<event>
11    1  0.6455215E-009  0.2495319E+03  0.7561462E-02  0.1024149E+00
         22   -1    0    0    0    0  0.00000000000E+00  0.00000000000E+00  0.28534559127E+04  0.28534559127E+04  0.00000000000E+00 0. -1.
         22   -1    0    0    0    0 -0.00000000000E+00 -0.00000000000E+00 -0.51897113191E+03  0.51897113191E+03  0.00000000000E+00 0. -1.
         24    2    1    2    0    0  0.46671036198E+02  0.21197345250E+03 -0.41592518703E+03  0.47606416205E+03  0.80823233017E+02 0.  0.
         25    2    1    2    0    0 -0.12769806450E+03 -0.18213882977E+03  0.15569657819E+03  0.29894866103E+03  0.12509008147E+03 0.  0.
        -24    2    1    2    0    0  0.81027028299E+02 -0.29834622734E+02  0.25947133897E+04  0.25974142216E+04  0.81040606510E+02 0.  0.
        -11    1    3    3    0    0  0.36353735235E+02  0.63113306483E+02 -0.78319034293E+02  0.10695211383E+03  0.00000000000E+00 0.  1.
         12    1    3    3    0    0  0.10317300963E+02  0.14886014602E+03 -0.33760615273E+03  0.36911204821E+03  0.00000000000E+00 0. -1.
         13    1    5    5    0    0  0.80040722448E+02 -0.14396285630E+01  0.13465731782E+04  0.13489506714E+04  0.00000000000E+00 0. -1.
        -14    1    5    5    0    0  0.98630585090E+00 -0.28394994171E+02  0.12481402115E+04  0.12484635502E+04  0.00000000000E+00 0.  1.
          5    1    4    4  501    0 -0.89058132584E+02 -0.14476430376E+03  0.17276582908E+03  0.24239133384E+03  0.41800000000E+01 0.  1.
         -5    1    4    4    0  501 -0.38639931912E+02 -0.37374526006E+02 -0.17069250889E+02  0.56557327184E+02  0.41800000000E+01 0.  1.
</event>
<event>
11    1  0.6455215E-009  0.1747518E+03  0.7561462E-02  0.1073969E+00
         22   -1    0    0    0    0  0.00000000000E+00  0.00000000000E+00  0.22091067668E+04  0.22091067668E+04  0.00000000000E+00 0.  1.
         22   -1    0    0    0    0 -0.00000000000E+00 -0.00000000000E+00 -0.36230356774E+02  0.36230356774E+02  0.00000000000E+00 0. -1.
         24    2    1    2    0    0 -0.10872803526E+02 -0.14074814891E+03  0.34895671060E+03  0.38429344747E+03  0.77346031661E+02 0.  0.
         25    2    1    2    0    0 -0.84358958203E+02 -0.32674168306E+02  0.87018184785E+03  0.88376895515E+03  0.12508829944E+03 0.  0.
        -24    2    1    2    0    0  0.95231761729E+02  0.17342231722E+03  0.95373785160E+03  0.97727472098E+03  0.79407821673E+02 0.  0.
        -11    1    3    3    0    0  0.29213223528E+02 -0.49368706763E+02  0.89456107621E+02  0.10626888927E+03  0.00000000000E+00 0.  1.
         12    1    3    3    0    0 -0.40086027055E+02 -0.91379442149E+02  0.25950060298E+03  0.27802455819E+03  0.00000000000E+00 0. -1.
         11    1    5    5    0    0  0.56310735501E+02  0.58057690767E+02  0.24092899402E+03  0.25414242965E+03  0.00000000000E+00 0. -1.
        -12    1    5    5    0    0  0.38921026229E+02  0.11536462645E+03  0.71280885758E+03  0.72313229132E+03  0.00000000000E+00 0.  1.
          5    1    4    4  501    0  0.98039078551E+01 -0.54771165196E+02  0.25660870727E+03  0.26260521357E+03  0.41800000000E+01 0.  1.
         -5    1    4    4    0  501 -0.94162866058E+02  0.22096996890E+02  0.61357314058E+03  0.62116374158E+03  0.41800000000E+01 0.  1.
</event>
<event>
11    1  0.6455215E-009  0.1395366E+03  0.7561462E-02  0.1108077E+00
         22   -1    0    0    0    0  0.00000000000E+00  0.00000000000E+00  0.76999071002E+02  0.76999071002E+02  0.00000000000E+00 0.  1.
         22   -1    0    0    0    0 -0.00000000000E+00 -0.00000000000E+00 -0.23822047326E+04  0.23822047326E+04  0.00000000000E+00 0. -1.
        -24    2    1    2    0    0 -0.52530909508E+02 -0.26534144951E+02 -0.19138939424E+04  0.19164823446E+04  0.80318099832E+02 0.  0.
         25    2    1    2    0    0  0.66696195522E+02  0.81323908641E+02 -0.41246451837E+03  0.44366692813E+03  0.12510556976E+03 0.  0.
         24    2    1    2    0    0 -0.14165286013E+02 -0.54789763690E+02  0.21152799132E+02  0.99054530901E+02  0.78497042287E+02 0.  0.
        -13    1    5    5    0    0 -0.46186027084E+02 -0.23674932280E+02  0.80310600539E+01  0.52518086807E+02  0.00000000000E+00 0.  1.
         14    1    5    5    0    0  0.32020741071E+02 -0.31114831410E+02  0.13121739078E+02  0.46536444093E+02  0.00000000000E+00 0. -1.
         11    1    3    3    0    0 -0.34445390702E+02 -0.34822228953E+02 -0.18121419291E+04  0.18128037521E+04  0.00000000000E+00 0. -1.
        -12    1    3    3    0    0 -0.18085518806E+02  0.82880840014E+01 -0.10175201331E+03  0.10367859248E+03  0.00000000000E+00 0.  1.
          5    1    4    4  501    0  0.14922657873E+02  0.24324647121E+02 -0.32811047830E+03  0.32937567085E+03  0.41800000000E+01 0. -1.
         -5    1    4    4    0  501  0.51773537648E+02  0.56999261521E+02 -0.84354040069E+02  0.11429125728E+03  0.41800000000E+01 0. -1.
</event>
<event>
11    1  0.6455215E-009  0.1973543E+03  0.7561462E-02  0.1056411E+00
         22   -1    0    0    0    0  0.00000000000E+00  0.00000000000E+00  0.34010579897E+03  0.34010579897E+03  0.00000000000E+00 0.  1.
         22   -1    0    0    0    0 -0.00000000000E+00 -0.00000000000E+00 -0.50524365733E+03  0.50524365733E+03  0.00000000000E+00 0.  1.
         24    2    1    2    0    0  0.25114103612E+02  0.15689413092E+02 -0.34671418204E+03  0.35720065506E+03  0.80651770389E+02 0.  0.
         25    2    1    2    0    0  0.90210456505E+01 -0.16266473533E+03 -0.43048398742E+02  0.20986209737E+03  0.12509092651E+03 0.  0.
        -24    2    1    2    0    0 -0.34135149263E+02  0.14697532224E+03  0.22462472241E+03  0.27828670386E+03  0.64963604154E+02 0.  0.
        -11    1    3    3    0    0  0.97431021674E+01  0.47770930420E+02 -0.23323603052E+03  0.23827722460E+03  0.00000000000E+00 0.  1.
         12    1    3    3    0    0  0.15371001445E+02 -0.32081517328E+02 -0.11347815152E+03  0.11892343046E+03  0.00000000000E+00 0. -1.
         11    1    5    5    0    0  0.43398181745E+01  0.76683664387E+02  0.69024119427E+02  0.10326445404E+03  0.00000000000E+00 0. -1.
        -12    1    5    5    0    0 -0.38474967437E+02  0.70291657852E+02  0.15560060299E+03  0.17502224982E+03  0.00000000000E+00 0.  1.
          5    1    4    4  501    0 -0.15504880328E+02 -0.10247014451E+03  0.33832964096E+02  0.10909937529E+03  0.41800000000E+01 0.  1.
         -5    1    4    4    0  501  0.24525925978E+02 -0.60194590825E+02 -0.76881362838E+02  0.10076272208E+03  0.41800000000E+01 0.  1.
</event>
<event>
11    1  0.6455215E-009  0.1485589E+03  0.7561462E-02  0.1098360E+00
         22   -1    0    0    0    0  0.00000000000E+00  0.00000000000E+00  0.70977845673E+03  0.70977845673E+03  0.00000000000E+00 0. -1.
         22   -1    0    0    0    0 -0.00000000000E+00 -0.00000000000E+00 -0.81519840906E+03  0.81519840906E+03  0.00000000000E+00 0. -1.
         24    2    1    2    0    0  0.52189465230E+02  0.57277639218E+02 -0.67149281398E+03  0.68086490770E+03  0.81669792902E+02 0.  0.
         25    2    1    2    0    0 -0.11628890385E+03 -0.44574339197E+02 -0.77074247126E+02  0.19261062339E+03  0.12509369208E+03 0.  0.
        -24    2    1    2    0    0  0.64099438624E+02 -0.12703300021E+02  0.64314710878E+03  0.65150133470E+03  0.80905338064E+02 0.  0.
        -13    1    3    3    0    0  0.29739307932E+02  0.30467451381E+02 -0.10513587495E+03  0.11342946809E+03  0.00000000000E+00 0.  1.
         14    1    3    3    0    0  0.22450157299E+02  0.26810187837E+02 -0.56635693903E+03  0.56743543961E+03  0.00000000000E+00 0. -1.
         13    1    5    5    0    0  0.29938524690E+02  0.24628407515E+02  0.45563767620E+03  0.45728390054E+03  0.00000000000E+00 0. -1.
        -14    1    5    5    0    0  0.34160913934E+02 -0.37331707536E+02  0.18750943257E+03  0.19421743416E+03  0.00000000000E+00 0.  1.
          5    1    4    4  501    0  0.65923935963E+01  0.53424992377E+00  0.25235059651E+02  0.26420176228E+02  0.41800000000E+01 0.  1.
         -5    1    4    4    0  501 -0.12288129745E+03 -0.45108589120E+02 -0.10230930678E+03  0.16619044717E+03  0.41800000000E+01 0.  1.
</event>
<event>
11    1  0.6455215E-009  0.1731609E+03  0.7561462E-02  0.1075313E+00
         22   -1    0    0    0    0  0.00000000000E+00  0.00000000000E+00  0.97999687006E+03  0.97999687006E+03  0.00000000000E+00 0.  1.
         22   -1    0    0    0    0 -0.00000000000E+00 -0.00000000000E+00 -0.32297662066E+03  0.32297662066E+03  0.00000000000E+00 0.  1.
        -24    2    1    2    0    0  0.66084552867E+02  0.87217349003E+02 -0.20351780923E+03  0.24655228577E+03  0.85991260297E+02 0.  0.
         25    2    1    2    0    0 -0.84190875182E+02 -0.16508041362E+03  0.38735844797E+02  0.22693526886E+03  0.12513794051E+03 0.  0.
         24    2    1    2    0    0  0.18106322316E+02  0.77863064616E+02  0.82180221383E+03  0.82948593609E+03  0.79357065059E+02 0.  0.
        -13    1    5    5    0    0  0.89217592119E+01  0.89033971265E+02  0.78264438619E+03  0.78774290290E+03  0.00000000000E+00 0.  1.
         14    1    5    5    0    0  0.91845631036E+01 -0.11170906649E+02  0.39157827639E+02  0.41743033193E+02  0.00000000000E+00 0. -1.
         11    1    3    3    0    0  0.53460209372E+02  0.84776286585E+02 -0.97731357309E+02  0.13998725283E+03  0.00000000000E+00 0. -1.
        -12    1    3    3    0    0  0.12624343495E+02  0.24410624177E+01 -0.10578645193E+03  0.10656503294E+03  0.00000000000E+00 0.  1.
          5    1    4    4  501    0  0.19047015587E+02  0.46752895566E+01 -0.98697958859E+01  0.22350221611E+02  0.41800000000E+01 0. -1.
         -5    1    4    4    0  501 -0.10323789077E+03 -0.16975570318E+03  0.48605640683E+02  0.20458504725E+03  0.41800000000E+01 0. -1.
</event>
<event>
11    1  0.6455215E-009  0.2653752E+03  0.7561462E-02  0.1016013E+00
         22   -1    0    0    0    0  0.00000000000E+00  0.00000000000E+00  0.10163042662E+04  0.10163042662E+04  0.00000000000E+00 0. -1.
         22   -1    0    0    0    0 -0.00000000000E+00 -0.00000000000E+00 -0.51120918854E+03  0.51120918854E+03  0.00000000000E+00 0.  1.
         24    2    1    2    0    0 -0.90792056532E+02 -0.21026423385E+03 -0.39280876591E+03  0.46186859603E+03  0.81053240888E+02 0.  0.
         25    2    1    2    0    0  0.44965831470E+02  0.28373288775E+03  0.23372147461E+03  0.39089641723E+03  0.12509198104E+03 0.  0.
        -24    2    1    2    0    0  0.45826225062E+02 -0.73468653905E+02  0.66418236892E+03  0.67474844144E+03  0.81544797695E+02 0.  0.
        -13    1    3    3    0    0 -0.19828628695E+02 -0.14349991781E+03 -0.21806995610E+03  0.26180127326E+03  0.00000000000E+00 0.  1.
         14    1    3    3    0    0 -0.70963427837E+02 -0.66764316037E+02 -0.17473880981E+03  0.20006732277E+03  0.00000000000E+00 0. -1.
         13    1    5    5    0    0  0.42630556671E+02 -0.28548068124E+02  0.54385713209E+03  0.54627185236E+03  0.00000000000E+00 0. -1.
        -14    1    5    5    0    0  0.31956683908E+01 -0.44920585781E+02  0.12032523683E+03  0.12847658908E+03  0.00000000000E+00 0.  1.
          5    1    4    4  501    0 -0.43342596753E+02  0.10465018771E+03  0.76964174658E+02  0.13700802554E+03  0.41800000000E+01 0.  1.
         -5    1    4    4    0  501  0.88308428223E+02  0.17908270004E+03  0.15675729995E+03  0.25388839169E+03  0.41800000000E+01 0.  1.
</event>
<event>
11    1  0.6455215E-009  0.1405830E+03  0.7561462E-02  0.1106909E+00
         22   -1    0    0    0    0  0.00000000000E+00  0.00000000000E+00  0.15749640280E+03  0.15749640280E+03  0.00000000000E+00 0.  1.
         22   -1    0    0    0    0 -0.00000000000E+00 -0.00000000000E+00 -0.74058981251E+03  0.74058981251E+03  0.00000000000E+00 0. -1.
         24    2    1    2    0    0 -0.46155977276E+02 -0.27136380617E+02 -0.57938769924E+03  0.58718008724E+03  0.78889742180E+02 0.  0.
         25    2    1    2    0    0  0.91203550376E+02  0.61310402203E+02 -0.83392256403E+02  0.18622326731E+03  0.12509110217E+03 0.  0.
        -24    2    1    2    0    0 -0.45047573099E+02 -0.34174021586E+02  0.79686545938E+02  0.12468286076E+03  0.77451420714E+02 0.  0.
        -13    1    3    3    0    0 -0.34340569584E+02 -0.17621071059E+02 -0.94818297753E+02  0.10237327021E+03  0.00000000000E+00 0.  1.
         14    1    3    3    0    0 -0.11815407692E+02 -0.95153095574E+01 -0.48456940149E+03  0.48480681703E+03  0.00000000000E+00 0. -1.
         11    1    5    5    0    0  0.10435271323E+01 -0.40946489127E+02  0.12310856765E+02  0.42769862228E+02  0.00000000000E+00 0. -1.
        -12    1    5    5    0    0 -0.46091100231E+02  0.67724675407E+01  0.67375689173E+02  0.81912998533E+02  0.00000000000E+00 0.  1.
          5    1    4    4  501    0  0.11320984738E+03  0.23283609219E+02 -0.82528575294E+02  0.14208108298E+03  0.41800000000E+01 0. -1.
         -5    1    4    4    0  501 -0.22006297003E+02  0.38026792984E+02 -0.86368110938E+00  0.44142184331E+02  0.41800000000E+01 0. -1.
</event>
<event>
11    1  0.6455215E-009  0.1256685E+03  0.7561462E-02  0.1124709E+00
         22   -1    0    0    0    0  0.00000000000E+00  0.00000000000E+00  0.77051714306E+02  0.77051714306E+02  0.00000000000E+00 0. -1.
         22   -1    0    0    0    0 -0.00000000000E+00 -0.00000000000E+00 -0.21146132511E+04  0.21146132511E+04  0.00000000000E+00 0. -1.
        -24    2    1    2    0    0  0.17996776103E+02  0.59872813806E+02 -0.18710892797E+04  0.18728586371E+04  0.52112801948E+02 0.  0.
         25    2    1    2    0    0 -0.10295308098E+02 -0.41483827607E+02 -0.19091616445E+03  0.23221623570E+03  0.12509395250E+03 0.  0.
         24    2    1    2    0    0 -0.77014680044E+01 -0.18388986199E+02  0.24443907342E+02  0.86590092628E+02  0.80640387601E+02 0.  0.
        -13    1    5    5    0    0 -0.34727674642E+02 -0.15919469469E+02 -0.12992554920E+02  0.40351547400E+02  0.00000000000E+00 0.  1.
         14    1    5    5    0    0  0.27026206638E+02 -0.24695167293E+01  0.37436462262E+02  0.46238545228E+02  0.00000000000E+00 0. -1.
         13    1    3    3    0    0  0.19543789117E+01  0.60924780355E+02 -0.16759741279E+04  0.16770822657E+04  0.00000000000E+00 0. -1.
        -14    1    3    3    0    0  0.16042397191E+02 -0.10519665486E+01 -0.19511515181E+03  0.19577637143E+03  0.00000000000E+00 0.  1.
          5    1    4    4  501    0 -0.26037470242E+02 -0.79417881467E+02 -0.16027107097E+03  0.18080220780E+03  0.41800000000E+01 0. -1.
         -5    1    4    4    0  501  0.15742162143E+02  0.37934053859E+02 -0.30645093475E+02  0.51414027903E+02  0.41800000000E+01 0. -1.
</event>
<event>
11    1  0.6455215E-009  0.1505880E+03  0.7561462E-02  0.1096279E+00
         22   -1    0    0    0    0  0.00000000000E+00  0.00000000000E+00  0.47260570902E+02  0.47260570902E+02  0.00000000000E+00 0. -1.
         22   -1    0    0    0    0 -0.00000000000E+00 -0.00000000000E+00 -0.23781103926E+04  0.23781103926E+04  0.00000000000E+00 0. -1.
        -24    2    1    2    0    0 -0.82099977859E+02 -0.12011642134E+02 -0.17802285260E+04  0.17839383217E+04  0.79609326412E+02 0.  0.
         25    2    1    2    0    0 -0.84559133118E+01  0.46414790931E+02 -0.47697964352E+03  0.49536111910E+03  0.12508885921E+03 0.  0.
         24    2    1    2    0    0  0.90555891171E+02 -0.34403148797E+02 -0.73641652197E+02  0.14607152274E+03  0.80807491888E+02 0.  0.
        -13    1    5    5    0    0  0.38725082006E+02 -0.14965828531E+02 -0.80220028268E+02  0.90326413276E+02  0.00000000000E+00 0.  1.
         14    1    5    5    0    0  0.51830809164E+02 -0.19437320265E+02  0.65783760702E+01  0.55745109467E+02  0.00000000000E+00 0. -1.
         13    1    3    3    0    0 -0.25250559409E+02  0.33650714182E+02 -0.65348917043E+03  0.65484200933E+03  0.00000000000E+00 0. -1.
        -14    1    3    3    0    0 -0.56849418450E+02 -0.45662356317E+02 -0.11267393556E+04  0.11290963124E+04  0.00000000000E+00 0.  1.
          5    1    4    4  501    0 -0.66482061283E+02  0.19084511387E+02 -0.23692342248E+03  0.24684866532E+03  0.41800000000E+01 0.  1.
         -5    1    4    4    0  501  0.58026147971E+02  0.27330279544E+02 -0.24005622104E+03  0.24851245379E+03  0.41800000000E+01 0.  1.
</event>
<event>
11    1  0.6455215E-009  0.1450850E+03  0.7561462E-02  0.1102009E+00
         22   -1    0    0    0    0  0.00000000000E+00  0.00000000000E+00  0.13284414096E+03  0.13284414096E+03  0.00000000000E+00 0. -1.
         22   -1    0    0    0    0 -0.00000000000E+00 -0.00000000000E+00 -0.88434328180E+03  0.88434328180E+03  0.00000000000E+00 0.  1.
         24    2    1    2    0    0 -0.51494767274E+02  0.48008179489E+02 -0.69072171554E+03  0.69881093169E+03  0.79270004315E+02 0.  0.
         25    2    1    2    0    0  0.82701666911E+02 -0.63106857072E+02 -0.12916193793E+03  0.20773103649E+03  0.12508931286E+03 0.  0.
        -24    2    1    2    0    0 -0.31206899637E+02  0.15098677583E+02  0.68384512626E+02  0.11064545458E+03  0.79775525081E+02 0.  0.
        -13    1    3    3    0    0 -0.70098753976E+02  0.40382582431E+02 -0.44702435351E+03  0.45428554996E+03  0.00000000000E+00 0.  1.
         14    1    3    3    0    0  0.18603986702E+02  0.76255970587E+01 -0.24369736203E+03  0.24452538174E+03  0.00000000000E+00 0. -1.
         11    1    5    5    0    0 -0.49351377628E+02 -0.13104876444E+02  0.28290471357E+02  0.58375054861E+02  0.00000000000E+00 0. -1.
        -12    1    5    5    0    0  0.18144477991E+02  0.28203554027E+02  0.40094041269E+02  0.52270399717E+02  0.00000000000E+00 0.  1.
          5    1    4    4  501    0  0.54146454887E+02 -0.60938111932E+02 -0.15088196357E+03  0.17154629519E+03  0.41800000000E+01 0. -1.
         -5    1    4    4    0  501  0.28555212024E+02 -0.21687451398E+01  0.21720025638E+02  0.36184741300E+02  0.41800000000E+01 0. -1.
</event>
<event>
11    1  0.6455215E-009  0.1306082E+03  0.7561462E-02  0.1118524E+00
         22   -1    0    0    0    0  0.00000000000E+00  0.00000000000E+00  0.21729652033E+04  0.21729652033E+04  0.00000000000E+00 0.  1.
         22   -1    0    0    0    0 -0.00000000000E+00 -0.00000000000E+00 -0.36513080337E+02  0.36513080337E+02  0.00000000000E+00 0.  1.
         24    2    1    2    0    0  0.22494377601E+02  0.27297983545E+02  0.35625517616E+02  0.93828570687E+02  0.79268191871E+02 0.  0.
         25    2    1    2    0    0  0.16434768567E+02 -0.36665896410E+02  0.71475993518E+03  0.72673486224E+03  0.12508919014E+03 0.  0.
        -24    2    1    2    0    0 -0.38929146169E+02  0.93679128652E+01  0.13860666702E+04  0.13889148507E+04  0.79375135566E+02 0.  0.
        -11    1    3    3    0    0  0.21668171133E+02 -0.14573955769E+02 -0.13399610075E+02  0.29350628224E+02  0.00000000000E+00 0.  1.
         12    1    3    3    0    0  0.82620646850E+00  0.41871939314E+02  0.49025127691E+02  0.64477942462E+02  0.00000000000E+00 0. -1.
         13    1    5    5    0    0  0.15401328600E+02  0.25335569084E+02  0.64853033351E+03  0.64920773675E+03  0.00000000000E+00 0. -1.
        -14    1    5    5    0    0 -0.54330474769E+02 -0.15967656218E+02  0.73753633665E+03  0.73970711394E+03  0.00000000000E+00 0.  1.
          5    1    4    4  501    0 -0.21145864571E+02  0.36440106540E+02  0.36368580034E+03  0.36614186148E+03  0.41800000000E+01 0.  1.
         -5    1    4    4    0  501  0.37580633138E+02 -0.73106002950E+02  0.35107413483E+03  0.36059300077E+03  0.41800000000E+01 0.  1.
</event>
<event>
11    1  0.6455215E-009  0.1668591E+03  0.7561462E-02  0.1080798E+00
         22   -1    0    0    0    0  0.00000000000E+00  0.00000000000E+00  0.50846910887E+03  0.50846910887E+03  0.00000000000E+00 0.  1.
         22   -1    0    0    0    0 -0.00000000000E+00 -0.00000000000E+00 -0.24445331594E+03  0.24445331594E+03  0.00000000000E+00 0.  1.
        -24    2    1    2    0    0  0.94839305189E+02 -0.49854709921E+02 -0.15717941003E+03  0.20536326440E+03  0.77386804544E+02 0.  0.
         25    2    1    2    0    0 -0.13036183437E+03  0.30549606751E+02  0.88831508760E+02  0.20363448463E+03  0.12509388494E+03 0.  0.
         24    2    1    2    0    0  0.35522529183E+02  0.19305103170E+02  0.33236369421E+03  0.34392467578E+03  0.78638542053E+02 0.  0.
        -11    1    5    5    0    0  0.38210665900E+02  0.42826961685E+02  0.16082073465E+03  0.17075570950E+03  0.00000000000E+00 0.  1.
         12    1    5    5    0    0 -0.26881367172E+01 -0.23521858515E+02  0.17154295956E+03  0.17316896628E+03  0.00000000000E+00 0. -1.
         11    1    3    3    0    0  0.14459915466E+02 -0.80519212582E+00  0.70092467048E+01  0.16089345201E+02  0.00000000000E+00 0. -1.
        -12    1    3    3    0    0  0.80379389723E+02 -0.49049517796E+02 -0.16418865674E+03  0.18927391920E+03  0.00000000000E+00 0.  1.
          5    1    4    4  501    0 -0.95607048654E+02  0.73894696430E+02  0.84984278711E+02  0.14778678541E+03  0.41800000000E+01 0.  1.
         -5    1    4    4    0  501 -0.34754785717E+02 -0.43345089679E+02  0.38472300497E+01  0.55847699224E+02  0.41800000000E+01 0.  1.
</event>
<event>
11    1  0.6455215E-009  0.1687266E+03  0.7561462E-02  0.1079145E+00
         22   -1    0    0    0    0  0.00000000000E+00  0.00000000000E+00  0.17681326345E+03  0.17681326345E+03  0.00000000000E+00 0.  1.
         22   -1    0    0    0    0 -0.00000000000E+00 -0.00000000000E+00 -0.32774920768E+03  0.32774920768E+03  0.00000000000E+00 0.  1.
        -24    2    1    2    0    0 -0.39436055489E+02 -0.24123300409E+02 -0.13739843548E+03  0.16520336631E+03  0.79225539263E+02 0.  0.
         25    2    1    2    0    0 -0.25928305444E+02 -0.80515610861E+02 -0.89689480184E+02  0.17563225756E+03  0.12508975348E+03 0.  0.
         24    2    1    2    0    0  0.65364360932E+02  0.10463891127E+03  0.76151971444E+02  0.16372684726E+03  0.76062844592E+02 0.  0.
        -11    1    5    5    0    0  0.69550366636E+02  0.10479046482E+03  0.46984813224E+02  0.13426044723E+03  0.00000000000E+00 0.  1.
         12    1    5    5    0    0 -0.41860057038E+01 -0.15155355024E+00  0.29167158220E+02  0.29466400032E+02  0.00000000000E+00 0. -1.
         11    1    3    3    0    0 -0.11516176920E+02 -0.23086877989E+02 -0.83711704229E+00  0.25813311122E+02  0.00000000000E+00 0. -1.
        -12    1    3    3    0    0 -0.27919878569E+02 -0.10364224195E+01 -0.13656131844E+03  0.13939005519E+03  0.00000000000E+00 0.  1.
          5    1    4    4  501    0  0.29279839144E+02 -0.46980317118E+02 -0.95686361321E+02  0.11062464156E+03  0.41800000000E+01 0. -1.
         -5    1    4    4    0  501 -0.55208144587E+02 -0.33535293742E+02  0.59968811369E+01  0.65007616004E+02  0.41800000000E+01 0. -1.
</event>
<event>
11    1  0.6455215E-009  0.1698803E+03  0.7561462E-02  0.1078136E+00
         22   -1    0    0    0    0  0.00000000000E+00  0.00000000000E+00  0.20719303402E+03  0.20719303402E+03  0.00000000000E+00 0.  1.
         22   -1    0    0    0    0 -0.00000000000E+00 -0.00000000000E+00 -0.36593369427E+04  0.36593369427E+04  0.00000000000E+00 0.  1.
        -24    2    1    2    0    0 -0.40491905399E+02 -0.10931787850E+03 -0.31065128775E+04  0.31100268012E+04  0.90854020452E+02 0.  0.
         25    2    1    2    0    0  0.68413011201E+02  0.84029325033E+02 -0.52846076870E+03  0.55376774181E+03  0.12508661102E+03 0.  0.
         24    2    1    2    0    0 -0.27921105802E+02  0.25288553470E+02  0.18282973749E+03  0.20273543375E+03  0.79093894189E+02 0.  0.
        -11    1    5    5    0    0 -0.53639099613E+02  0.24721852658E+02  0.14867658971E+03  0.15997828395E+03  0.00000000000E+00 0.  1.
         12    1    5    5    0    0  0.25717993811E+02  0.56670081251E+00  0.34153147779E+02  0.42757149796E+02  0.00000000000E+00 0. -1.
         13    1    3    3    0    0  0.18163597268E+02  0.52689042268E+01 -0.44876409510E+03  0.44916243239E+03  0.00000000000E+00 0. -1.
        -14    1    3    3    0    0 -0.58655502667E+02 -0.11458678273E+03 -0.26577487824E+04  0.26608643688E+04  0.00000000000E+00 0.  1.
          5    1    4    4  501    0  0.81322897913E+02  0.33146902356E+02 -0.16930220626E+03  0.19076907587E+03  0.41800000000E+01 0. -1.
         -5    1    4    4    0  501 -0.12909886712E+02  0.50882422677E+02 -0.35915856243E+03  0.36299866595E+03  0.41800000000E+01 0. -1.
</event>
<event>
11    1  0.6455215E-009  0.1380538E+03  0.7561462E-02  0.1109751E+00
         22   -1    0    0    0    0  0.00000000000E+00  0.00000000000E+00  0.71004457088E+03  0.71004457088E+03  0.00000000000E+00 0.  1.
         22   -1    0    0    0    0 -0.00000000000E+00 -0.00000000000E+00 -0.27320799372E+03  0.27320799372E+03  0.00000000000E+00 0.  1.
        -24    2    1    2    0    0  0.31547513620E+02  0.11440709249E+02 -0.20409026955E+03  0.22348750715E+03  0.84662224654E+02 0.  0.
         25    2    1    2    0    0  0.27482471841E+02  0.28512915856E+01  0.18934867068E+02  0.12949435667E+03  0.12508734187E+03 0.  0.
         24    2    1    2    0    0 -0.59029985461E+02 -0.14292000834E+02  0.62199197964E+03  0.63027070078E+03  0.81721068631E+02 0.  0.
        -13    1    5    5    0    0 -0.37207570256E+02 -0.47079734310E+02  0.43944154537E+03  0.44351975882E+03  0.00000000000E+00 0.  1.
         14    1    5    5    0    0 -0.21822415206E+02  0.32787733476E+02  0.18255043427E+03  0.18675094196E+03  0.00000000000E+00 0. -1.
         11    1    3    3    0    0 -0.23327202386E+02  0.18705969098E+01 -0.18838775416E+02  0.30042585826E+02  0.00000000000E+00 0. -1.
        -12    1    3    3    0    0  0.54874716006E+02  0.95701123390E+01 -0.18525149413E+03  0.19344492132E+03  0.00000000000E+00 0.  1.
          5    1    4    4  501    0 -0.25721664488E+02  0.28979155403E+01 -0.41361725068E+02  0.48972100620E+02  0.41800000000E+01 0. -1.
         -5    1    4    4    0  501  0.53204136330E+02 -0.46623954665E-01  0.60296592136E+02  0.80522256051E+02  0.41800000000E+01 0. -1.
</event>
<event>
11    1  0.6455215E-009  0.1617219E+03  0.7561462E-02  0.1085469E+00
         22   -1    0    0    0    0  0.00000000000E+00  0.00000000000E+00  0.12656304488E+03  0.12656304488E+03  0.00000000000E+00 0. -1.
         22   -1    0    0    0    0 -0.00000000000E+00 -0.00000000000E+00 -0.12605731061E+04  0.12605731061E+04  0.00000000000E+00 0. -1.
         24    2    1    2    0    0  0.33809990805E+02 -0.84647369765E+01 -0.10380783658E+04  0.10422474477E+04  0.86361342384E+02 0.  0.
         25    2    1    2    0    0 -0.43516033266E+02 -0.94473110087E+02 -0.13142954300E+03  0.20914189953E+03  0.12509114950E+03 0.  0.
        -24    2    1    2    0    0  0.97060424612E+01  0.10293784706E+03  0.35497847619E+02  0.13574680370E+03  0.80477884613E+02 0.  0.
        -13    1    3    3    0    0  0.22471939769E+02 -0.15441241594E+02 -0.89163559466E+02  0.93239264024E+02  0.00000000000E+00 0.  1.
         14    1    3    3    0    0  0.11338051036E+02  0.69765046175E+01 -0.94891480634E+03  0.94900818369E+03  0.00000000000E+00 0. -1.
         13    1    5    5    0    0  0.30120478584E+02  0.67454628497E+02  0.53312268381E+02  0.91101965378E+02  0.00000000000E+00 0. -1.
        -14    1    5    5    0    0 -0.20414436123E+02  0.35483218567E+02 -0.17814420761E+02  0.44644838326E+02  0.00000000000E+00 0.  1.
          5    1    4    4  501    0 -0.25226078666E+02  0.25374671559E+02 -0.55058132864E+02  0.65795891939E+02  0.41800000000E+01 0.  1.
         -5    1    4    4    0  501 -0.18289954601E+02 -0.11984778165E+03 -0.76371410139E+02  0.14334600759E+03  0.41800000000E+01 0.  1.
</event>
<event>
11    1  0.6455215E-009  0.1256539E+03  0.7561462E-02  0.1124727E+00
         22   -1    0    0    0    0  0.00000000000E+00  0.00000000000E+00  0.13909541308E+03  0.13909541308E+03  0.00000000000E+00 0. -1.
         22   -1    0    0    0    0 -0.00000000000E+00 -0.00000000000E+00 -0.44990458065E+03  0.44990458065E+03  0.00000000000E+00 0. -1.
         24    2    1    2    0    0  0.84488625295E+01  0.72350520507E+01 -0.26795961800E+03  0.28044683098E+03  0.82002066265E+02 0.  0.
         25    2    1    2    0    0 -0.14606033796E+01 -0.18818927520E+02 -0.13612040331E+03  0.18583028785E+03  0.12509135178E+03 0.  0.
        -24    2    1    2    0    0 -0.69882591499E+01  0.11583875469E+02  0.93270853732E+02  0.12272287490E+03  0.78602989320E+02 0.  0.
        -13    1    3    3    0    0  0.11562555769E+02 -0.14866346092E+02 -0.96261720401E+01  0.21150984143E+02  0.00000000000E+00 0.  1.
         14    1    3    3    0    0 -0.31136932399E+01  0.22101398143E+02 -0.25833344596E+03  0.25929584684E+03  0.00000000000E+00 0. -1.
         13    1    5    5    0    0 -0.61001144228E+01  0.38076493465E+02  0.17308489466E+02  0.42268363561E+02  0.00000000000E+00 0. -1.
        -14    1    5    5    0    0 -0.88814472709E+00 -0.26492617995E+02  0.75962364266E+02  0.80454511335E+02  0.00000000000E+00 0.  1.
          5    1    4    4  501    0  0.28056616860E+01 -0.63958739918E+02 -0.30961493831E+02  0.71236778771E+02  0.41800000000E+01 0.  1.
         -5    1    4    4    0  501 -0.42662650656E+01  0.45139812398E+02 -0.10515890948E+03  0.11459350908E+03  0.41800000000E+01 0.  1.
</event>
<event>
11    1  0.6455215E-009  0.1349475E+03  0.7561462E-02  0.1113335E+00
         22   -1    0    0    0    0  0.00000000000E+00  0.00000000000E+00  0.34935403009E+03  0.34935403009E+03  0.00000000000E+00 0. -1.
         22   -1    0    0    0    0 -0.00000000000E+00 -0.00000000000E+00 -0.17152921284E+04  0.17152921284E+04  0.00000000000E+00 0. -1.
        -24    2    1    2    0    0  0.19753346918E+01  0.52680160341E+02 -0.15424880759E+04  0.15454328702E+04  0.79461881461E+02 0.  0.
         25    2    1    2    0    0 -0.19031171112E+02 -0.13792519310E+02 -0.14049134923E+03  0.18958956643E+03  0.12511580807E+03 0.  0.
         24    2    1    2    0    0  0.17055836421E+02 -0.38887641031E+02  0.31704132683E+03  0.32962372189E+03  0.79582943754E+02 0.  0.
        -11    1    5    5    0    0 -0.27410110095E+02 -0.20438189168E+01  0.57445861120E+02  0.63682951337E+02  0.00000000000E+00 0.  1.
         12    1    5    5    0    0  0.44465946516E+02 -0.36843822115E+02  0.25959546571E+03  0.26594077056E+03  0.00000000000E+00 0. -1.
         13    1    3    3    0    0 -0.58462294607E+01  0.69234625279E+02 -0.14068402362E+04  0.14085549553E+04  0.00000000000E+00 0. -1.
        -14    1    3    3    0    0  0.78215641525E+01 -0.16554464938E+02 -0.13564783971E+03  0.13687791492E+03  0.00000000000E+00 0.  1.
          5    1    4    4  501    0  0.49891785953E+02  0.93484018565E+01 -0.36608441066E+02  0.62723466742E+02  0.41800000000E+01 0. -1.
         -5    1    4    4    0  501 -0.68922957065E+02 -0.23140921166E+02 -0.10388290816E+03  0.12686609969E+03  0.41800000000E+01 0. -1.
</event>
<event>
11    1  0.6455215E-009  0.1342295E+03  0.7561462E-02  0.1114179E+00
         22   -1    0    0    0    0  0.00000000000E+00  0.00000000000E+00  0.11090078928E+04  0.11090078928E+04  0.00000000000E+00 0. -1.
         22   -1    0    0    0    0 -0.00000000000E+00 -0.00000000000E+00 -0.59075661553E+03  0.59075661553E+03  0.00000000000E+00 0. -1.
        -24    2    1    2    0    0  0.21686674290E+02 -0.35428869745E+02 -0.54793145904E+03  0.55549143780E+03  0.81340869255E+02 0.  0.
         25    2    1    2    0    0 -0.59965283917E+02  0.49649595136E+01  0.94027023456E+02  0.16765641125E+03  0.12508838873E+03 0.  0.
         24    2    1    2    0    0  0.38278609627E+02  0.30463910232E+02  0.97215571281E+03  0.97661665924E+03  0.79372963703E+02 0.  0.
        -13    1    5    5    0    0 -0.23376177268E+02  0.36860281432E+01  0.16833846338E+03  0.16999373730E+03  0.00000000000E+00 0.  1.
         14    1    5    5    0    0  0.61654786895E+02  0.26777882089E+02  0.80381724943E+03  0.80662292194E+03  0.00000000000E+00 0. -1.
         13    1    3    3    0    0 -0.10439210398E+01 -0.13660546290E+02 -0.48437970529E+03  0.48457341982E+03  0.00000000000E+00 0. -1.
        -14    1    3    3    0    0  0.22730595330E+02 -0.21768323455E+02 -0.63551753751E+02  0.70918017985E+02  0.00000000000E+00 0.  1.
          5    1    4    4  501    0 -0.12851557579E+02 -0.26930586870E+02  0.10528171292E+03  0.10950858650E+03  0.41800000000E+01 0.  1.
         -5    1    4    4    0  501 -0.47113726338E+02  0.31895546384E+02 -0.11254689466E+02  0.58147824753E+02  0.41800000000E+01 0.  1.
</event>
<event>
11    1  0.6455215E-009  0.2258721E+03  0.7561462E-02  0.1037600E+00
         22   -1    0    0    0    0  0.00000000000E+00  0.00000000000E+00  0.25658105657E+03  0.25658105657E+03  0.00000000000E+00 0.  1.
         22   -1    0    0    0    0 -0.00000000000E+00 -0.00000000000E+00 -0.38772421261E+03  0.38772421261E+03  0.00000000000E+00 0. -1.
         24    2    1    2    0    0  0.26563699292E+02  0.72645506525E+02 -0.10196361530E+03  0.15126940344E+03  0.80640274269E+02 0.  0.
         25    2    1    2    0    0  0.15195131591E+03 -0.13084864100E+03 -0.12478279219E+03  0.26726150861E+03  0.12508956591E+03 0.  0.
        -24    2    1    2    0    0 -0.17851501521E+03  0.58203134473E+02  0.95603251450E+02  0.22577435713E+03  0.81110191317E+02 0.  0.
        -11    1    3    3    0    0  0.35830179564E+02  0.33062721137E+02 -0.86910964343E+01  0.49522524712E+02  0.00000000000E+00 0.  1.
         12    1    3    3    0    0 -0.92664802728E+01  0.39582785388E+02 -0.93272518865E+02  0.10174687873E+03  0.00000000000E+00 0. -1.
         13    1    5    5    0    0 -0.39834293418E+02 -0.17546362520E+02  0.37360669405E+02  0.57362578291E+02  0.00000000000E+00 0. -1.
        -14    1    5    5    0    0 -0.13868072179E+03  0.75749496992E+02  0.58242582045E+02  0.16841177884E+03  0.00000000000E+00 0.  1.
          5    1    4    4  501    0  0.62783766163E+02 -0.42465691603E+02 -0.11944976316E+03  0.14153040160E+03  0.41800000000E+01 0. -1.
         -5    1    4    4    0  501  0.89167549752E+02 -0.88382949394E+02 -0.53330290296E+01  0.12573110701E+03  0.41800000000E+01 0. -1.
</event>
<event>
11    1  0.6455215E-009  0.1427355E+03  0.7561462E-02  0.1104542E+00
         22   -1    0    0    0    0  0.00000000000E+00  0.00000000000E+00  0.30581101472E+03  0.30581101472E+03  0.00000000000E+00 0. -1.
         22   -1    0    0    0    0 -0.00000000000E+00 -0.00000000000E+00 -0.18750208676E+04  0.18750208676E+04  0.00000000000E+00 0.  1.
         24    2    1    2    0    0  0.37570616864E+02 -0.56548924616E+02 -0.16533363960E+04  0.16570189980E+04  0.87071173409E+02 0.  0.
         25    2    1    2    0    0 -0.54006863230E+02  0.62941013993E+02 -0.18747102295E+03  0.24012175415E+03  0.12503903331E+03 0.  0.
        -24    2    1    2    0    0  0.16436246365E+02 -0.63920893770E+01  0.27159756605E+03  0.28369113021E+03  0.80027560709E+02 0.  0.
        -13    1    3    3    0    0 -0.27460318299E+02 -0.27920798232E+02 -0.63560891547E+03  0.63681420640E+03  0.00000000000E+00 0.  1.
         14    1    3    3    0    0  0.65030935163E+02 -0.28628126384E+02 -0.10177274805E+04  0.10202047916E+04  0.00000000000E+00 0. -1.
         11    1    5    5    0    0  0.18507475278E+02  0.33764026836E+02  0.93634238001E+02  0.10124182276E+03  0.00000000000E+00 0. -1.
        -12    1    5    5    0    0 -0.20712289127E+01 -0.40156116213E+02  0.17796332805E+03  0.18244930745E+03  0.00000000000E+00 0.  1.
          5    1    4    4  501    0 -0.72414029803E+02  0.74326965531E+02 -0.81868565602E+02  0.13224304878E+03  0.41800000000E+01 0.  1.
         -5    1    4    4    0  501  0.18407166573E+02 -0.11385951538E+02 -0.10560245735E+03  0.10787870537E+03  0.41800000000E+01 0.  1.
</event>
<event>
11    1  0.6455215E-009  0.1713994E+03  0.7561462E-02  0.1076820E+00
         22   -1    0    0    0    0  0.00000000000E+00  0.00000000000E+00  0.24516536682E+03  0.24516536682E+03  0.00000000000E+00 0.  1.
         22   -1    0    0    0    0 -0.00000000000E+00 -0.00000000000E+00 -0.30212807694E+03  0.30212807694E+03  0.00000000000E+00 0. -1.
         24    2    1    2    0    0 -0.10133603667E+03 -0.79830163075E+01 -0.13230889966E+03  0.18521402534E+03  0.80410629748E+02 0.  0.
         25    2    1    2    0    0  0.32098056582E+02  0.11523677722E+03 -0.33283760722E+02  0.17625551324E+03  0.12509355363E+03 0.  0.
        -24    2    1    2    0    0  0.69237980088E+02 -0.10725376091E+03  0.10862995027E+03  0.18582390517E+03  0.80204678934E+02 0.  0.
        -11    1    3    3    0    0 -0.14634706532E+02  0.88115615515E+00 -0.84591936045E+02  0.85853053034E+02  0.00000000000E+00 0.  1.
         12    1    3    3    0    0 -0.86701330139E+02 -0.88641724627E+01 -0.47716963616E+02  0.99360972308E+02  0.00000000000E+00 0. -1.
         13    1    5    5    0    0  0.20961549314E+02  0.10102396246E+02  0.11124693650E+02  0.25791544513E+02  0.00000000000E+00 0. -1.
        -14    1    5    5    0    0  0.48276430774E+02 -0.11735615715E+03  0.97505256620E+02  0.16003236066E+03  0.00000000000E+00 0.  1.
          5    1    4    4  501    0 -0.27519252910E+02  0.95347462673E+02 -0.49838930851E+02  0.11112983104E+03  0.41800000000E+01 0. -1.
         -5    1    4    4    0  501  0.59617309492E+02  0.19889314544E+02  0.16555170129E+02  0.65125682201E+02  0.41800000000E+01 0. -1.
</event>
<event>
11    1  0.6455215E-009  0.1981411E+03  0.7561462E-02  0.1055846E+00
         22   -1    0    0    0    0  0.00000000000E+00  0.00000000000E+00  0.29992031318E+03  0.29992031318E+03  0.00000000000E+00 0.  1.
         22   -1    0    0    0    0 -0.00000000000E+00 -0.00000000000E+00 -0.10939177925E+04  0.10939177925E+04  0.00000000000E+00 0.  1.
         24    2    1    2    0    0 -0.91748477975E+02 -0.34640719215E+02 -0.89842570384E+03  0.90745052383E+03  0.81730931972E+02 0.  0.
         25    2    1    2    0    0 -0.45695440500E+02  0.12308108966E+03 -0.10451591317E+03  0.20930369549E+03  0.12508969953E+03 0.  0.
        -24    2    1    2    0    0  0.13744391848E+03 -0.88440370442E+02  0.20894413767E+03  0.27708388637E+03  0.80033102946E+02 0.  0.
        -11    1    3    3    0    0 -0.91907811625E+02 -0.33289455492E+02 -0.52502066759E+03  0.53404300864E+03  0.00000000000E+00 0.  1.
         12    1    3    3    0    0  0.15933364991E+00 -0.13512637230E+01 -0.37340503625E+03  0.37340751519E+03  0.00000000000E+00 0. -1.
         13    1    5    5    0    0  0.42088525789E+02 -0.47448232794E+02  0.29876239629E+02  0.70109689008E+02  0.00000000000E+00 0. -1.
        -14    1    5    5    0    0  0.95355392686E+02 -0.40992137648E+02  0.17906789804E+03  0.20697419736E+03  0.00000000000E+00 0.  1.
          5    1    4    4  501    0 -0.37454591450E+01  0.13643331213E+03 -0.71642388297E+02  0.15420175525E+03  0.41800000000E+01 0.  1.
         -5    1    4    4    0  501 -0.41949981355E+02 -0.13352222472E+02 -0.32873524869E+02  0.55101940238E+02  0.41800000000E+01 0.  1.
</event>
<event>
11    1  0.6455215E-009  0.1436214E+03  0.7561462E-02  0.1103581E+00
         22   -1    0    0    0    0  0.00000000000E+00  0.00000000000E+00  0.49093870945E+03  0.49093870945E+03  0.00000000000E+00 0.  1.
         22   -1    0    0    0    0 -0.00000000000E+00 -0.00000000000E+00 -0.23966597925E+03  0.23966597925E+03  0.00000000000E+00 0. -1.
         24    2    1    2    0    0  0.37958101555E+01 -0.27688375702E+02 -0.12139276623E+03  0.14872246461E+03  0.81247236643E+02 0.  0.
         25    2    1    2    0    0 -0.20930853456E+02  0.94315388601E+02 -0.34173394257E+02  0.16170646183E+03  0.12509063022E+03 0.  0.
        -24    2    1    2    0    0  0.17135043300E+02 -0.66627012899E+02  0.40683889069E+03  0.42017576226E+03  0.79353762755E+02 0.  0.
        -13    1    3    3    0    0  0.18309760321E+01  0.12339962641E+02  0.69414221679E+01  0.14276221241E+02  0.00000000000E+00 0.  1.
         14    1    3    3    0    0  0.19648341234E+01 -0.40028338343E+02 -0.12833418840E+03  0.13444624337E+03  0.00000000000E+00 0. -1.
         11    1    5    5    0    0 -0.20038213715E+02 -0.41563658176E+02  0.10065781331E+03  0.11072968468E+03  0.00000000000E+00 0. -1.
        -12    1    5    5    0    0  0.37173257015E+02 -0.25063354723E+02  0.30618107737E+03  0.30944607758E+03  0.00000000000E+00 0.  1.
          5    1    4    4  501    0  0.41998581797E+02  0.75739291137E+02 -0.40419274748E+02  0.95663531537E+02  0.41800000000E+01 0.  1.
         -5    1    4    4    0  501 -0.62929435253E+02  0.18576097464E+02  0.62458804918E+01  0.66042930290E+02  0.41800000000E+01 0.  1.
</event>
<event>
11    1  0.6455215E-009  0.1380775E+03  0.7561462E-02  0.1109724E+00
         22   -1    0    0    0    0  0.00000000000E+00  0.00000000000E+00  0.36917658839E+04  0.36917658839E+04  0.00000000000E+00 0.  1.
         22   -1    0    0    0    0 -0.00000000000E+00 -0.00000000000E+00 -0.44049989156E+03  0.44049989156E+03  0.00000000000E+00 0. -1.
         24    2    1    2    0    0  0.25397783238E+02 -0.34058344086E+02 -0.41545825865E+03  0.42524925916E+03  0.80164515498E+02 0.  0.
         25    2    1    2    0    0 -0.80046725678E+02  0.14445071950E+02  0.26571731063E+03  0.30474420498E+03  0.12508878008E+03 0.  0.
        -24    2    1    2    0    0  0.54648942440E+02  0.19613272136E+02  0.34010069403E+04  0.34022723113E+04  0.72370468063E+02 0.  0.
        -13    1    3    3    0    0 -0.61653026281E+01 -0.53117074940E+02 -0.26475219823E+03  0.27009842849E+03  0.00000000000E+00 0.  1.
         14    1    3    3    0    0  0.31563085866E+02  0.19058730854E+02 -0.15070606042E+03  0.15515083067E+03  0.00000000000E+00 0. -1.
         11    1    5    5    0    0  0.53871295193E+02  0.40905376104E+02  0.29339777452E+04  0.29347573623E+04  0.00000000000E+00 0. -1.
        -12    1    5    5    0    0  0.77764724712E+00 -0.21292103968E+02  0.46702919507E+03  0.46751494893E+03  0.00000000000E+00 0.  1.
          5    1    4    4  501    0 -0.36896688085E+01 -0.43766542770E+02  0.13816212960E+03  0.14503575551E+03  0.41800000000E+01 0. -1.
         -5    1    4    4    0  501 -0.76357056869E+02  0.58211614720E+02  0.12755518103E+03  0.15970844946E+03  0.41800000000E+01 0. -1.
</event>
<event>
11    1  0.6455215E-009  0.1303201E+03  0.7561462E-02  0.1118876E+00
         22   -1    0    0    0    0  0.00000000000E+00  0.00000000000E+00  0.18658926757E+03  0.18658926757E+03  0.00000000000E+00 0.  1.
         22   -1    0    0    0    0 -0.00000000000E+00 -0.00000000000E+00 -0.85547855083E+03  0.85547855083E+03  0.00000000000E+00 0. -1.
        -24    2    1    2    0    0  0.17349712925E+02 -0.31996609963E+02 -0.69470603537E+03  0.70032248713E+03  0.80686521827E+02 0.  0.
         25    2    1    2    0    0 -0.42059910988E+02  0.37284321916E+01 -0.11356069399E+03  0.17414658425E+03  0.12509222304E+03 0.  0.
         24    2    1    2    0    0  0.24710198063E+02  0.28268177772E+02  0.13937744611E+03  0.16759874702E+03  0.85167973770E+02 0.  0.
        -13    1    5    5    0    0 -0.19685121116E+02  0.14177560094E+02  0.10974422544E+03  0.11239351504E+03  0.00000000000E+00 0.  1.
         14    1    5    5    0    0  0.44395319179E+02  0.14090617677E+02  0.29633220664E+02  0.55205231985E+02  0.00000000000E+00 0. -1.
         13    1    3    3    0    0  0.32728829643E+01 -0.58178314535E+02 -0.42283999639E+03  0.42683614022E+03  0.00000000000E+00 0. -1.
        -14    1    3    3    0    0  0.14076829961E+02  0.26181704572E+02 -0.27186603898E+03  0.27348634691E+03  0.00000000000E+00 0.  1.
          5    1    4    4  501    0 -0.24859641581E+02  0.26842466967E+02  0.16871462440E+02  0.40504795485E+02  0.41800000000E+01 0. -1.
         -5    1    4    4    0  501 -0.17200269406E+02 -0.23114034776E+02 -0.13043215643E+03  0.13364178876E+03  0.41800000000E+01 0. -1.
</event>
<event>
11    1  0.6455215E-009  0.1418336E+03  0.7561462E-02  0.1105528E+00
         22   -1    0    0    0    0  0.00000000000E+00  0.00000000000E+00  0.76884032932E+03  0.76884032932E+03  0.00000000000E+00 0. -1.
         22   -1    0    0    0    0 -0.00000000000E+00 -0.00000000000E+00 -0.47314716954E+02  0.47314716954E+02  0.00000000000E+00 0. -1.
         24    2    1    2    0    0 -0.50076843209E+01 -0.53775476889E+02  0.72892983429E+02  0.12009703715E+03  0.78695822520E+02 0.  0.
         25    2    1    2    0    0 -0.59619346774E+02  0.79590043606E+01  0.33237922087E+03  0.36019590726E+03  0.12508929962E+03 0.  0.
        -24    2    1    2    0    0  0.64627031095E+02  0.45816472528E+02  0.31625340807E+03  0.33586210187E+03  0.80692819087E+02 0.  0.
        -11    1    3    3    0    0 -0.29727369175E+02 -0.35713479712E+02  0.64143326755E+01  0.46907491672E+02  0.00000000000E+00 0.  1.
         12    1    3    3    0    0  0.24719684855E+02 -0.18061997176E+02  0.66478650753E+02  0.73189545478E+02  0.00000000000E+00 0. -1.
         13    1    5    5    0    0  0.77289726335E+02  0.56076300609E+02  0.28567647880E+03  0.30121305388E+03  0.00000000000E+00 0. -1.
        -14    1    5    5    0    0 -0.12662695241E+02 -0.10259828081E+02  0.30576929267E+02  0.34649047987E+02  0.00000000000E+00 0.  1.
          5    1    4    4  501    0 -0.15146247498E+02 -0.41413475429E+02  0.25181076631E+03  0.25567678656E+03  0.41800000000E+01 0. -1.
         -5    1    4    4    0  501 -0.44473099276E+02  0.49372479790E+02  0.80568454565E+02  0.10451912069E+03  0.41800000000E+01 0. -1.
</event>
<event>
11    1  0.6455215E-009  0.3897075E+03  0.7561462E-02  0.9680624E-01
         22   -1    0    0    0    0  0.00000000000E+00  0.00000000000E+00  0.14920608074E+04  0.14920608074E+04  0.00000000000E+00 0.  1.
         22   -1    0    0    0    0 -0.00000000000E+00 -0.00000000000E+00 -0.32772574301E+04  0.32772574301E+04  0.00000000000E+00 0. -1.
         24    2    1    2    0    0 -0.82963927131E+01  0.37201321234E+03 -0.31184517057E+04  0.31415971343E+04  0.80180126563E+02 0.  0.
         25    2    1    2    0    0 -0.35809626028E+01 -0.31701371254E+03  0.54617760362E+02  0.34517185200E+03  0.12509992181E+03 0.  0.
        -24    2    1    2    0    0  0.11877355316E+02 -0.54999499802E+02  0.12786373227E+04  0.12825492513E+04  0.82783828943E+02 0.  0.
        -11    1    3    3    0    0  0.11225928723E+02  0.21993292578E+03 -0.15308704626E+04  0.15466288781E+04  0.00000000000E+00 0.  1.
         12    1    3    3    0    0 -0.19522321436E+02  0.15208028656E+03 -0.15875812432E+04  0.15949682562E+04  0.00000000000E+00 0. -1.
         13    1    5    5    0    0  0.97076970178E+01  0.18564266428E+02  0.14260618700E+03  0.14413672655E+03  0.00000000000E+00 0. -1.
        -14    1    5    5    0    0  0.21696582982E+01 -0.73563766231E+02  0.11360311357E+04  0.11384125247E+04  0.00000000000E+00 0.  1.
          5    1    4    4  501    0 -0.20278363512E+02 -0.60454949454E+02  0.60458553465E+02  0.87970006407E+02  0.41800000000E+01 0.  1.
         -5    1    4    4    0  501  0.16697400910E+02 -0.25655876309E+03 -0.58407931029E+01  0.25720184560E+03  0.41800000000E+01 0.  1.
</event>
<event>
11    1  0.6455215E-009  0.1526515E+03  0.7561462E-02  0.1094200E+00
         22   -1    0    0    0    0  0.00000000000E+00  0.00000000000E+00  0.78700051448E+03  0.78700051448E+03  0.00000000000E+00 0.  1.
         22   -1    0    0    0    0 -0.00000000000E+00 -0.00000000000E+00 -0.25012454540E+04  0.25012454540E+04  0.00000000000E+00 0. -1.
        -24    2    1    2    0    0  0.34362106669E+02 -0.10906941506E+02 -0.24520447384E+04  0.24535813744E+04  0.78983833521E+02 0.  0.
         25    2    1    2    0    0 -0.15390361643E+02  0.95844182595E+02  0.10320640847E+03  0.18900550000E+03  0.12509414739E+03 0.  0.
         24    2    1    2    0    0 -0.18971745026E+02 -0.84937241089E+02  0.63459339035E+03  0.64565909413E+03  0.81195028943E+02 0.  0.
        -13    1    5    5    0    0 -0.49801038770E+02 -0.54985752270E+02  0.45397877417E+03  0.46000033023E+03  0.00000000000E+00 0.  1.
         14    1    5    5    0    0  0.30829293744E+02 -0.29951488819E+02  0.18061461618E+03  0.18565876390E+03  0.00000000000E+00 0. -1.
         13    1    3    3    0    0  0.67087869358E+01 -0.29972513791E+02 -0.20198123214E+04  0.20200458344E+04  0.00000000000E+00 0. -1.
        -14    1    3    3    0    0  0.27653319733E+02  0.19065572286E+02 -0.43223241694E+03  0.43353553995E+03  0.00000000000E+00 0.  1.
          5    1    4    4  501    0 -0.62360885331E+02  0.78651314582E+02  0.94772201898E+02  0.13810920301E+03  0.41800000000E+01 0. -1.
         -5    1    4    4    0  501  0.46970523687E+02  0.17192868012E+02  0.84342065768E+01  0.50896296983E+02  0.41800000000E+01 0. -1.
</event>
<event>
11    1  0.6455215E-009  0.1529972E+03  0.7561462E-02  0.1093855E+00
         22   -1    0    0    0    0  0.00000000000E+00  0.00000000000E+00  0.11499399059E+04  0.11499399059E+04  0.00000000000E+00 0. -1.
         22   -1    0    0    0    0 -0.00000000000E+00 -0.00000000000E+00 -0.20003411327E+03  0.20003411327E+03  0.00000000000E+00 0. -1.
         24    2    1    2    0    0 -0.84188941585E+02  0.22081506121E+02 -0.15513283049E+03  0.19520186386E+03  0.80387820977E+02 0.  0.
         25    2    1    2    0    0  0.11230665394E+03  0.14095540399E+02  0.31279142837E+03  0.35538505081E+03  0.12509431598E+03 0.  0.
        -24    2    1    2    0    0 -0.28117712360E+02 -0.36177046520E+02  0.79224719475E+03  0.79938710451E+03  0.96253523770E+02 0.  0.
        -11    1    3    3    0    0  0.10874464975E+02  0.32928958061E+01 -0.53826305828E+02  0.55012438143E+02  0.00000000000E+00 0.  1.
         12    1    3    3    0    0 -0.95063406560E+02  0.18788610315E+02 -0.10130652466E+03  0.14018942572E+03  0.00000000000E+00 0. -1.
         11    1    5    5    0    0 -0.24779836215E+02 -0.32378377658E+02  0.79319501447E+03  0.79424223673E+03  0.00000000000E+00 0. -1.
        -12    1    5    5    0    0 -0.33378761448E+01 -0.37986688620E+01 -0.94781972658E+00  0.51448677840E+01  0.00000000000E+00 0.  1.
          5    1    4    4  501    0  0.32655496655E+01 -0.25534202924E+02  0.16696515339E+03  0.16898962743E+03  0.41800000000E+01 0. -1.
         -5    1    4    4    0  501  0.10904110428E+03  0.39629743323E+02  0.14582627499E+03  0.18639542338E+03  0.41800000000E+01 0. -1.
</event>
<event>
11    1  0.6455215E-009  0.1782734E+03  0.7561462E-02  0.1071048E+00
         22   -1    0    0    0    0  0.00000000000E+00  0.00000000000E+00  0.40259266115E+03  0.40259266115E+03  0.00000000000E+00 0.  1.
         22   -1    0    0    0    0 -0.00000000000E+00 -0.00000000000E+00 -0.31073710665E+04  0.31073710665E+04  0.00000000000E+00 0. -1.
         24    2    1    2    0    0 -0.41045489321E+02  0.38602319649E+00 -0.27860929459E+04  0.27875801305E+04  0.81266225299E+02 0.  0.
         25    2    1    2    0    0  0.31448494515E+02 -0.12715399234E+03 -0.27856567080E+03  0.33227092426E+03  0.12509192055E+03 0.  0.
        -24    2    1    2    0    0  0.95969948063E+01  0.12676796915E+03  0.35988021137E+03  0.39011267289E+03  0.80696410760E+02 0.  0.
        -11    1    3    3    0    0  0.28722413111E+01  0.19950553073E+02 -0.19457054997E+03  0.19561179221E+03  0.00000000000E+00 0.  1.
         12    1    3    3    0    0 -0.43917730632E+02 -0.19564529877E+02 -0.25915223959E+04  0.25919683382E+04  0.00000000000E+00 0. -1.
         11    1    5    5    0    0 -0.33496148329E+02  0.76974570142E+02  0.18175386975E+03  0.20020376014E+03  0.00000000000E+00 0. -1.
        -12    1    5    5    0    0  0.43093143136E+02  0.49793399004E+02  0.17812634161E+03  0.18990891276E+03  0.00000000000E+00 0.  1.
          5    1    4    4  501    0 -0.91171665635E+01 -0.69632382587E+01 -0.15383840956E+03  0.15432218917E+03  0.41800000000E+01 0. -1.
         -5    1    4    4    0  501  0.40565661079E+02 -0.12019075408E+03 -0.12472726124E+03  0.17794873509E+03  0.41800000000E+01 0. -1.
</event>
<event>
11    1  0.6455215E-009  0.1505087E+03  0.7561462E-02  0.1096360E+00
         22   -1    0    0    0    0  0.00000000000E+00  0.00000000000E+00  0.24451284227E+04  0.24451284227E+04  0.00000000000E+00 0. -1.
         22   -1    0    0    0    0 -0.00000000000E+00 -0.00000000000E+00 -0.30179378460E+03  0.30179378460E+03  0.00000000000E+00 0.  1.
        -24    2    1    2    0    0  0.37530822691E+02 -0.69927854024E+01 -0.21881419586E+03  0.23845497357E+03  0.86739036254E+02 0.  0.
         25    2    1    2    0    0 -0.28738789279E+01  0.83380994791E+02  0.72142570873E+01  0.15053279255E+03  0.12508967445E+03 0.  0.
         24    2    1    2    0    0 -0.34656943763E+02 -0.76388209388E+02  0.23549345769E+04  0.23579344412E+04  0.84271615967E+02 0.  0.
        -13    1    5    5    0    0 -0.19913774775E+02 -0.55229603623E+01  0.14376271404E+04  0.14377756627E+04  0.00000000000E+00 0.  1.
         14    1    5    5    0    0 -0.14743168988E+02 -0.70865249026E+02  0.91730743653E+03  0.92015877850E+03  0.00000000000E+00 0. -1.
         11    1    3    3    0    0  0.44224183084E+02  0.25347572514E+02 -0.73568799269E+02  0.89502212418E+02  0.00000000000E+00 0. -1.
        -12    1    3    3    0    0 -0.66933603929E+01 -0.32340357917E+02 -0.14524539660E+03  0.14895276115E+03  0.00000000000E+00 0.  1.
          5    1    4    4  501    0 -0.38380874797E+02 -0.18190600453E+02  0.23090726660E+01  0.42741007376E+02  0.41800000000E+01 0.  1.
         -5    1    4    4    0  501  0.35506995869E+02  0.10157159524E+03  0.49051844213E+01  0.10779178517E+03  0.41800000000E+01 0.  1.
</event>
<event>
11    1  0.6455215E-009  0.1835567E+03  0.7561462E-02  0.1066802E+00
         22   -1    0    0    0    0  0.00000000000E+00  0.00000000000E+00  0.65438403470E+03  0.65438403470E+03  0.00000000000E+00 0. -1.
         22   -1    0    0    0    0 -0.00000000000E+00 -0.00000000000E+00 -0.41460368379E+03  0.41460368379E+03  0.00000000000E+00 0. -1.
         24    2    1    2    0    0  0.12818682578E+03  0.12250230539E+02 -0.30523525454E+03  0.34103868165E+03  0.80974633759E+02 0.  0.
         25    2    1    2    0    0 -0.17309240274E+03 -0.53194571180E+02  0.53945548851E+02  0.22660118752E+03  0.12508930272E+03 0.  0.
        -24    2    1    2    0    0  0.44905576962E+02  0.40944340641E+02  0.49107005660E+03  0.50134784932E+03  0.80665455180E+02 0.  0.
        -11    1    3    3    0    0  0.11886493226E+02  0.31103980402E+02 -0.84587356361E+02  0.90905264832E+02  0.00000000000E+00 0.  1.
         12    1    3    3    0    0  0.11630033255E+03 -0.18853749863E+02 -0.22064789818E+03  0.25013341681E+03  0.00000000000E+00 0. -1.
         13    1    5    5    0    0 -0.86229422473E+01  0.43043632661E+01  0.28816530115E+03  0.28832641825E+03  0.00000000000E+00 0. -1.
        -14    1    5    5    0    0  0.53528519210E+02  0.36639977375E+02  0.20290475545E+03  0.21302143107E+03  0.00000000000E+00 0.  1.
          5    1    4    4  501    0 -0.52044897846E+02 -0.23008007285E+02 -0.40587079408E+02  0.70020162853E+02  0.41800000000E+01 0.  1.
         -5    1    4    4    0  501 -0.12104750489E+03 -0.30186563896E+02  0.94532628259E+02  0.15658102467E+03  0.41800000000E+01 0.  1.
</event>
<event>
11    1  0.6455215E-009  0.1443351E+03  0.7561462E-02  0.1102812E+00
         22   -1    0    0    0    0  0.00000000000E+00  0.00000000000E+00  0.63161267604E+03  0.63161267604E+03  0.00000000000E+00 0. -1.
         22   -1    0    0    0    0 -0.00000000000E+00 -0.00000000000E+00 -0.58101161259E+03  0.58101161259E+03  0.00000000000E+00 0.  1.
        -24    2    1    2    0    0  0.12869762438E+02 -0.72423136198E+02 -0.53380503053E+03  0.54496644210E+03  0.81424019554E+02 0.  0.
         25    2    1    2    0    0 -0.92652603949E+01  0.39507262182E+02  0.78375887032E+02  0.15307714941E+03  0.12507263965E+03 0.  0.
         24    2    1    2    0    0 -0.36045020427E+01  0.32915874016E+02  0.50603020695E+03  0.51458069711E+03  0.87351452754E+02 0.  0.
        -13    1    5    5    0    0  0.66167548956E+01  0.44611361979E+02  0.11932005755E+03  0.12755873626E+03  0.00000000000E+00 0.  1.
         14    1    5    5    0    0 -0.10221256938E+02 -0.11695487962E+02  0.38671014940E+03  0.38702196085E+03  0.00000000000E+00 0. -1.
         11    1    3    3    0    0  0.90326015556E+01 -0.27304191586E+02 -0.40975155791E+02  0.50060664809E+02  0.00000000000E+00 0. -1.
        -12    1    3    3    0    0  0.38371608821E+01 -0.45118944612E+02 -0.49282987474E+03  0.49490577730E+03  0.00000000000E+00 0.  1.
          5    1    4    4  501    0 -0.62909984128E+02  0.53124101227E+01  0.19273093633E+02  0.66142364204E+02  0.41800000000E+01 0.  1.
         -5    1    4    4    0  501  0.53644723733E+02  0.34194852059E+02  0.59102793399E+02  0.86934785209E+02  0.41800000000E+01 0.  1.
</event>
<event>
11    1  0.6455215E-009  0.1427072E+03  0.7561462E-02  0.1104572E+00
         22   -1    0    0    0    0  0.00000000000E+00  0.00000000000E+00  0.17379767605E+03  0.17379767605E+03  0.00000000000E+00 0. -1.
         22   -1    0    0    0    0 -0.00000000000E+00 -0.00000000000E+00 -0.50202854791E+03  0.50202854791E+03  0.00000000000E+00 0.  1.
         24    2    1    2    0    0 -0.67630306702E+02 -0.37996980693E+01 -0.41018836331E+03  0.42287097285E+03  0.77311513999E+02 0.  0.
         25    2    1    2    0    0  0.84799938971E+02 -0.21634532479E+02  0.42338254574E+02  0.15842613073E+03  0.12508888221E+03 0.  0.
        -24    2    1    2    0    0 -0.17169632269E+02  0.25434230549E+02  0.39619236881E+02  0.94529120376E+02  0.80152194682E+02 0.  0.
        -13    1    3    3    0    0 -0.47566830907E+02 -0.39290953678E+02 -0.26309850090E+03  0.27023545959E+03  0.00000000000E+00 0.  1.
         14    1    3    3    0    0 -0.20063475795E+02  0.35491255608E+02 -0.14708986240E+03  0.15263551326E+03  0.00000000000E+00 0. -1.
         11    1    5    5    0    0 -0.20970545769E+02  0.36767256780E+02  0.58485271927E+02  0.72195027483E+02  0.00000000000E+00 0. -1.
        -12    1    5    5    0    0  0.38009135007E+01 -0.11333026231E+02 -0.18866035046E+02  0.22334092893E+02  0.00000000000E+00 0.  1.
          5    1    4    4  501    0  0.20252309607E+01  0.21772371297E+02  0.59300804531E+02  0.63341893959E+02  0.41800000000E+01 0. -1.
         -5    1    4    4    0  501  0.82774708010E+02 -0.43406903776E+02 -0.16962549957E+02  0.95084236773E+02  0.41800000000E+01 0. -1.
</event>
<event>
11    1  0.6455215E-009  0.1369281E+03  0.7561462E-02  0.1111038E+00
         22   -1    0    0    0    0  0.00000000000E+00  0.00000000000E+00  0.15885627781E+04  0.15885627781E+04  0.00000000000E+00 0. -1.
         22   -1    0    0    0    0 -0.00000000000E+00 -0.00000000000E+00 -0.50749589583E+03  0.50749589583E+03  0.00000000000E+00 0. -1.
         24    2    1    2    0    0  0.16680109687E+02  0.53268931684E+02 -0.49462468427E+03  0.50439490605E+03  0.81515874596E+02 0.  0.
         25    2    1    2    0    0  0.16974129197E+00 -0.39900429492E+02  0.71106381523E+03  0.72308419237E+03  0.12508767664E+03 0.  0.
        -24    2    1    2    0    0 -0.16849850979E+02 -0.13368502193E+02  0.86462775131E+03  0.86857957550E+03  0.79916808650E+02 0.  0.
        -11    1    3    3    0    0  0.24271621763E+02  0.35577439466E+02 -0.94997897414E+02  0.10430468031E+03  0.00000000000E+00 0.  1.
         12    1    3    3    0    0 -0.75915120758E+01  0.17691492218E+02 -0.39962678686E+03  0.40009022574E+03  0.00000000000E+00 0. -1.
         11    1    5    5    0    0 -0.96272690070E+01 -0.30211137296E+02  0.81595960648E+03  0.81657545673E+03  0.00000000000E+00 0. -1.
        -12    1    5    5    0    0 -0.72225819725E+01  0.16842635103E+02  0.48668144831E+02  0.52004118768E+02  0.00000000000E+00 0.  1.
          5    1    4    4  501    0 -0.75344769347E+01 -0.82207752503E+02  0.35976662747E+03  0.36914005683E+03  0.41800000000E+01 0. -1.
         -5    1    4    4    0  501  0.77042182267E+01  0.42307323012E+02  0.35129718776E+03  0.35394413554E+03  0.41800000000E+01 0. -1.
</event>
<event>
11    1  0.6455215E-009  0.1628374E+03  0.7561462E-02  0.1084439E+00
         22   -1    0    0    0    0  0.00000000000E+00  0.00000000000E+00  0.15319623626E+03  0.15319623626E+03  0.00000000000E+00 0. -1.
         22   -1    0    0    0    0 -0.00000000000E+00 -0.00000000000E+00 -0.76817310238E+03  0.76817310238E+03  0.00000000000E+00 0.  1.
        -24    2    1    2    0    0  0.11820483396E+02 -0.56379308237E+02 -0.53060134963E+03  0.53980735099E+03  0.80844503391E+02 0.  0.
         25    2    1    2    0    0 -0.26783451677E+02 -0.55699358108E+02 -0.16996074810E+03  0.21989601937E+03  0.12509129332E+03 0.  0.
         24    2    1    2    0    0  0.14962968281E+02  0.11207866634E+03  0.85585231610E+02  0.16166596827E+03  0.77624323238E+02 0.  0.
        -13    1    5    5    0    0 -0.22611630429E+02  0.37962922211E+02  0.60399094171E+02  0.74836621184E+02  0.00000000000E+00 0.  1.
         14    1    5    5    0    0  0.37574598710E+02  0.74115744134E+02  0.25186137439E+02  0.86829347089E+02  0.00000000000E+00 0. -1.
         11    1    3    3    0    0 -0.11204470433E+02  0.11395248423E+02 -0.23958587910E+03  0.24011827358E+03  0.00000000000E+00 0. -1.
        -12    1    3    3    0    0  0.23024953829E+02 -0.67774556661E+02 -0.29101547053E+03  0.29968907741E+03  0.00000000000E+00 0.  1.
          5    1    4    4  501    0 -0.28312602259E+00 -0.23884384603E+02 -0.17615928539E+03  0.17782044376E+03  0.41800000000E+01 0.  1.
         -5    1    4    4    0  501 -0.26500325655E+02 -0.31814973505E+02  0.61985372901E+01  0.42075575616E+02  0.41800000000E+01 0.  1.
</event>
<event>
11    1  0.6455215E-009  0.1877719E+03  0.7561462E-02  0.1063524E+00
         22   -1    0    0    0    0  0.00000000000E+00  0.00000000000E+00  0.53516448889E+02  0.53516448889E+02  0.00000000000E+00 0.  1.
         22   -1    0    0    0    0 -0.00000000000E+00 -0.00000000000E+00 -0.10314881553E+04  0.10314881553E+04  0.00000000000E+00 0. -1.
        -24    2    1    2    0    0  0.16440792544E+03  0.93594074622E+01 -0.40309941623E+03  0.44265717989E+03  0.79615796709E+02 0.  0.
         25    2    1    2    0    0 -0.11432722045E+03  0.44290254765E+02 -0.38445540829E+03  0.42247758976E+03  0.12509601465E+03 0.  0.
         24    2    1    2    0    0 -0.50080704991E+02 -0.53649662227E+02 -0.19041688185E+03  0.21986983451E+03  0.81840038862E+02 0.  0.
        -11    1    5    5    0    0 -0.49554254175E+02 -0.11031621029E+02 -0.43368985127E+02  0.66769676054E+02  0.00000000000E+00 0.  1.
         12    1    5    5    0    0 -0.52645081552E+00 -0.42618041198E+02 -0.14704789673E+03  0.15310015845E+03  0.00000000000E+00 0. -1.
         11    1    3    3    0    0  0.41695271410E+02 -0.22462521404E+02 -0.17927055171E+03  0.18542111863E+03  0.00000000000E+00 0. -1.
        -12    1    3    3    0    0  0.12271265403E+03  0.31821928867E+02 -0.22382886452E+03  0.25723606125E+03  0.00000000000E+00 0.  1.
          5    1    4    4  501    0 -0.10630287290E+03  0.70094374892E+02 -0.20799937891E+03  0.24391542839E+03  0.41800000000E+01 0. -1.
         -5    1    4    4    0  501 -0.80243475560E+01 -0.25804120127E+02 -0.17645602938E+03  0.17856216137E+03  0.41800000000E+01 0. -1.
</event>
<event>
11    1  0.6455215E-009  0.1938240E+03  0.7561462E-02  0.1058979E+00
         22   -1    0    0    0    0  0.00000000000E+00  0.00000000000E+00  0.40191405220E+03  0.40191405220E+03  0.00000000000E+00 0.  1.
         22   -1    0    0    0    0 -0.00000000000E+00 -0.00000000000E+00 -0.57994009179E+03  0.57994009179E+03  0.00000000000E+00 0. -1.
         24    2    1    2    0    0  0.30931628431E+02  0.76743701019E+01 -0.42750920522E+03  0.43629803528E+03  0.81093732503E+02 0.  0.
         25    2    1    2    0    0  0.10312986625E+03  0.65266508690E+02 -0.65534890641E+02  0.18664992413E+03  0.12509150977E+03 0.  0.
        -24    2    1    2    0    0 -0.13406149468E+03 -0.72940878791E+02  0.31501805627E+03  0.35890618457E+03  0.79274317366E+02 0.  0.
        -11    1    3    3    0    0 -0.15567863366E+02 -0.91087343796E+01 -0.25350639569E+02  0.31112414537E+02  0.00000000000E+00 0.  1.
         12    1    3    3    0    0  0.46499491798E+02  0.16783104482E+02 -0.40215856565E+03  0.40518562075E+03  0.00000000000E+00 0. -1.
         13    1    5    5    0    0 -0.19205764470E+02 -0.49787982204E+02  0.77970603071E+02  0.94483435078E+02  0.00000000000E+00 0. -1.
        -14    1    5    5    0    0 -0.11485573021E+03 -0.23152896588E+02  0.23704745320E+03  0.26442274950E+03  0.00000000000E+00 0.  1.
          5    1    4    4  501    0  0.20702794145E+02  0.85780302618E+02 -0.45084849373E+02  0.99181561017E+02  0.41800000000E+01 0.  1.
         -5    1    4    4    0  501  0.82427072106E+02 -0.20513793929E+02 -0.20450041267E+02  0.87468363110E+02  0.41800000000E+01 0.  1.
</event>
<event>
11    1  0.6455215E-009  0.1868132E+03  0.7561462E-02  0.1064261E+00
         22   -1    0    0    0    0  0.00000000000E+00  0.00000000000E+00  0.63673439576E+03  0.63673439576E+03  0.00000000000E+00 0. -1.
         22   -1    0    0    0    0 -0.00000000000E+00 -0.00000000000E+00 -0.17310563079E+03  0.17310563079E+03  0.00000000000E+00 0.  1.
         24    2    1    2    0    0  0.15499374068E+03 -0.33209461025E+02 -0.44657699321E+02  0.18585116257E+03  0.86141839824E+02 0.  0.
         25    2    1    2    0    0 -0.10533095009E+03 -0.71494146151E+01  0.77440554959E+02  0.18107992336E+03  0.12508867221E+03 0.  0.
        -24    2    1    2    0    0 -0.49662790592E+02  0.40358875640E+02  0.43084590933E+03  0.44290894061E+03  0.80280137495E+02 0.  0.
        -13    1    3    3    0    0  0.10202792729E+03 -0.25863069278E+02 -0.70274757407E+02  0.12655883149E+03  0.00000000000E+00 0.  1.
         14    1    3    3    0    0  0.52965813396E+02 -0.73463917467E+01  0.25617058086E+02  0.59292331084E+02  0.00000000000E+00 0. -1.
         13    1    5    5    0    0 -0.30224172266E+02  0.52446158715E+02  0.39969277148E+03  0.40425043195E+03  0.00000000000E+00 0. -1.
        -14    1    5    5    0    0 -0.19438618326E+02 -0.12087283075E+02  0.31153137844E+02  0.38658508663E+02  0.00000000000E+00 0.  1.
          5    1    4    4  501    0 -0.87182309220E+02 -0.53911573827E+02  0.19671745154E+02  0.10445890479E+03  0.41800000000E+01 0. -1.
         -5    1    4    4    0  501 -0.18148640872E+02  0.46762159212E+02  0.57768809806E+02  0.76621018566E+02  0.41800000000E+01 0. -1.
</event>
<event>
11    1  0.6455215E-009  0.1589852E+03  0.7561462E-02  0.1088036E+00
         22   -1    0    0    0    0  0.00000000000E+00  0.00000000000E+00  0.12404583834E+04  0.12404583834E+04  0.00000000000E+00 0.  1.
         22   -1    0    0    0    0 -0.00000000000E+00 -0.00000000000E+00 -0.15761971593E+03  0.15761971593E+03  0.00000000000E+00 0. -1.
        -24    2    1    2    0    0 -0.27385975730E+02  0.89056444433E+02 -0.90129259784E+02  0.15043288790E+03  0.76326458924E+02 0.  0.
         25    2    1    2    0    0  0.39518398836E+02 -0.13289527118E+03  0.21146062160E+03  0.28211113445E+03  0.12509292844E+03 0.  0.
         24    2    1    2    0    0 -0.12132423106E+02  0.43838826749E+02  0.96150730565E+03  0.96553407696E+03  0.75436838069E+02 0.  0.
        -13    1    5    5    0    0 -0.10029175293E+02  0.61647458880E+02  0.87282754013E+03  0.87505937419E+03  0.00000000000E+00 0.  1.
         14    1    5    5    0    0 -0.21032478126E+01 -0.17808632131E+02  0.88679765511E+02  0.90474702767E+02  0.00000000000E+00 0. -1.
         13    1    3    3    0    0 -0.16796375542E+02  0.10201375738E+03 -0.73578065479E+02  0.12689624362E+03  0.00000000000E+00 0. -1.
        -14    1    3    3    0    0 -0.10589600188E+02 -0.12957312948E+02 -0.16551194305E+02  0.23536644279E+02  0.00000000000E+00 0.  1.
          5    1    4    4  501    0  0.72903203128E+02 -0.11838801779E+03  0.12044557564E+03  0.18399785019E+03  0.41800000000E+01 0. -1.
         -5    1    4    4    0  501 -0.33384804292E+02 -0.14507253396E+02  0.91015045951E+02  0.98113284259E+02  0.41800000000E+01 0. -1.
</event>
<event>
11    1  0.6455215E-009  0.1470328E+03  0.7561462E-02  0.1099950E+00
         22   -1    0    0    0    0  0.00000000000E+00  0.00000000000E+00  0.16618606402E+03  0.16618606402E+03  0.00000000000E+00 0.  1.
         22   -1    0    0    0    0 -0.00000000000E+00 -0.00000000000E+00 -0.10385778039E+04  0.10385778039E+04  0.00000000000E+00 0.  1.
        -24    2    1    2    0    0  0.48830080599E+02 -0.56788675453E+02 -0.76555502086E+03  0.77343845406E+03  0.80766464653E+02 0.  0.
         25    2    1    2    0    0 -0.50328195887E+01 -0.14324193758E+02 -0.23021513203E+03  0.26244499347E+03  0.12509138972E+03 0.  0.
         24    2    1    2    0    0 -0.43797261011E+02  0.71112869210E+02  0.12337841301E+03  0.16888042039E+03  0.79518069344E+02 0.  0.
        -13    1    5    5    0    0 -0.49877903807E+02  0.84199579962E+02  0.91889748529E+02  0.13424269231E+03  0.00000000000E+00 0.  1.
         14    1    5    5    0    0  0.60806427965E+01 -0.13086710752E+02  0.31488664486E+02  0.34637728076E+02  0.00000000000E+00 0. -1.
         11    1    3    3    0    0 -0.60083642818E+01 -0.19984250689E+02 -0.42230299568E+02  0.47104871495E+02  0.00000000000E+00 0. -1.
        -12    1    3    3    0    0  0.54838444881E+02 -0.36804424764E+02 -0.72332472130E+03  0.72633358256E+03  0.00000000000E+00 0.  1.
          5    1    4    4  501    0  0.54181258125E+02  0.23375099225E+01 -0.16004838346E+03  0.16903854630E+03  0.41800000000E+01 0. -1.
         -5    1    4    4    0  501 -0.59214077713E+02 -0.16661703680E+02 -0.70166748567E+02  0.93406447173E+02  0.41800000000E+01 0. -1.
</event>
<event>
11    1  0.6455215E-009  0.1829711E+03  0.7561462E-02  0.1067265E+00
         22   -1    0    0    0    0  0.00000000000E+00  0.00000000000E+00  0.11536265149E+04  0.11536265149E+04  0.00000000000E+00 0.  1.
         22   -1    0    0    0    0 -0.00000000000E+00 -0.00000000000E+00 -0.90690980936E+03  0.90690980936E+03  0.00000000000E+00 0. -1.
        -24    2    1    2    0    0 -0.10575681446E+02 -0.13133691181E+03 -0.82100450069E+03  0.83540401316E+03  0.80562060680E+02 0.  0.
         25    2    1    2    0    0  0.59898444373E+02  0.16667373449E+03  0.78329813404E+02  0.23055041025E+03  0.12509985848E+03 0.  0.
         24    2    1    2    0    0 -0.49322762927E+02 -0.35336822685E+02  0.98939139277E+03  0.99458190079E+03  0.81341276816E+02 0.  0.
        -13    1    5    5    0    0 -0.37846699271E+02 -0.61793922985E+02  0.68051354544E+03  0.68436068494E+03  0.00000000000E+00 0.  1.
         14    1    5    5    0    0 -0.11476063655E+02  0.26457100300E+02  0.30887784733E+03  0.31022121585E+03  0.00000000000E+00 0. -1.
         13    1    3    3    0    0 -0.14207138247E+02 -0.67426826801E+02 -0.63427333605E+03  0.63800539541E+03  0.00000000000E+00 0. -1.
        -14    1    3    3    0    0  0.36314568010E+01 -0.63910085007E+02 -0.18673116464E+03  0.19739861775E+03  0.00000000000E+00 0.  1.
          5    1    4    4  501    0 -0.10701759591E+02  0.13928262274E+03  0.62395534714E+02  0.15305179452E+03  0.41800000000E+01 0. -1.
         -5    1    4    4    0  501  0.70600203964E+02  0.27391111757E+02  0.15934278690E+02  0.77498615732E+02  0.41800000000E+01 0. -1.
</event>
<event>
11    1  0.6455215E-009  0.1974561E+03  0.7561462E-02  0.1056337E+00
         22   -1    0    0    0    0  0.00000000000E+00  0.00000000000E+00  0.27022972344E+04  0.27022972344E+04  0.00000000000E+00 0.  1.
         22   -1    0    0    0    0 -0.00000000000E+00 -0.00000000000E+00 -0.34731003258E+02  0.34731003258E+02  0.00000000000E+00 0. -1.
         24    2    1    2    0    0 -0.41251359172E+01 -0.12511816058E+02  0.55485130240E+02  0.98079357248E+02  0.79795979554E+02 0.  0.
         25    2    1    2    0    0 -0.79455248065E+02  0.13649510791E+03  0.12417340196E+04  0.12579734216E+04  0.12509877390E+03 0.  0.
        -24    2    1    2    0    0  0.83580383982E+02 -0.12398329185E+03  0.13703470813E+04  0.13809754588E+04  0.82973231857E+02 0.  0.
        -13    1    3    3    0    0 -0.26971932768E+02  0.24208464599E+02  0.34386467058E+02  0.49959624020E+02  0.00000000000E+00 0.  1.
         14    1    3    3    0    0  0.22846796851E+02 -0.36720280657E+02  0.21098663183E+02  0.48119733228E+02  0.00000000000E+00 0. -1.
         13    1    5    5    0    0  0.26239055457E+02  0.24066866148E+01  0.11502511518E+03  0.11800447997E+03  0.00000000000E+00 0. -1.
        -14    1    5    5    0    0  0.57341328526E+02 -0.12638997847E+03  0.12553219662E+04  0.12629709788E+04  0.00000000000E+00 0.  1.
          5    1    4    4  501    0 -0.63749607749E+02  0.11815003852E+03  0.56312636499E+03  0.57892332777E+03  0.41800000000E+01 0.  1.
         -5    1    4    4    0  501 -0.15705640316E+02  0.18345069387E+02  0.67860765459E+03  0.67905009386E+03  0.41800000000E+01 0.  1.
</event>
<event>
11    1  0.6455215E-009  0.1420584E+03  0.7561462E-02  0.1105281E+00
         22   -1    0    0    0    0  0.00000000000E+00  0.00000000000E+00  0.18768863265E+04  0.18768863265E+04  0.00000000000E+00 0. -1.
         22   -1    0    0    0    0 -0.00000000000E+00 -0.00000000000E+00 -0.19974840342E+03  0.19974840342E+03  0.00000000000E+00 0.  1.
        -24    2    1    2    0    0  0.31646364413E+02 -0.25576823826E+02 -0.17231506311E+03  0.19425864757E+03  0.79926684426E+02 0.  0.
         25    2    1    2    0    0 -0.91775287619E+02  0.44715093980E+02  0.43083262962E+03  0.46009215562E+03  0.12508354757E+03 0.  0.
         24    2    1    2    0    0  0.60128923206E+02 -0.19138270154E+02  0.14186203566E+04  0.14222839268E+04  0.80162905146E+02 0.  0.
        -13    1    5    5    0    0 -0.17389817247E+02 -0.10685392442E+02  0.16807420389E+03  0.16930895242E+03  0.00000000000E+00 0.  1.
         14    1    5    5    0    0  0.77518740453E+02 -0.84528777114E+01  0.12505461527E+04  0.12529749743E+04  0.00000000000E+00 0. -1.
         11    1    3    3    0    0  0.30266499354E+02  0.20034914131E+02 -0.38662324491E+02  0.53030501623E+02  0.00000000000E+00 0. -1.
        -12    1    3    3    0    0  0.13798650591E+01 -0.45611737957E+02 -0.13365273862E+03  0.14122814595E+03  0.00000000000E+00 0.  1.
          5    1    4    4  501    0 -0.58242550792E+02  0.30837161725E+01  0.54419103147E+02  0.79878753217E+02  0.41800000000E+01 0.  1.
         -5    1    4    4    0  501 -0.33532736827E+02  0.41631377807E+02  0.37641352647E+03  0.38021340241E+03  0.41800000000E+01 0.  1.
</event>
<event>
11    1  0.6455215E-009  0.1338548E+03  0.7561462E-02  0.1114621E+00
         22   -1    0    0    0    0  0.00000000000E+00  0.00000000000E+00  0.19540471146E+04  0.19540471146E+04  0.00000000000E+00 0.  1.
         22   -1    0    0    0    0 -0.00000000000E+00 -0.00000000000E+00 -0.54707469772E+03  0.54707469772E+03  0.00000000000E+00 0.  1.
         24    2    1    2    0    0  0.16028685695E+02  0.40519402832E+02 -0.52386763684E+03  0.53151049252E+03  0.78532553505E+02 0.  0.
         25    2    1    2    0    0  0.24510465074E+02 -0.64526680157E+02  0.26331405660E+03  0.29957695288E+03  0.12509037910E+03 0.  0.
        -24    2    1    2    0    0 -0.40539150769E+02  0.24007277325E+02  0.16675259972E+04  0.16700343670E+04  0.78435091062E+02 0.  0.
        -13    1    3    3    0    0  0.12423546406E+01  0.62932287355E+02 -0.37177413966E+03  0.37706501715E+03  0.00000000000E+00 0.  1.
         14    1    3    3    0    0  0.14786331054E+02 -0.22412884522E+02 -0.15209349718E+03  0.15444547537E+03  0.00000000000E+00 0. -1.
         11    1    5    5    0    0 -0.19992455909E+02 -0.15103775834E+01  0.91629306884E+02  0.93797171672E+02  0.00000000000E+00 0. -1.
        -12    1    5    5    0    0 -0.20546694861E+02  0.25517654908E+02  0.15758966903E+04  0.15762371953E+04  0.00000000000E+00 0.  1.
          5    1    4    4  501    0 -0.46194354950E+02 -0.52809148170E+02  0.11451669216E+03  0.13436617782E+03  0.41800000000E+01 0. -1.
         -5    1    4    4    0  501  0.70704820024E+02 -0.11717531987E+02  0.14879736444E+03  0.16521077506E+03  0.41800000000E+01 0. -1.
</event>
<event>
11    1  0.6455215E-009  0.1298832E+03  0.7561462E-02  0.1119413E+00
         22   -1    0    0    0    0  0.00000000000E+00  0.00000000000E+00  0.94785453962E+03  0.94785453962E+03  0.00000000000E+00 0. -1.
         22   -1    0    0    0    0 -0.00000000000E+00 -0.00000000000E+00 -0.36931648865E+03  0.36931648865E+03  0.00000000000E+00 0.  1.
        -24    2    1    2    0    0 -0.74122834318E+01 -0.34262122276E+02 -0.33018462539E+03  0.34198679636E+03  0.81879466705E+02 0.  0.
         25    2    1    2    0    0 -0.24036599235E+01  0.34035880158E+02  0.10392677588E+03  0.16616973834E+03  0.12508952185E+03 0.  0.
         24    2    1    2    0    0  0.98159433554E+01  0.22624211792E+00  0.80479590048E+03  0.80901449357E+03  0.81924388523E+02 0.  0.
        -13    1    5    5    0    0  0.13654765828E+02 -0.64439837838E+01  0.25175768921E+02  0.29356377460E+02  0.00000000000E+00 0.  1.
         14    1    5    5    0    0 -0.38388224728E+01  0.66702259017E+01  0.77962013156E+03  0.77965811611E+03  0.00000000000E+00 0. -1.
         11    1    3    3    0    0 -0.39767743101E+02 -0.38768156549E+02 -0.23001391360E+03  0.23662384454E+03  0.00000000000E+00 0. -1.
        -12    1    3    3    0    0  0.32355459669E+02  0.45060342725E+01 -0.10017071179E+03  0.10536295182E+03  0.00000000000E+00 0.  1.
          5    1    4    4  501    0 -0.11349309426E+02  0.92439194417E+01 -0.27838825317E+02  0.31729000396E+02  0.41800000000E+01 0. -1.
         -5    1    4    4    0  501  0.89456495022E+01  0.24791960717E+02  0.13176560119E+03  0.13444073794E+03  0.41800000000E+01 0. -1.
</event>
<event>
11    1  0.6455215E-009  0.1296622E+03  0.7561462E-02  0.1119685E+00
         22   -1    0    0    0    0  0.00000000000E+00  0.00000000000E+00  0.15121475288E+04  0.15121475288E+04  0.00000000000E+00 0. -1.
         22   -1    0    0    0    0 -0.00000000000E+00 -0.00000000000E+00 -0.58149732976E+02  0.58149732976E+02  0.00000000000E+00 0. -1.
        -24    2    1    2    0    0 -0.20456317314E+02 -0.28686239714E+02  0.23223746278E+02  0.91041875850E+02  0.80671677186E+02 0.  0.
         25    2    1    2    0    0  0.91073413771E+01 -0.59927635786E+01  0.15245415864E+03  0.19750768892E+03  0.12509260495E+03 0.  0.
         24    2    1    2    0    0  0.11348975937E+02  0.34679003292E+02  0.12783198909E+04  0.12817476970E+04  0.86278518610E+02 0.  0.
        -11    1    5    5    0    0 -0.28176204783E+02  0.14976044271E+02  0.20048720471E+03  0.20301059005E+03  0.00000000000E+00 0.  1.
         12    1    5    5    0    0  0.39525180721E+02  0.19702959021E+02  0.10778326862E+04  0.10787371069E+04  0.00000000000E+00 0. -1.
         13    1    3    3    0    0 -0.26452257053E+02 -0.54194711274E+02  0.82662265167E+01  0.60869689782E+02  0.00000000000E+00 0. -1.
        -14    1    3    3    0    0  0.59959397382E+01  0.25508471561E+02  0.14957519761E+02  0.30172186068E+02  0.00000000000E+00 0.  1.
          5    1    4    4  501    0 -0.57207333881E+02  0.47713590377E+01  0.80692504010E+02  0.99117089951E+02  0.41800000000E+01 0.  1.
         -5    1    4    4    0  501  0.66314675258E+02 -0.10764122616E+02  0.71761654634E+02  0.98390598972E+02  0.41800000000E+01 0.  1.
</event>
<event>
11    1  0.6455215E-009  0.1479588E+03  0.7561462E-02  0.1098983E+00
         22   -1    0    0    0    0  0.00000000000E+00  0.00000000000E+00  0.92797642882E+03  0.92797642882E+03  0.00000000000E+00 0.  1.
         22   -1    0    0    0    0 -0.00000000000E+00 -0.00000000000E+00 -0.10971974365E+04  0.10971974365E+04  0.00000000000E+00 0.  1.
        -24    2    1    2    0    0 -0.74613411755E+02 -0.30404055641E+02 -0.10405693561E+04  0.10465996461E+04  0.78068345600E+02 0.  0.
         25    2    1    2    0    0  0.42663652831E+02 -0.14162016452E+02  0.36187866189E+02  0.13775968161E+03  0.12508964080E+03 0.  0.
         24    2    1    2    0    0  0.31949758924E+02  0.44566072093E+02  0.83516048219E+03  0.84081453765E+03  0.80430925869E+02 0.  0.
        -11    1    5    5    0    0  0.27701691753E+02  0.67845048167E+02  0.59684165266E+03  0.60132378353E+03  0.00000000000E+00 0.  1.
         12    1    5    5    0    0  0.42480671712E+01 -0.23278976073E+02  0.23831882953E+03  0.23949075412E+03  0.00000000000E+00 0. -1.
         11    1    3    3    0    0 -0.12947110675E+02  0.44754035134E+01 -0.24551059826E+02  0.28114257059E+02  0.00000000000E+00 0. -1.
        -12    1    3    3    0    0 -0.61666301080E+02 -0.34879459155E+02 -0.10160182963E+04  0.10184853891E+04  0.00000000000E+00 0.  1.
          5    1    4    4  501    0  0.64843597789E+02 -0.46575731152E+02  0.51829788357E+02  0.95277438398E+02  0.41800000000E+01 0. -1.
         -5    1    4    4    0  501 -0.22179944958E+02  0.32413714700E+02 -0.15641922168E+02  0.42482243210E+02  0.41800000000E+01 0. -1.
</event>
<event>
11    1  0.6455215E-009  0.2263350E+03  0.7561462E-02  0.1037320E+00
         22   -1    0    0    0    0  0.00000000000E+00  0.00000000000E+00  0.33286219596E+03  0.33286219596E+03  0.00000000000E+00 0. -1.
         22   -1    0    0    0    0 -0.00000000000E+00 -0.00000000000E+00 -0.58487586522E+03  0.58487586522E+03  0.00000000000E+00 0.  1.
        -24    2    1    2    0    0 -0.52683068005E+02  0.17684553081E+03 -0.41260277863E+03  0.45888518448E+03  0.79276176601E+02 0.  0.
         25    2    1    2    0    0 -0.77227639002E+00 -0.21739862852E+03 -0.11761477647E+02  0.25109565085E+03  0.12509170008E+03 0.  0.
         24    2    1    2    0    0  0.53455344395E+02  0.40553097707E+02  0.17235058702E+03  0.20775722584E+03  0.94637796185E+02 0.  0.
        -13    1    5    5    0    0  0.63989475014E+02  0.11403145522E+02  0.51304936339E+02  0.82806286797E+02  0.00000000000E+00 0.  1.
         14    1    5    5    0    0 -0.10534130619E+02  0.29149952184E+02  0.12104565068E+03  0.12495093905E+03  0.00000000000E+00 0. -1.
         11    1    3    3    0    0 -0.28707262835E+02  0.16899454695E+02 -0.36136802335E+02  0.49148417995E+02  0.00000000000E+00 0. -1.
        -12    1    3    3    0    0 -0.23975805170E+02  0.15994607612E+03 -0.37646597630E+03  0.40973676648E+03  0.00000000000E+00 0.  1.
          5    1    4    4  501    0 -0.45959808059E+02 -0.97564487265E+02  0.36849346820E+02  0.11404595518E+03  0.41800000000E+01 0.  1.
         -5    1    4    4    0  501  0.45187531669E+02 -0.11983414125E+03 -0.48610824467E+02  0.13704969567E+03  0.41800000000E+01 0.  1.
</event>
<event>
11    1  0.6455215E-009  0.1295803E+03  0.7561462E-02  0.1119786E+00
         22   -1    0    0    0    0  0.00000000000E+00  0.00000000000E+00  0.12026468585E+04  0.12026468585E+04  0.00000000000E+00 0.  1.
         22   -1    0    0    0    0 -0.00000000000E+00 -0.00000000000E+00 -0.61392338113E+03  0.61392338113E+03  0.00000000000E+00 0.  1.
         24    2    1    2    0    0  0.48387729673E+02  0.35706892672E+02 -0.53903605330E+03  0.54844781411E+03  0.81355906252E+02 0.  0.
         25    2    1    2    0    0 -0.12842986795E+02 -0.31387694300E+02 -0.53002840370E+01  0.12971069525E+03  0.12508653719E+03 0.  0.
        -24    2    1    2    0    0 -0.35544742878E+02 -0.43191983722E+01  0.11330598147E+04  0.11384117303E+04  0.10428154058E+03 0.  0.
        -11    1    3    3    0    0  0.61675655052E+02  0.24240387319E+02 -0.51162700442E+03  0.51590083781E+03  0.00000000000E+00 0.  1.
         12    1    3    3    0    0 -0.13287925379E+02  0.11466505353E+02 -0.27409048879E+02  0.32546976301E+02  0.00000000000E+00 0. -1.
         11    1    5    5    0    0  0.34001830571E+02 -0.77283129990E+00  0.21073978054E+03  0.21346657081E+03  0.00000000000E+00 0. -1.
        -12    1    5    5    0    0 -0.69546573450E+02 -0.35463670723E+01  0.92232003419E+03  0.92494515949E+03  0.00000000000E+00 0.  1.
          5    1    4    4  501    0 -0.13033773373E+02 -0.54841662560E+01  0.58708783163E+02  0.60532214137E+02  0.41800000000E+01 0. -1.
         -5    1    4    4    0  501  0.19078657799E+00 -0.25903528044E+02 -0.64009067200E+02  0.69178481108E+02  0.41800000000E+01 0. -1.
</event>
<event>
11    1  0.6455215E-009  0.1362024E+03  0.7561462E-02  0.1111875E+00
         22   -1    0    0    0    0  0.00000000000E+00  0.00000000000E+00  0.51773190408E+03  0.51773190408E+03  0.00000000000E+00 0. -1.
         22   -1    0    0    0    0 -0.00000000000E+00 -0.00000000000E+00 -0.16477599204E+03  0.16477599204E+03  0.00000000000E+00 0.  1.
         24    2    1    2    0    0  0.24138332342E+02 -0.48901479932E+02 -0.11244717872E+03  0.14862063750E+03  0.80434520320E+02 0.  0.
         25    2    1    2    0    0 -0.11807818560E+02  0.48094969856E+02  0.12278391839E+03  0.18214087188E+03  0.12508739300E+03 0.  0.
        -24    2    1    2    0    0 -0.12330513783E+02  0.80651007607E+00  0.34261917238E+03  0.35174638675E+03  0.78644334092E+02 0.  0.
        -13    1    3    3    0    0  0.23757657014E+02 -0.67358167498E+02 -0.10824748571E+03  0.12968834627E+03  0.00000000000E+00 0.  1.
         14    1    3    3    0    0  0.38067532843E+00  0.18456687566E+02 -0.41996930092E+01  0.18932291223E+02  0.00000000000E+00 0. -1.
         11    1    5    5    0    0  0.13741612538E+01  0.15518910801E+02  0.32390147271E+03  0.32427594566E+03  0.00000000000E+00 0. -1.
        -12    1    5    5    0    0 -0.13704675036E+02 -0.14712400725E+02  0.18717699672E+02  0.27470441095E+02  0.00000000000E+00 0.  1.
          5    1    4    4  501    0  0.18073716962E+02  0.10524595600E+02  0.13146074277E+03  0.13317967430E+03  0.41800000000E+01 0. -1.
         -5    1    4    4    0  501 -0.29881535521E+02  0.37570374256E+02 -0.86768243805E+01  0.48961197577E+02  0.41800000000E+01 0. -1.
</event>
<event>
11    1  0.6455215E-009  0.4254510E+03  0.7561462E-02  0.9577511E-01
         22   -1    0    0    0    0  0.00000000000E+00  0.00000000000E+00  0.52357641206E+03  0.52357641206E+03  0.00000000000E+00 0.  1.
         22   -1    0    0    0    0 -0.00000000000E+00 -0.00000000000E+00 -0.10761276480E+04  0.10761276480E+04  0.00000000000E+00 0.  1.
        -24    2    1    2    0    0  0.14097530198E+03 -0.16684265814E+02 -0.60927682285E+03  0.63076659756E+03  0.80596856262E+02 0.  0.
         25    2    1    2    0    0  0.14873295408E+03 -0.30522530337E+03 -0.24392819918E+03  0.43638343930E+03  0.12508222215E+03 0.  0.
         24    2    1    2    0    0 -0.28970825607E+03  0.32190956918E+03  0.30065378609E+03  0.53255402320E+03  0.75262501776E+02 0.  0.
        -11    1    5    5    0    0 -0.24563937068E+03  0.30657401419E+03  0.27150714841E+03  0.47753791289E+03  0.00000000000E+00 0.  1.
         12    1    5    5    0    0 -0.44068885385E+02  0.15335554986E+02  0.29146637681E+02  0.55016110312E+02  0.00000000000E+00 0. -1.
         13    1    3    3    0    0  0.76109800694E+02 -0.18040919210E+02 -0.47772168671E+03  0.48408283018E+03  0.00000000000E+00 0. -1.
        -14    1    3    3    0    0  0.64865501291E+02  0.13566533961E+01 -0.13155513614E+03  0.14668376737E+03  0.00000000000E+00 0.  1.
          5    1    4    4  501    0  0.10988199617E+03 -0.10520592517E+03 -0.14354985628E+03  0.20920414291E+03  0.41800000000E+01 0.  1.
         -5    1    4    4    0  501  0.38850957908E+02 -0.20001937820E+03 -0.10037834290E+03  0.22717929639E+03  0.41800000000E+01 0.  1.
</event>
<event>
11    1  0.6455215E-009  0.1490090E+03  0.7561462E-02  0.1097896E+00
         22   -1    0    0    0    0  0.00000000000E+00  0.00000000000E+00  0.66807970359E+02  0.66807970359E+02  0.00000000000E+00 0. -1.
         22   -1    0    0    0    0 -0.00000000000E+00 -0.00000000000E+00 -0.15199482470E+04  0.15199482470E+04  0.00000000000E+00 0.  1.
        -24    2    1    2    0    0  0.89494446656E+02  0.23149246220E+02 -0.96950540380E+03  0.97702638034E+03  0.78068407894E+02 0.  0.
         25    2    1    2    0    0 -0.29270582537E+02 -0.63089769671E+02 -0.47615098316E+03  0.49719666890E+03  0.12509069816E+03 0.  0.
         24    2    1    2    0    0 -0.60223864119E+02  0.39940523451E+02 -0.74838896933E+01  0.11253316812E+03  0.85939200014E+02 0.  0.
        -11    1    5    5    0    0 -0.24481576880E+02 -0.25983015402E+02 -0.11303639258E+02  0.37446454523E+02  0.00000000000E+00 0.  1.
         12    1    5    5    0    0 -0.35742287240E+02  0.65923538853E+02  0.38197495651E+01  0.75086713596E+02  0.00000000000E+00 0. -1.
         11    1    3    3    0    0  0.76688968541E+02 -0.39579300380E+01 -0.43833416387E+03  0.44500977778E+03  0.00000000000E+00 0. -1.
        -12    1    3    3    0    0  0.12805478115E+02  0.27107176258E+02 -0.53117123993E+03  0.53201660256E+03  0.00000000000E+00 0.  1.
          5    1    4    4  501    0  0.14942693911E+02  0.18993028796E+02 -0.26753442819E+03  0.26865621509E+03  0.41800000000E+01 0.  1.
         -5    1    4    4    0  501 -0.44213276448E+02 -0.82082798467E+02 -0.20861655497E+03  0.22854045381E+03  0.41800000000E+01 0.  1.
</event>
<event>
11    1  0.6455215E-009  0.1547214E+03  0.7561462E-02  0.1092150E+00
         22   -1    0    0    0    0  0.00000000000E+00  0.00000000000E+00  0.21770231849E+03  0.21770231849E+03  0.00000000000E+00 0. -1.
         22   -1    0    0    0    0 -0.00000000000E+00 -0.00000000000E+00 -0.33770789775E+03  0.33770789775E+03  0.00000000000E+00 0. -1.
         24    2    1    2    0    0 -0.80604416904E+02 -0.17110864278E+02 -0.17881343189E+03  0.21297218485E+03  0.81197625564E+02 0.  0.
         25    2    1    2    0    0  0.11353821827E+03  0.49067534578E+02 -0.65796873465E+02  0.18781772555E+03  0.12509084505E+03 0.  0.
        -24    2    1    2    0    0 -0.32933801361E+02 -0.31956670300E+02  0.12460472610E+03  0.15462030584E+03  0.79216394535E+02 0.  0.
        -13    1    3    3    0    0 -0.76124722439E+02 -0.30225882080E+02 -0.84629533128E+02  0.11777408540E+03  0.00000000000E+00 0.  1.
         14    1    3    3    0    0 -0.44796944652E+01  0.13115017802E+02 -0.94183898758E+02  0.95198099455E+02  0.00000000000E+00 0. -1.
         11    1    5    5    0    0 -0.47722152394E+02 -0.37017527273E+02  0.50033617513E+02  0.78428719459E+02  0.00000000000E+00 0. -1.
        -12    1    5    5    0    0  0.14788351032E+02  0.50608569725E+01  0.74571108586E+02  0.76191586381E+02  0.00000000000E+00 0.  1.
          5    1    4    4  501    0  0.66180704783E+02  0.55662671743E+01  0.29489391239E+02  0.72787125314E+02  0.41800000000E+01 0.  1.
         -5    1    4    4    0  501  0.47357513482E+02  0.43501267404E+02 -0.95286264704E+02  0.11503060023E+03  0.41800000000E+01 0.  1.
</event>
<event>
11    1  0.6455215E-009  0.1436734E+03  0.7561462E-02  0.1103524E+00
         22   -1    0    0    0    0  0.00000000000E+00  0.00000000000E+00  0.20690641089E+04  0.20690641089E+04  0.00000000000E+00 0. -1.
         22   -1    0    0    0    0 -0.00000000000E+00 -0.00000000000E+00 -0.19694715228E+03  0.19694715228E+03  0.00000000000E+00 0.  1.
        -24    2    1    2    0    0  0.47528691640E+02 -0.18572785881E+02 -0.17097721818E+03  0.19542088558E+03  0.79700617793E+02 0.  0.
         25    2    1    2    0    0 -0.44903876312E+02 -0.54467417211E+02  0.41967682790E+03  0.44357116217E+03  0.12507469123E+03 0.  0.
         24    2    1    2    0    0 -0.26248153280E+01  0.73040203091E+02  0.16234173469E+04  0.16270192134E+04  0.79786450952E+02 0.  0.
        -13    1    5    5    0    0  0.15390895537E+02 -0.52276024474E+01  0.87082210972E+02  0.88586223311E+02  0.00000000000E+00 0.  1.
         14    1    5    5    0    0 -0.18015710865E+02  0.78267805539E+02  0.15363351359E+04  0.15384329901E+04  0.00000000000E+00 0. -1.
         13    1    3    3    0    0  0.23649798177E+02  0.13847921542E+02 -0.95101272652E+01  0.29008971120E+02  0.00000000000E+00 0. -1.
        -14    1    3    3    0    0  0.23878893464E+02 -0.32420707423E+02 -0.16146709092E+03  0.16641191446E+03  0.00000000000E+00 0.  1.
          5    1    4    4  501    0  0.11996327560E+02  0.61761230773E+01 -0.15350434513E+01  0.14208628702E+02  0.41800000000E+01 0. -1.
         -5    1    4    4    0  501 -0.56900203872E+02 -0.60643540288E+02  0.42121187135E+03  0.42936253347E+03  0.41800000000E+01 0. -1.
</event>
<event>
11    1  0.6455215E-009  0.1470048E+03  0.7561462E-02  0.1099979E+00
         22   -1    0    0    0    0  0.00000000000E+00  0.00000000000E+00  0.71460896888E+03  0.71460896888E+03  0.00000000000E+00 0. -1.
         22   -1    0    0    0    0 -0.00000000000E+00 -0.00000000000E+00 -0.22236684735E+03  0.22236684735E+03  0.00000000000E+00 0. -1.
         24    2    1    2    0    0  0.77949223991E+01 -0.33338405468E+01 -0.13752626577E+03  0.15925049873E+03  0.79845928264E+02 0.  0.
         25    2    1    2    0    0  0.61646197784E+02  0.37971639830E+02  0.66211380409E+01  0.14467611684E+03  0.12508093453E+03 0.  0.
        -24    2    1    2    0    0 -0.69441120183E+02 -0.34637799284E+02  0.62314724927E+03  0.63304920067E+03  0.80105866736E+02 0.  0.
        -13    1    3    3    0    0 -0.23133589471E+02 -0.16880232717E+02 -0.15345115340E+02  0.32489656557E+02  0.00000000000E+00 0.  1.
         14    1    3    3    0    0  0.30928511870E+02  0.13546392170E+02 -0.12218115043E+03  0.12676084217E+03  0.00000000000E+00 0. -1.
         11    1    5    5    0    0 -0.70906374532E+02 -0.55810674849E+02  0.49545516361E+03  0.50360536586E+03  0.00000000000E+00 0. -1.
        -12    1    5    5    0    0  0.14652543483E+01  0.21172875565E+02  0.12769208566E+03  0.12944383481E+03  0.00000000000E+00 0.  1.
          5    1    4    4  501    0  0.71674555571E+02  0.66414229993E+02  0.34184714541E+02  0.10360578637E+03  0.41800000000E+01 0.  1.
         -5    1    4    4    0  501 -0.10028357787E+02 -0.28442590162E+02 -0.27563576500E+02  0.41070330465E+02  0.41800000000E+01 0.  1.
</event>
<event>
11    1  0.6455215E-009  0.1584747E+03  0.7561462E-02  0.1088521E+00
         22   -1    0    0    0    0  0.00000000000E+00  0.00000000000E+00  0.36833450446E+03  0.36833450446E+03  0.00000000000E+00 0.  1.
         22   -1    0    0    0    0 -0.00000000000E+00 -0.00000000000E+00 -0.10077362615E+04  0.10077362615E+04  0.00000000000E+00 0.  1.
         24    2    1    2    0    0 -0.29546730044E+02 -0.96330069438E+02 -0.86457497544E+03  0.87405174414E+03  0.79524032446E+02 0.  0.
         25    2    1    2    0    0  0.89434014292E+01  0.69413254004E+02 -0.94222773587E+02  0.17153239482E+03  0.12508895695E+03 0.  0.
        -24    2    1    2    0    0  0.20603328615E+02  0.26916815435E+02  0.31939599200E+03  0.33048662698E+03  0.77837001483E+02 0.  0.
        -11    1    3    3    0    0 -0.30259225291E+02 -0.63181661547E+02 -0.28333490607E+03  0.29186677109E+03  0.00000000000E+00 0.  1.
         12    1    3    3    0    0  0.71249524735E+00 -0.33148407892E+02 -0.58124006938E+03  0.58218497305E+03  0.00000000000E+00 0. -1.
         11    1    5    5    0    0 -0.11775983856E+02 -0.10742668582E+02  0.14424611179E+02  0.21497630839E+02  0.00000000000E+00 0. -1.
        -12    1    5    5    0    0  0.32379312470E+02  0.37659484017E+02  0.30497138082E+03  0.30898899614E+03  0.00000000000E+00 0.  1.
          5    1    4    4  501    0 -0.17992491090E+02  0.70584734112E+02  0.49505761912E+00  0.72963360033E+02  0.41800000000E+01 0. -1.
         -5    1    4    4    0  501  0.26935892519E+02 -0.11714801084E+01 -0.94717831206E+02  0.98569034792E+02  0.41800000000E+01 0. -1.
</event>
<event>
11    1  0.6455215E-009  0.1545817E+03  0.7561462E-02  0.1092287E+00
         22   -1    0    0    0    0  0.00000000000E+00  0.00000000000E+00  0.11582908065E+04  0.11582908065E+04  0.00000000000E+00 0. -1.
         22   -1    0    0    0    0 -0.00000000000E+00 -0.00000000000E+00 -0.28672909157E+03  0.28672909157E+03  0.00000000000E+00 0.  1.
         24    2    1    2    0    0  0.72127716695E+02 -0.11179498068E+02 -0.23507924599E+03  0.25905797625E+03  0.80755151354E+02 0.  0.
         25    2    1    2    0    0 -0.52132509883E+02  0.99975842474E+02  0.16255073842E+03  0.23405869711E+03  0.12509102072E+03 0.  0.
        -24    2    1    2    0    0 -0.19995206812E+02 -0.88796344406E+02  0.94409022254E+03  0.95190322476E+03  0.80801002086E+02 0.  0.
        -13    1    3    3    0    0  0.55615872167E+02 -0.65514425623E+01 -0.23533671657E+03  0.24190786842E+03  0.00000000000E+00 0.  1.
         14    1    3    3    0    0  0.16511844528E+02 -0.46280555057E+01  0.25747058123E+00  0.17150107830E+02  0.00000000000E+00 0. -1.
         13    1    5    5    0    0 -0.89020024828E+01 -0.96276611288E+02  0.61613676475E+03  0.62367695516E+03  0.00000000000E+00 0. -1.
        -14    1    5    5    0    0 -0.11093204329E+02  0.74802668821E+01  0.32795345780E+03  0.32822626960E+03  0.00000000000E+00 0.  1.
          5    1    4    4  501    0 -0.54157388203E+02 -0.10483522166E+02  0.74104074272E+02  0.92476013959E+02  0.41800000000E+01 0. -1.
         -5    1    4    4    0  501  0.20248783203E+01  0.11045936464E+03  0.88446664146E+02  0.14158268315E+03  0.41800000000E+01 0. -1.
</event>
<event>
11    1  0.6455215E-009  0.1528316E+03  0.7561462E-02  0.1094020E+00
         22   -1    0    0    0    0  0.00000000000E+00  0.00000000000E+00  0.24057569598E+04  0.24057569598E+04  0.00000000000E+00 0. -1.
         22   -1    0    0    0    0 -0.00000000000E+00 -0.00000000000E+00 -0.15619342995E+03  0.15619342995E+03  0.00000000000E+00 0.  1.
        -24    2    1    2    0    0  0.22426986446E+02 -0.43754624984E+01 -0.12843372782E+03  0.15329664946E+03  0.80514134783E+02 0.  0.
         25    2    1    2    0    0 -0.10577886024E+03 -0.13718674329E+02  0.48724737732E+03  0.51423095954E+03  0.12508438650E+03 0.  0.
         24    2    1    2    0    0  0.83351873798E+02  0.18094136827E+02  0.18907498804E+04  0.18944227808E+04  0.81410254356E+02 0.  0.
        -13    1    5    5    0    0  0.13311794164E-01  0.32693596890E+02  0.61752688855E+03  0.61839172823E+03  0.00000000000E+00 0.  1.
         14    1    5    5    0    0  0.83338562004E+02 -0.14599460063E+02  0.12732229918E+04  0.12760310525E+04  0.00000000000E+00 0. -1.
         13    1    3    3    0    0  0.83743167331E+01  0.15845177831E+02  0.41908329049E+01  0.18405486185E+02  0.00000000000E+00 0. -1.
        -14    1    3    3    0    0  0.14052669713E+02 -0.20220640330E+02 -0.13262456073E+03  0.13489116328E+03  0.00000000000E+00 0.  1.
          5    1    4    4  501    0 -0.51598379793E+02 -0.68252789293E+02  0.29357862165E+03  0.30582137848E+03  0.41800000000E+01 0. -1.
         -5    1    4    4    0  501 -0.54180480451E+02  0.54534114964E+02  0.19366875567E+03  0.20840958107E+03  0.41800000000E+01 0. -1.
</event>
<event>
11    1  0.7002369E-009  0.1600926E+03  0.7561462E-02  0.1086990E+00
         22   -1    0    0    0    0  0.00000000000E+00  0.00000000000E+00  0.64658964766E+03  0.64658964766E+03  0.00000000000E+00 0. -1.
         22   -1    0    0    0    0 -0.00000000000E+00 -0.00000000000E+00 -0.17218021874E+04  0.17218021874E+04  0.00000000000E+00 0.  1.
        -24    2    1    2    0    0 -0.10078406079E+01  0.39631952202E+02 -0.15879287836E+04  0.15904356121E+04  0.79974416807E+02 0.  0.
         25    2    1    2    0    0  0.39227478190E+02  0.54812661368E+02 -0.85226007873E+02  0.16568485358E+03  0.12507907657E+03 0.  0.
         24    2    1    2    0    0 -0.38219637582E+02 -0.94444613570E+02  0.59794225170E+03  0.61227136933E+03  0.83431214827E+02 0.  0.
        -11    1    5    5    0    0  0.10515733445E+02  0.19353770252E+00  0.91707699675E+01  0.13954251270E+02  0.00000000000E+00 0.  1.
         12    1    5    5    0    0 -0.48735371026E+02 -0.94638151272E+02  0.58877148173E+03  0.59831711806E+03  0.00000000000E+00 0. -1.
         11    1    3    3    0    0  0.34595277283E+02  0.13450224944E+02 -0.40959964268E+03  0.41127801916E+03  0.00000000000E+00 0. -1.
        -12    1    3    3    0    0 -0.35603117891E+02  0.26181727257E+02 -0.11783291409E+04  0.11791575930E+04  0.00000000000E+00 0.  1.
          5    1    4    4  501    0  0.14409222749E+01  0.88926846266E+02 -0.67082525285E+02  0.11147913636E+03  0.41800000000E+01 0.  1.
         -5    1    4    4    0  501  0.37786555915E+02 -0.34114184898E+02 -0.18143482588E+02  0.54205717223E+02  0.41800000000E+01 0.  1.
</event>
<event>
11    1  0.2155119E-008  0.1676383E+03  0.7561462E-02  0.1080105E+00
         22   -1    0    0    0    0  0.00000000000E+00  0.00000000000E+00  0.97310579377E+03  0.97310579377E+03  0.00000000000E+00 0. -1.
         22   -1    0    0    0    0 -0.00000000000E+00 -0.00000000000E+00 -0.69772590171E+03  0.69772590171E+03  0.00000000000E+00 0. -1.
        -24    2    1    2    0    0 -0.67940712904E+02  0.61750972599E+02 -0.57564203764E+03  0.58856932351E+03  0.81369343129E+02 0.  0.
         25    2    1    2    0    0 -0.30873582764E+02 -0.15675672595E+01 -0.72758298484E+02  0.14797378240E+03  0.12508730910E+03 0.  0.
         24    2    1    2    0    0  0.98814295668E+02 -0.60183405339E+02  0.92378022818E+03  0.93428858957E+03  0.78351460182E+02 0.  0.
        -13    1    5    5    0    0  0.69960756922E+02 -0.20485451069E+02  0.30605396001E+03  0.31461593674E+03  0.00000000000E+00 0.  1.
         14    1    5    5    0    0  0.28853538745E+02 -0.39697954270E+02  0.61772626817E+03  0.61967265282E+03  0.00000000000E+00 0. -1.
         13    1    3    3    0    0 -0.74629123579E+02  0.56271558920E+02 -0.57129769756E+03  0.57889295527E+03  0.00000000000E+00 0. -1.
        -14    1    3    3    0    0  0.66884106759E+01  0.54794136788E+01 -0.43443400789E+01  0.96763682420E+01  0.00000000000E+00 0.  1.
          5    1    4    4  501    0 -0.20645642960E+00 -0.58589100133E+02 -0.13869497538E+02  0.60353629887E+02  0.41800000000E+01 0. -1.
         -5    1    4    4    0  501 -0.30667126335E+02  0.57021532873E+02 -0.58888800946E+02  0.87620152509E+02  0.41800000000E+01 0. -1.
</event>
<event>
11    1  0.6455215E-009  0.1396273E+03  0.7561462E-02  0.1107975E+00
         22   -1    0    0    0    0  0.00000000000E+00  0.00000000000E+00  0.33553611449E+03  0.33553611449E+03  0.00000000000E+00 0.  1.
         22   -1    0    0    0    0 -0.00000000000E+00 -0.00000000000E+00 -0.63727166564E+03  0.63727166564E+03  0.00000000000E+00 0. -1.
         24    2    1    2    0    0 -0.21965153453E+02  0.42640450293E+01 -0.32977578336E+03  0.34060601760E+03  0.82217649461E+02 0.  0.
         25    2    1    2    0    0  0.81775538875E+02  0.98392768578E+01 -0.27478434597E+03  0.31295617105E+03  0.12510426886E+03 0.  0.
        -24    2    1    2    0    0 -0.59810385422E+02 -0.14103321887E+02  0.30282457818E+03  0.31924559148E+03  0.80242361839E+02 0.  0.
        -13    1    3    3    0    0 -0.13573778280E+02  0.40175217122E+02 -0.23709609005E+03  0.24085857146E+03  0.00000000000E+00 0.  1.
         14    1    3    3    0    0 -0.83913751735E+01 -0.35911172092E+02 -0.92679693315E+02  0.99747446139E+02  0.00000000000E+00 0. -1.
         13    1    5    5    0    0 -0.25283770639E+02 -0.41479833917E+02  0.93862228699E+02  0.10568804878E+03  0.00000000000E+00 0. -1.
        -14    1    5    5    0    0 -0.34526614783E+02  0.27376512030E+02  0.20896234948E+03  0.21355754269E+03  0.00000000000E+00 0.  1.
          5    1    4    4  501    0  0.45782228192E+02 -0.48975467445E+02 -0.20078622471E+03  0.21172432374E+03  0.41800000000E+01 0.  1.
         -5    1    4    4    0  501  0.35993310683E+02  0.58814744302E+02 -0.73998121252E+02  0.10123184731E+03  0.41800000000E+01 0.  1.
</event>
<event>
11    1  0.6455215E-009  0.1395202E+03  0.7561462E-02  0.1108095E+00
         22   -1    0    0    0    0  0.00000000000E+00  0.00000000000E+00  0.39868454915E+03  0.39868454915E+03  0.00000000000E+00 0. -1.
         22   -1    0    0    0    0 -0.00000000000E+00 -0.00000000000E+00 -0.20185968203E+03  0.20185968203E+03  0.00000000000E+00 0. -1.
         24    2    1    2    0    0  0.15409875862E+02 -0.19418156100E+02 -0.13004547746E+03  0.15331210436E+03  0.77319118428E+02 0.  0.
         25    2    1    2    0    0 -0.70526009947E+02  0.39437242079E+02  0.57055744618E+02  0.15946439992E+03  0.12507726694E+03 0.  0.
        -24    2    1    2    0    0  0.55116134085E+02 -0.20019085979E+02  0.26981459996E+03  0.28776772690E+03  0.81066603833E+02 0.  0.
        -11    1    3    3    0    0 -0.67646740053E+01 -0.36668034865E+02 -0.25787868102E+02  0.45335634291E+02  0.00000000000E+00 0.  1.
         12    1    3    3    0    0  0.22174549867E+02  0.17249878765E+02 -0.10425760936E+03  0.10797647007E+03  0.00000000000E+00 0. -1.
         13    1    5    5    0    0  0.53421626022E+02  0.16418312036E+02  0.21332746415E+03  0.22052672867E+03  0.00000000000E+00 0. -1.
        -14    1    5    5    0    0  0.16945080633E+01 -0.36437398015E+02  0.56487135803E+02  0.67240998230E+02  0.00000000000E+00 0.  1.
          5    1    4    4  501    0 -0.84746193064E+02 -0.16900229592E+02  0.15466765345E+02  0.87887588596E+02  0.41800000000E+01 0.  1.
         -5    1    4    4    0  501  0.14220183117E+02  0.56337471671E+02  0.41588979274E+02  0.71576811323E+02  0.41800000000E+01 0.  1.
</event>
<event>
11    1  0.6455215E-009  0.1389822E+03  0.7561462E-02  0.1108700E+00
         22   -1    0    0    0    0  0.00000000000E+00  0.00000000000E+00  0.14609782764E+03  0.14609782764E+03  0.00000000000E+00 0.  1.
         22   -1    0    0    0    0 -0.00000000000E+00 -0.00000000000E+00 -0.57871144238E+03  0.57871144238E+03  0.00000000000E+00 0. -1.
         24    2    1    2    0    0 -0.26359744046E+02  0.51947962390E+02 -0.40984980885E+03  0.42183290747E+03  0.81072246197E+02 0.  0.
         25    2    1    2    0    0  0.50066026827E+01 -0.80960652579E+02 -0.10520374676E+03  0.18246417068E+03  0.12508258037E+03 0.  0.
        -24    2    1    2    0    0  0.21353141363E+02  0.29012690189E+02  0.82439940863E+02  0.12051219188E+03  0.80181991141E+02 0.  0.
        -13    1    3    3    0    0 -0.28521088931E+02 -0.11236786500E+02 -0.74235797761E+02  0.80316072824E+02  0.00000000000E+00 0.  1.
         14    1    3    3    0    0  0.21613448859E+01  0.63184748890E+02 -0.33561401109E+03  0.34151683464E+03  0.00000000000E+00 0. -1.
         11    1    5    5    0    0  0.11297035932E+02 -0.39978208915E+01 -0.13797424555E+02  0.18274969688E+02  0.00000000000E+00 0. -1.
        -12    1    5    5    0    0  0.10056105431E+02  0.33010511081E+02  0.96237365419E+02  0.10223722219E+03  0.00000000000E+00 0.  1.
          5    1    4    4  501    0  0.17637516506E+02 -0.10656928829E+03 -0.10881237122E+03  0.15338089753E+03  0.41800000000E+01 0. -1.
         -5    1    4    4    0  501 -0.12630913823E+02  0.25608635708E+02  0.36086244629E+01  0.29083273154E+02  0.41800000000E+01 0. -1.
</event>
<event>
11    1  0.6455215E-009  0.2511599E+03  0.7561462E-02  0.1023283E+00
         22   -1    0    0    0    0  0.00000000000E+00  0.00000000000E+00  0.17527537186E+04  0.17527537186E+04  0.00000000000E+00 0.  1.
         22   -1    0    0    0    0 -0.00000000000E+00 -0.00000000000E+00 -0.35628203370E+03  0.35628203370E+03  0.00000000000E+00 0.  1.
         24    2    1    2    0    0 -0.23326980077E+03  0.43283091385E+02 -0.23274295671E+03  0.34231741705E+03  0.81998196110E+02 0.  0.
         25    2    1    2    0    0  0.92473045758E+02 -0.18053342433E+03  0.17146038594E+03  0.29358099512E+03  0.12509018850E+03 0.  0.
        -24    2    1    2    0    0  0.14079675501E+03  0.13725033294E+03  0.14577542557E+04  0.14731373401E+04  0.80154680651E+02 0.  0.
        -11    1    3    3    0    0 -0.36450465356E+02  0.40957791059E+01 -0.86639933538E+02  0.94084482857E+02  0.00000000000E+00 0.  1.
         12    1    3    3    0    0 -0.19681933542E+03  0.39187312280E+02 -0.14610302317E+03  0.24823293419E+03  0.00000000000E+00 0. -1.
         13    1    5    5    0    0  0.75231971918E+01  0.51504674327E+02  0.28364503332E+03  0.28838140526E+03  0.00000000000E+00 0. -1.
        -14    1    5    5    0    0  0.13327355782E+03  0.85745658616E+02  0.11741092223E+04  0.11847559349E+04  0.00000000000E+00 0.  1.
          5    1    4    4  501    0  0.23762997638E+02 -0.81940780128E+02  0.14827606793E+03  0.17112053128E+03  0.41800000000E+01 0.  1.
         -5    1    4    4    0  501  0.68710048120E+02 -0.98592644201E+02  0.23184318013E+02  0.12246046384E+03  0.41800000000E+01 0.  1.
</event>
<event>
11    1  0.7128648E-009  0.1703606E+03  0.7561462E-02  0.1077718E+00
         22   -1    0    0    0    0  0.00000000000E+00  0.00000000000E+00  0.10013466146E+04  0.10013466146E+04  0.00000000000E+00 0. -1.
         22   -1    0    0    0    0 -0.00000000000E+00 -0.00000000000E+00 -0.50748866383E+03  0.50748866383E+03  0.00000000000E+00 0.  1.
        -24    2    1    2    0    0  0.72416206557E+02  0.73907387745E+02 -0.37409231071E+03  0.39549039210E+03  0.75902466243E+02 0.  0.
         25    2    1    2    0    0 -0.17275775885E+03 -0.12093101899E+03  0.12325262215E+02  0.24549483648E+03  0.12508496335E+03 0.  0.
         24    2    1    2    0    0  0.10034155229E+03  0.47023631243E+02  0.85562499929E+03  0.86785004987E+03  0.93754576621E+02 0.  0.
        -11    1    5    5    0    0  0.80242098157E-01  0.22254717548E+02  0.40527122734E+02  0.46235555248E+02  0.00000000000E+00 0.  1.
         12    1    5    5    0    0  0.10026131019E+03  0.24768913695E+02  0.81509787656E+03  0.82161449462E+03  0.00000000000E+00 0. -1.
         13    1    3    3    0    0  0.73823474805E+02  0.32808796913E+02 -0.30069622351E+03  0.31135918394E+03  0.00000000000E+00 0. -1.
        -14    1    3    3    0    0 -0.14072682482E+01  0.41098590832E+02 -0.73396087191E+02  0.84131208165E+02  0.00000000000E+00 0.  1.
          5    1    4    4  501    0 -0.66190101532E+02 -0.36040432412E+02  0.64751770349E+02  0.99450019973E+02  0.41800000000E+01 0.  1.
         -5    1    4    4    0  501 -0.10656765731E+03 -0.84890586577E+02 -0.52426508134E+02  0.14604481651E+03  0.41800000000E+01 0.  1.
</event>
<event>
11    1  0.6455215E-009  0.1454814E+03  0.7561462E-02  0.1101587E+00
         22   -1    0    0    0    0  0.00000000000E+00  0.00000000000E+00  0.62031934097E+03  0.62031934097E+03  0.00000000000E+00 0.  1.
         22   -1    0    0    0    0 -0.00000000000E+00 -0.00000000000E+00 -0.13524868537E+04  0.13524868537E+04  0.00000000000E+00 0. -1.
        -24    2    1    2    0    0  0.18706632233E+02  0.44481628384E+01 -0.12460551017E+04  0.12487458048E+04  0.79643230658E+02 0.  0.
         25    2    1    2    0    0 -0.86549750452E+02 -0.32281037515E+02 -0.39240584418E+02  0.16037246327E+03  0.12508628551E+03 0.  0.
         24    2    1    2    0    0  0.67843118219E+02  0.27832874676E+02  0.55312817339E+03  0.56368792663E+03  0.80099593190E+02 0.  0.
        -11    1    5    5    0    0  0.78668755525E+02  0.12733410964E+02  0.51655435913E+03  0.52266558983E+03  0.00000000000E+00 0.  1.
         12    1    5    5    0    0 -0.10825637306E+02  0.15099463712E+02  0.36573814257E+02  0.41022336803E+02  0.00000000000E+00 0. -1.
         13    1    3    3    0    0 -0.96819767579E+01 -0.18306956502E+02 -0.97952929153E+03  0.97974819127E+03  0.00000000000E+00 0. -1.
        -14    1    3    3    0    0  0.28388608991E+02  0.22755119341E+02 -0.26652581019E+03  0.26899761351E+03  0.00000000000E+00 0.  1.
          5    1    4    4  501    0 -0.73578249168E+02 -0.11135441110E+02  0.34739726199E+02  0.82231853777E+02  0.41800000000E+01 0.  1.
         -5    1    4    4    0  501 -0.12971501284E+02 -0.21145596405E+02 -0.73980310617E+02  0.78140609493E+02  0.41800000000E+01 0.  1.
</event>
<event>
11    1  0.6455215E-009  0.1429597E+03  0.7561462E-02  0.1104298E+00
         22   -1    0    0    0    0  0.00000000000E+00  0.00000000000E+00  0.13831791685E+04  0.13831791685E+04  0.00000000000E+00 0.  1.
         22   -1    0    0    0    0 -0.00000000000E+00 -0.00000000000E+00 -0.62872524127E+02  0.62872524127E+02  0.00000000000E+00 0. -1.
         24    2    1    2    0    0 -0.14681885921E+01 -0.28281474575E+02  0.56574714155E+01  0.84719459227E+02  0.79645353957E+02 0.  0.
         25    2    1    2    0    0 -0.54728219074E+02  0.65716785090E+02  0.25651733941E+03  0.29793023150E+03  0.12508958236E+03 0.  0.
        -24    2    1    2    0    0  0.56196407666E+02 -0.37435310514E+02  0.10581318335E+04  0.10634020019E+04  0.81371996320E+02 0.  0.
        -13    1    3    3    0    0  0.24008963834E+02  0.20543677250E+01  0.29803110034E+02  0.38325919934E+02  0.00000000000E+00 0.  1.
         14    1    3    3    0    0 -0.25477152426E+02 -0.30335842300E+02 -0.24145638618E+02  0.46393539293E+02  0.00000000000E+00 0. -1.
         11    1    5    5    0    0 -0.30113965341E+01  0.21751220189E+02  0.23518114790E+03  0.23620405673E+03  0.00000000000E+00 0. -1.
        -12    1    5    5    0    0  0.59207804200E+02 -0.59186530703E+02  0.82295068564E+03  0.82719794516E+03  0.00000000000E+00 0.  1.
          5    1    4    4  501    0 -0.26215646131E+02  0.68734747772E+02  0.25858845424E+03  0.26888136179E+03  0.41800000000E+01 0. -1.
         -5    1    4    4    0  501 -0.28512572943E+02 -0.30179626822E+01 -0.20711148255E+01  0.29048869706E+02  0.41800000000E+01 0. -1.
</event>
<event>
11    1  0.6455215E-009  0.1415445E+03  0.7561462E-02  0.1105846E+00
         22   -1    0    0    0    0  0.00000000000E+00  0.00000000000E+00  0.43751140763E+03  0.43751140763E+03  0.00000000000E+00 0.  1.
         22   -1    0    0    0    0 -0.00000000000E+00 -0.00000000000E+00 -0.12488793795E+04  0.12488793795E+04  0.00000000000E+00 0. -1.
        -24    2    1    2    0    0  0.19005939083E+02 -0.64160677115E+02 -0.12100291034E+04  0.12147361210E+04  0.83280216490E+02 0.  0.
         25    2    1    2    0    0  0.19306016256E+02  0.30322936807E+02  0.11953003845E+03  0.17671083294E+03  0.12508831130E+03 0.  0.
         24    2    1    2    0    0 -0.38311955339E+02  0.33837740307E+02  0.27913109314E+03  0.29494383311E+03  0.80404595260E+02 0.  0.
        -13    1    5    5    0    0 -0.21301722371E+02 -0.14371643841E+02  0.19360952847E+03  0.19530733994E+03  0.00000000000E+00 0.  1.
         14    1    5    5    0    0 -0.17010232969E+02  0.48209384149E+02  0.85521564673E+02  0.99636493163E+02  0.00000000000E+00 0. -1.
         11    1    3    3    0    0  0.41329372543E+02 -0.68788961127E+01 -0.64839496213E+03  0.64974723021E+03  0.00000000000E+00 0. -1.
        -12    1    3    3    0    0 -0.22323433459E+02 -0.57281781002E+02 -0.56163414128E+03  0.56498889083E+03  0.00000000000E+00 0.  1.
          5    1    4    4  501    0 -0.58754723071E+01 -0.47595372615E+02  0.42740912700E+02  0.64374674272E+02  0.41800000000E+01 0.  1.
         -5    1    4    4    0  501  0.25181488563E+02  0.77918309423E+02  0.76789125752E+02  0.11233615866E+03  0.41800000000E+01 0.  1.
</event>
<event>
11    1  0.6455215E-009  0.1304547E+03  0.7561462E-02  0.1118712E+00
         22   -1    0    0    0    0  0.00000000000E+00  0.00000000000E+00  0.13740801788E+03  0.13740801788E+03  0.00000000000E+00 0. -1.
         22   -1    0    0    0    0 -0.00000000000E+00 -0.00000000000E+00 -0.26990415829E+04  0.26990415829E+04  0.00000000000E+00 0. -1.
        -24    2    1    2    0    0 -0.60436739210E+01  0.11067865225E+02 -0.24099214298E+04  0.24114194567E+04  0.84044478764E+02 0.  0.
         25    2    1    2    0    0 -0.23744535507E+02 -0.32895438084E+02 -0.25566922431E+03  0.28750585721E+03  0.12508778061E+03 0.  0.
         24    2    1    2    0    0  0.29788209428E+02  0.21827572859E+02  0.10395708912E+03  0.13752428691E+03  0.82110125765E+02 0.  0.
        -11    1    5    5    0    0  0.72683704983E+00  0.49697592430E+02  0.54840879344E+02  0.74012843701E+02  0.00000000000E+00 0.  1.
         12    1    5    5    0    0  0.29061372378E+02 -0.27870019571E+02  0.49116209776E+02  0.63511443206E+02  0.00000000000E+00 0. -1.
         11    1    3    3    0    0 -0.39503178636E+02 -0.10564105692E+02 -0.15955963431E+04  0.15961202309E+04  0.00000000000E+00 0. -1.
        -12    1    3    3    0    0  0.33459504716E+02  0.21631970916E+02 -0.81432508676E+03  0.81529922577E+03  0.00000000000E+00 0.  1.
          5    1    4    4  501    0 -0.24003123721E+02  0.29443006406E+02 -0.18905590729E+02  0.42637241180E+02  0.41800000000E+01 0. -1.
         -5    1    4    4    0  501  0.25858821365E+00 -0.62338444490E+02 -0.23676363359E+03  0.24486861603E+03  0.41800000000E+01 0. -1.
</event>
<event>
11    1  0.6455215E-009  0.2394055E+03  0.7561462E-02  0.1029699E+00
         22   -1    0    0    0    0  0.00000000000E+00  0.00000000000E+00  0.86216336240E+02  0.86216336240E+02  0.00000000000E+00 0. -1.
         22   -1    0    0    0    0 -0.00000000000E+00 -0.00000000000E+00 -0.16023524068E+04  0.16023524068E+04  0.00000000000E+00 0.  1.
        -24    2    1    2    0    0 -0.19492985027E+03 -0.66729539858E+02 -0.11329524288E+04  0.11541281401E+04  0.77330976601E+02 0.  0.
         25    2    1    2    0    0  0.18375890718E+03  0.74560880884E+02 -0.37594446623E+03  0.44306714698E+03  0.12509034382E+03 0.  0.
         24    2    1    2    0    0  0.11170943094E+02 -0.78313410259E+01 -0.72391755577E+01  0.91373455942E+02  0.90058774787E+02 0.  0.
        -13    1    5    5    0    0  0.49778573884E+02  0.58352980727E+01 -0.32571492579E+01  0.50225154483E+02  0.00000000000E+00 0.  1.
         14    1    5    5    0    0 -0.38607630790E+02 -0.13666639099E+02 -0.39820262998E+01  0.41148301459E+02  0.00000000000E+00 0. -1.
         11    1    3    3    0    0 -0.14540494784E+02 -0.32613207520E+02 -0.15134026523E+03  0.15549573362E+03  0.00000000000E+00 0. -1.
        -12    1    3    3    0    0 -0.18038935549E+03 -0.34116332338E+02 -0.98161216353E+03  0.99863240649E+03  0.00000000000E+00 0.  1.
          5    1    4    4  501    0 -0.17078345666E+02  0.17654296326E+02 -0.52132317160E+02  0.57780575992E+02  0.41800000000E+01 0.  1.
         -5    1    4    4    0  501  0.20083725285E+03  0.56906584558E+02 -0.32381214907E+03  0.38528657099E+03  0.41800000000E+01 0.  1.
</event>
<event>
11    1  0.6455215E-009  0.1665783E+03  0.7561462E-02  0.1081048E+00
         22   -1    0    0    0    0  0.00000000000E+00  0.00000000000E+00  0.92945201284E+02  0.92945201284E+02  0.00000000000E+00 0. -1.
         22   -1    0    0    0    0 -0.00000000000E+00 -0.00000000000E+00 -0.95586827566E+03  0.95586827566E+03  0.00000000000E+00 0. -1.
        -24    2    1    2    0    0 -0.58013946070E+02 -0.58066260293E+02 -0.59456461506E+03  0.60729054396E+03  0.92506295900E+02 0.  0.
         25    2    1    2    0    0  0.23391418940E+02  0.15236471986E+03 -0.23492955786E+03  0.30757440930E+03  0.12509178135E+03 0.  0.
         24    2    1    2    0    0  0.34622527131E+02 -0.94298459571E+02 -0.33428901469E+02  0.13394852369E+03  0.82059714132E+02 0.  0.
        -11    1    5    5    0    0 -0.16395133083E+02 -0.46752984862E+02 -0.40310971466E+02  0.63871874897E+02  0.00000000000E+00 0.  1.
         12    1    5    5    0    0  0.51017660213E+02 -0.47545474709E+02  0.68820699970E+01  0.70076648795E+02  0.00000000000E+00 0. -1.
         13    1    3    3    0    0 -0.65431763782E+02 -0.77038281213E+02 -0.53124483402E+03  0.54077470924E+03  0.00000000000E+00 0. -1.
        -14    1    3    3    0    0  0.74178177122E+01  0.18972020920E+02 -0.63319781041E+02  0.66515834720E+02  0.00000000000E+00 0.  1.
          5    1    4    4  501    0  0.38202696811E+02  0.14259596412E+02 -0.84352183423E+01  0.41849820095E+02  0.41800000000E+01 0.  1.
         -5    1    4    4    0  501 -0.14811277872E+02  0.13810512345E+03 -0.22649433951E+03  0.26572458920E+03  0.41800000000E+01 0.  1.
</event>
<event>
11    1  0.6455215E-009  0.1364004E+03  0.7561462E-02  0.1111646E+00
         22   -1    0    0    0    0  0.00000000000E+00  0.00000000000E+00  0.78830840839E+03  0.78830840839E+03  0.00000000000E+00 0.  1.
         22   -1    0    0    0    0 -0.00000000000E+00 -0.00000000000E+00 -0.12589377627E+03  0.12589377627E+03  0.00000000000E+00 0. -1.
         24    2    1    2    0    0  0.52800550290E+02 -0.20465478109E+02 -0.48817526400E+02  0.11394991112E+03  0.85992426734E+02 0.  0.
         25    2    1    2    0    0 -0.50543582177E+02 -0.35307016321E+01  0.67822982597E+02  0.15104563862E+03  0.12509080072E+03 0.  0.
        -24    2    1    2    0    0 -0.22569681125E+01  0.23996179742E+02  0.64340917592E+03  0.64920663492E+03  0.83144311992E+02 0.  0.
        -11    1    3    3    0    0  0.74520355773E+02 -0.33413259453E+01 -0.41402538964E+02  0.85314817683E+02  0.00000000000E+00 0.  1.
         12    1    3    3    0    0 -0.21719805483E+02 -0.17124152164E+02 -0.74149874366E+01  0.28635093439E+02  0.00000000000E+00 0. -1.
         13    1    5    5    0    0 -0.35506411858E+01  0.30280413104E+02  0.77791143031E+02  0.83552213643E+02  0.00000000000E+00 0. -1.
        -14    1    5    5    0    0  0.12936730732E+01 -0.62842333625E+01  0.56561803289E+03  0.56565442128E+03  0.00000000000E+00 0.  1.
          5    1    4    4  501    0 -0.98314447030E+00  0.29944619923E+02  0.83722955422E+02  0.89020517297E+02  0.41800000000E+01 0. -1.
         -5    1    4    4    0  501 -0.49560437707E+02 -0.33475321555E+02 -0.15899972825E+02  0.62025121320E+02  0.41800000000E+01 0. -1.
</event>
<event>
11    1  0.6455215E-009  0.5342285E+03  0.7561462E-02  0.9320130E-01
         22   -1    0    0    0    0  0.00000000000E+00  0.00000000000E+00  0.93229212081E+03  0.93229212081E+03  0.00000000000E+00 0. -1.
         22   -1    0    0    0    0 -0.00000000000E+00 -0.00000000000E+00 -0.12215509366E+04  0.12215509366E+04  0.00000000000E+00 0. -1.
         24    2    1    2    0    0  0.50586977244E+03 -0.20526482837E+03 -0.80902932452E+03  0.97931812004E+03  0.80608038522E+02 0.  0.
         25    2    1    2    0    0 -0.39290436348E+03  0.25431415559E+03 -0.13536609178E+03  0.50301257211E+03  0.12509252702E+03 0.  0.
        -24    2    1    2    0    0 -0.11296540896E+03 -0.49049327223E+02  0.65513660053E+03  0.67151236524E+03  0.80980684108E+02 0.  0.
        -11    1    3    3    0    0  0.41311327253E+02  0.38863769306E+01 -0.47342532947E+02  0.62952721236E+02  0.00000000000E+00 0.  1.
         12    1    3    3    0    0  0.46455844519E+03 -0.20915120530E+03 -0.76168679157E+03  0.91636539881E+03  0.00000000000E+00 0. -1.
         11    1    5    5    0    0 -0.21207844021E+02 -0.42409357258E+02  0.33772726939E+03  0.34103963804E+03  0.00000000000E+00 0. -1.
        -12    1    5    5    0    0 -0.91757564940E+02 -0.66399699656E+01  0.31740933114E+03  0.33047272720E+03  0.00000000000E+00 0.  1.
          5    1    4    4  501    0 -0.29736787102E+03  0.20087845748E+03 -0.15637371321E+03  0.39147160303E+03  0.41800000000E+01 0.  1.
         -5    1    4    4    0  501 -0.95536492455E+02  0.53435698118E+02  0.21007621431E+02  0.11154096908E+03  0.41800000000E+01 0.  1.
</event>
<event>
11    1  0.6455215E-009  0.1333696E+03  0.7561462E-02  0.1115197E+00
         22   -1    0    0    0    0  0.00000000000E+00  0.00000000000E+00  0.20528449357E+03  0.20528449357E+03  0.00000000000E+00 0. -1.
         22   -1    0    0    0    0 -0.00000000000E+00 -0.00000000000E+00 -0.85228474860E+03  0.85228474860E+03  0.00000000000E+00 0.  1.
        -24    2    1    2    0    0 -0.61353330745E+01 -0.47029088723E+02 -0.75794206901E+03  0.76352764556E+03  0.79050035097E+02 0.  0.
         25    2    1    2    0    0 -0.31953855029E+02  0.26479496301E+02 -0.20844930961E+02  0.13343185917E+03  0.12508931737E+03 0.  0.
         24    2    1    2    0    0  0.38089188103E+02  0.20549592422E+02  0.13178674494E+03  0.16060973744E+03  0.80960914157E+02 0.  0.
        -11    1    5    5    0    0 -0.78585454791E+01 -0.25507154240E+02  0.40905674095E+02  0.48843073487E+02  0.00000000000E+00 0.  1.
         12    1    5    5    0    0  0.45947733582E+02  0.46056746661E+02  0.90881070843E+02  0.11176666396E+03  0.00000000000E+00 0. -1.
         13    1    3    3    0    0 -0.60490463719E+01 -0.35054621335E+02 -0.11283773118E+03  0.11831217611E+03  0.00000000000E+00 0. -1.
        -14    1    3    3    0    0 -0.86286702541E-01 -0.11974467387E+02 -0.64510433784E+03  0.64521546944E+03  0.00000000000E+00 0.  1.
          5    1    4    4  501    0 -0.19368763782E+02  0.43187329562E+02  0.44251009886E+02  0.64930106431E+02  0.41800000000E+01 0. -1.
         -5    1    4    4    0  501 -0.12585091246E+02 -0.16707833261E+02 -0.65095940847E+02  0.68501752742E+02  0.41800000000E+01 0. -1.
</event>
<event>
11    1  0.6455215E-009  0.1297603E+03  0.7561462E-02  0.1119564E+00
         22   -1    0    0    0    0  0.00000000000E+00  0.00000000000E+00  0.60766472908E+03  0.60766472908E+03  0.00000000000E+00 0.  1.
         22   -1    0    0    0    0 -0.00000000000E+00 -0.00000000000E+00 -0.24530601499E+03  0.24530601499E+03  0.00000000000E+00 0. -1.
        -24    2    1    2    0    0 -0.31338270731E+02  0.15327790218E+02 -0.20765198222E+03  0.22571396965E+03  0.81304501775E+02 0.  0.
         25    2    1    2    0    0  0.26323926749E+02 -0.87606277798E+01  0.13618321482E+03  0.18698492973E+03  0.12509115966E+03 0.  0.
         24    2    1    2    0    0  0.50143439820E+01 -0.65671624386E+01  0.43382748148E+03  0.44027184470E+03  0.74597200233E+02 0.  0.
        -13    1    5    5    0    0 -0.13625257111E+02 -0.31040146293E+02  0.33638320995E+03  0.33808697438E+03  0.00000000000E+00 0.  1.
         14    1    5    5    0    0  0.18639601093E+02  0.24472983854E+02  0.97444271529E+02  0.10218487032E+03  0.00000000000E+00 0. -1.
         13    1    3    3    0    0 -0.53839954601E+02  0.25264440154E+02 -0.17502521105E+03  0.18485361006E+03  0.00000000000E+00 0. -1.
        -14    1    3    3    0    0  0.22501683870E+02 -0.99366499353E+01 -0.32626771163E+02  0.40860359585E+02  0.00000000000E+00 0.  1.
          5    1    4    4  501    0 -0.40130042235E+02 -0.39823912243E+01  0.10644394361E+03  0.11390375438E+03  0.41800000000E+01 0.  1.
         -5    1    4    4    0  501  0.66453968984E+02 -0.47782365555E+01  0.29739271215E+02  0.73081175351E+02  0.41800000000E+01 0.  1.
</event>
<event>
11    1  0.6897215E-009  0.2085558E+03  0.7561462E-02  0.1048633E+00
         22   -1    0    0    0    0  0.00000000000E+00  0.00000000000E+00  0.22923188794E+04  0.22923188794E+04  0.00000000000E+00 0. -1.
         22   -1    0    0    0    0 -0.00000000000E+00 -0.00000000000E+00 -0.51043426753E+03  0.51043426753E+03  0.00000000000E+00 0. -1.
         24    2    1    2    0    0  0.17552260513E+03 -0.36634183764E+02 -0.44537954666E+03  0.48681564916E+03  0.80475383548E+02 0.  0.
         25    2    1    2    0    0 -0.82076988726E+02 -0.67901472384E+02  0.12234104662E+03  0.20484093678E+03  0.12508091646E+03 0.  0.
        -24    2    1    2    0    0 -0.93445616405E+02  0.10453565615E+03  0.21049231119E+04  0.21110965610E+04  0.79797219123E+02 0.  0.
        -13    1    3    3    0    0  0.10739925603E+02  0.19461539169E+02 -0.43234553569E+02  0.48614032245E+02  0.00000000000E+00 0.  1.
         14    1    3    3    0    0  0.16478267953E+03 -0.56095722933E+02 -0.40214499309E+03  0.43820161692E+03  0.00000000000E+00 0. -1.
         11    1    5    5    0    0 -0.46612357479E+02  0.59735083216E+02  0.16314165814E+04  0.16331751450E+04  0.00000000000E+00 0. -1.
        -12    1    5    5    0    0 -0.46833258925E+02  0.44800572932E+02  0.47350653044E+03  0.47792141598E+03  0.00000000000E+00 0.  1.
          5    1    4    4  501    0 -0.22526869606E+02 -0.93479367112E+02  0.53158078381E+02  0.10995046897E+03  0.41800000000E+01 0. -1.
         -5    1    4    4    0  501 -0.59550119121E+02  0.25577894728E+02  0.69182968243E+02  0.94890467809E+02  0.41800000000E+01 0. -1.
</event>
<event>
11    1  0.6455215E-009  0.1309629E+03  0.7561462E-02  0.1118092E+00
         22   -1    0    0    0    0  0.00000000000E+00  0.00000000000E+00  0.49872131903E+02  0.49872131903E+02  0.00000000000E+00 0.  1.
         22   -1    0    0    0    0 -0.00000000000E+00 -0.00000000000E+00 -0.18055108067E+04  0.18055108067E+04  0.00000000000E+00 0.  1.
         24    2    1    2    0    0 -0.29065152498E+02 -0.23895994091E+02 -0.15352107523E+04  0.15377373526E+04  0.79676281911E+02 0.  0.
         25    2    1    2    0    0  0.60184066958E+02  0.26500208556E+02 -0.15536022479E+03  0.21002222635E+03  0.12509257830E+03 0.  0.
        -24    2    1    2    0    0 -0.31118914459E+02 -0.26042144650E+01 -0.65067697710E+02  0.10762335968E+03  0.79836166579E+02 0.  0.
        -11    1    3    3    0    0  0.60721388220E+01 -0.37294225739E+02 -0.11669448801E+04  0.11675564583E+04  0.00000000000E+00 0.  1.
         12    1    3    3    0    0 -0.35137291320E+02  0.13398231648E+02 -0.36826587221E+03  0.37018089427E+03  0.00000000000E+00 0. -1.
         13    1    5    5    0    0 -0.33293714106E+02 -0.22284730622E+01 -0.83051764873E+02  0.89504374975E+02  0.00000000000E+00 0. -1.
        -14    1    5    5    0    0  0.21747996462E+01 -0.37574140280E+00  0.17984067163E+02  0.18118984708E+02  0.00000000000E+00 0.  1.
          5    1    4    4  501    0  0.35369768698E+02  0.56804013784E+02 -0.15687682177E+03  0.17060341769E+03  0.41800000000E+01 0.  1.
         -5    1    4    4    0  501  0.24814298259E+02 -0.30303805228E+02  0.15165969820E+01  0.39418808655E+02  0.41800000000E+01 0.  1.
</event>
<event>
11    1  0.6455215E-009  0.1507648E+03  0.7561462E-02  0.1096100E+00
         22   -1    0    0    0    0  0.00000000000E+00  0.00000000000E+00  0.30862050834E+03  0.30862050834E+03  0.00000000000E+00 0. -1.
         22   -1    0    0    0    0 -0.00000000000E+00 -0.00000000000E+00 -0.52088745142E+03  0.52088745142E+03  0.00000000000E+00 0.  1.
        -24    2    1    2    0    0 -0.68666379541E+02 -0.49195273661E+02 -0.46081942087E+03  0.47523519640E+03  0.79741498724E+02 0.  0.
         25    2    1    2    0    0  0.58791407691E+02  0.53040520516E+02  0.82093612737E+02  0.16928248441E+03  0.12508985507E+03 0.  0.
         24    2    1    2    0    0  0.98749718500E+01 -0.38452468551E+01  0.16645886506E+03  0.18499027895E+03  0.80003428398E+02 0.  0.
        -13    1    5    5    0    0  0.40305694509E+02 -0.11862081776E+02  0.55224763493E+02  0.69390435196E+02  0.00000000000E+00 0.  1.
         14    1    5    5    0    0 -0.30430722659E+02  0.80168349206E+01  0.11123410157E+03  0.11559984375E+03  0.00000000000E+00 0. -1.
         11    1    3    3    0    0 -0.27172205084E+02 -0.70755256830E+01 -0.32910323841E+02  0.43260619600E+02  0.00000000000E+00 0. -1.
        -12    1    3    3    0    0 -0.41494174457E+02 -0.42119747978E+02 -0.42790909703E+03  0.43197457680E+03  0.00000000000E+00 0.  1.
          5    1    4    4  501    0 -0.21347653106E+02  0.62914286348E+02  0.44821506424E+02  0.80251913111E+02  0.41800000000E+01 0.  1.
         -5    1    4    4    0  501  0.80139060797E+02 -0.98737658319E+01  0.37272106314E+02  0.89030571301E+02  0.41800000000E+01 0.  1.
</event>
<event>
11    1  0.6455215E-009  0.1304047E+03  0.7561462E-02  0.1118773E+00
         22   -1    0    0    0    0  0.00000000000E+00  0.00000000000E+00  0.35699944498E+03  0.35699944498E+03  0.00000000000E+00 0. -1.
         22   -1    0    0    0    0 -0.00000000000E+00 -0.00000000000E+00 -0.12260167527E+03  0.12260167527E+03  0.00000000000E+00 0.  1.
        -24    2    1    2    0    0 -0.19392848677E+01  0.33351814333E+02 -0.38308619192E+02  0.97306178918E+02  0.82974922755E+02 0.  0.
         25    2    1    2    0    0  0.45815798708E+01 -0.47604297447E+02  0.46065202016E+02  0.14162132780E+03  0.12508971836E+03 0.  0.
         24    2    1    2    0    0 -0.26422950030E+01  0.14252483113E+02  0.22664118689E+03  0.24067361354E+03  0.79670858278E+02 0.  0.
        -13    1    5    5    0    0 -0.23726249489E+02 -0.21353862894E+02  0.50543433672E+02  0.59779269506E+02  0.00000000000E+00 0.  1.
         14    1    5    5    0    0  0.21083954486E+02  0.35606346007E+02  0.17609775322E+03  0.18089434403E+03  0.00000000000E+00 0. -1.
         11    1    3    3    0    0 -0.36362739132E+02  0.14800735031E+01  0.53935254468E+00  0.36396844862E+02  0.00000000000E+00 0. -1.
        -12    1    3    3    0    0  0.34423454265E+02  0.31871740830E+02 -0.38847971737E+02  0.60909334056E+02  0.00000000000E+00 0.  1.
          5    1    4    4  501    0 -0.34714206633E+02  0.23100203200E+02  0.43760546182E+02  0.60590043177E+02  0.41800000000E+01 0.  1.
         -5    1    4    4    0  501  0.39295786504E+02 -0.70704500646E+02  0.23046558340E+01  0.81031284620E+02  0.41800000000E+01 0.  1.
</event>
<event>
11    1  0.6455215E-009  0.1309671E+03  0.7561462E-02  0.1118086E+00
         22   -1    0    0    0    0  0.00000000000E+00  0.00000000000E+00  0.12694532687E+03  0.12694532687E+03  0.00000000000E+00 0. -1.
         22   -1    0    0    0    0 -0.00000000000E+00 -0.00000000000E+00 -0.33133455345E+03  0.33133455345E+03  0.00000000000E+00 0.  1.
        -24    2    1    2    0    0  0.13886572949E+02 -0.14078248604E+02 -0.21462425049E+03  0.23097998738E+03  0.83049091984E+02 0.  0.
         25    2    1    2    0    0 -0.21862048796E+01  0.47913743216E+02 -0.17150683976E+02  0.13506609452E+03  0.12509275617E+03 0.  0.
         24    2    1    2    0    0 -0.11700368069E+02 -0.33835494611E+02  0.27385707886E+02  0.92233798416E+02  0.80469604605E+02 0.  0.
        -11    1    5    5    0    0 -0.44640048257E+02 -0.93573899574E+01  0.22643433668E+02  0.50921702087E+02  0.00000000000E+00 0.  1.
         12    1    5    5    0    0  0.32939680187E+02 -0.24478104654E+02  0.47422742179E+01  0.41312096329E+02  0.00000000000E+00 0. -1.
         13    1    3    3    0    0 -0.31066124836E+02 -0.14565245598E+02 -0.52336930008E+02  0.62581185146E+02  0.00000000000E+00 0. -1.
        -14    1    3    3    0    0  0.44952697785E+02  0.48699699372E+00 -0.16228732048E+03  0.16839880224E+03  0.00000000000E+00 0.  1.
          5    1    4    4  501    0  0.42724060405E+02  0.33976601574E+01  0.32998077417E+02  0.54251589334E+02  0.41800000000E+01 0.  1.
         -5    1    4    4    0  501 -0.44910265285E+02  0.44516083058E+02 -0.50148761393E+02  0.80814505183E+02  0.41800000000E+01 0.  1.
</event>
<event>
11    1  0.8189218E-009  0.1775745E+03  0.7561462E-02  0.1071622E+00
         22   -1    0    0    0    0  0.00000000000E+00  0.00000000000E+00  0.19249227158E+04  0.19249227158E+04  0.00000000000E+00 0. -1.
         22   -1    0    0    0    0 -0.00000000000E+00 -0.00000000000E+00 -0.54828844271E+03  0.54828844271E+03  0.00000000000E+00 0.  1.
        -24    2    1    2    0    0  0.25923813059E+02 -0.14254880535E+03 -0.42392060076E+03  0.45508207177E+03  0.79992564095E+02 0.  0.
         25    2    1    2    0    0 -0.98852013344E+02  0.26892713598E+02 -0.43337943729E+02  0.16739392715E+03  0.12509041087E+03 0.  0.
         24    2    1    2    0    0  0.72928200286E+02  0.11565609175E+03  0.18438928176E+04  0.18507351596E+04  0.81148347342E+02 0.  0.
        -13    1    5    5    0    0 -0.15019582012E+02  0.11995190861E+02  0.39857589071E+03  0.39903911224E+03  0.00000000000E+00 0.  1.
         14    1    5    5    0    0  0.87947782298E+02  0.10366090089E+03  0.14453169268E+04  0.14516960473E+04  0.00000000000E+00 0. -1.
         11    1    3    3    0    0  0.26425445297E+02 -0.86356736703E+02 -0.14705782772E+03  0.17257402709E+03  0.00000000000E+00 0. -1.
        -12    1    3    3    0    0 -0.50163223831E+00 -0.56192068642E+02 -0.27686277304E+03  0.28250804468E+03  0.00000000000E+00 0.  1.
          5    1    4    4  501    0 -0.11695131249E+02 -0.75344283790E+01 -0.68702958165E+02  0.70221880967E+02  0.41800000000E+01 0.  1.
         -5    1    4    4    0  501 -0.87156882095E+02  0.34427141977E+02  0.25365014435E+02  0.97172046179E+02  0.41800000000E+01 0.  1.
</event>
<event>
11    1  0.6455215E-009  0.1399293E+03  0.7561462E-02  0.1107637E+00
         22   -1    0    0    0    0  0.00000000000E+00  0.00000000000E+00  0.28857919002E+03  0.28857919002E+03  0.00000000000E+00 0. -1.
         22   -1    0    0    0    0 -0.00000000000E+00 -0.00000000000E+00 -0.10557233370E+03  0.10557233370E+03  0.00000000000E+00 0.  1.
         24    2    1    2    0    0 -0.60701932180E+02 -0.88419261418E+01  0.52528541348E+02  0.11415051200E+03  0.80673338253E+02 0.  0.
         25    2    1    2    0    0  0.64874294927E+02 -0.84078740223E+01  0.33979087472E+02  0.14519294598E+03  0.12508815567E+03 0.  0.
        -24    2    1    2    0    0 -0.41723627465E+01  0.17249800164E+02  0.96499227504E+02  0.13480806574E+03  0.92445386387E+02 0.  0.
        -13    1    3    3    0    0 -0.24110681001E+02  0.35803381827E+02  0.27865843075E+02  0.51378130550E+02  0.00000000000E+00 0.  1.
         14    1    3    3    0    0 -0.36591251179E+02 -0.44645307969E+02  0.24662698273E+02  0.62772381447E+02  0.00000000000E+00 0. -1.
         11    1    5    5    0    0  0.83787697522E+01  0.46562446034E+02  0.18959496602E+02  0.50967908282E+02  0.00000000000E+00 0. -1.
        -12    1    5    5    0    0 -0.12551132499E+02 -0.29312645870E+02  0.77539730903E+02  0.83840157463E+02  0.00000000000E+00 0.  1.
          5    1    4    4  501    0  0.47875098258E+02 -0.63561730125E+02  0.34285888189E+01  0.79758047813E+02  0.41800000000E+01 0.  1.
         -5    1    4    4    0  501  0.16999196669E+02  0.55153856103E+02  0.30550498653E+02  0.65434898169E+02  0.41800000000E+01 0.  1.
</event>
<event>
11    1  0.6455215E-009  0.1619639E+03  0.7561462E-02  0.1085245E+00
         22   -1    0    0    0    0  0.00000000000E+00  0.00000000000E+00  0.12104444136E+04  0.12104444136E+04  0.00000000000E+00 0.  1.
         22   -1    0    0    0    0 -0.00000000000E+00 -0.00000000000E+00 -0.47106659128E+03  0.47106659128E+03  0.00000000000E+00 0. -1.
         24    2    1    2    0    0  0.96922171712E+01  0.41427969333E+02 -0.44740542448E+03  0.45559761719E+03  0.74748640223E+02 0.  0.
         25    2    1    2    0    0 -0.38245017267E+02 -0.12820254614E+03  0.57453329347E+03  0.60302109514E+03  0.12508941482E+03 0.  0.
        -24    2    1    2    0    0  0.28552800095E+02  0.86774576802E+02  0.61224995337E+03  0.62289229259E+03  0.69279962427E+02 0.  0.
        -13    1    3    3    0    0  0.53457337668E+01  0.24989817517E+02 -0.37732664155E+02  0.45572160287E+02  0.00000000000E+00 0.  1.
         14    1    3    3    0    0  0.43464834044E+01  0.16438151816E+02 -0.40967276032E+03  0.41002545690E+03  0.00000000000E+00 0. -1.
         13    1    5    5    0    0 -0.13010941895E+02  0.24693498198E+02  0.67500680608E+02  0.73043790597E+02  0.00000000000E+00 0. -1.
        -14    1    5    5    0    0  0.41563741991E+02  0.62081078604E+02  0.54474927276E+03  0.54984850199E+03  0.00000000000E+00 0.  1.
          5    1    4    4  501    0 -0.67986200090E+02 -0.33530803401E+02  0.16519774950E+03  0.18180815993E+03  0.41800000000E+01 0.  1.
         -5    1    4    4    0  501  0.29741182823E+02 -0.94671742735E+02  0.40933554398E+03  0.42121293521E+03  0.41800000000E+01 0.  1.
</event>
<event>
11    1  0.6455215E-009  0.1781157E+03  0.7561462E-02  0.1071177E+00
         22   -1    0    0    0    0  0.00000000000E+00  0.00000000000E+00  0.23445768977E+03  0.23445768977E+03  0.00000000000E+00 0. -1.
         22   -1    0    0    0    0 -0.00000000000E+00 -0.00000000000E+00 -0.76528556170E+03  0.76528556170E+03  0.00000000000E+00 0.  1.
         24    2    1    2    0    0  0.67082195341E+01 -0.81836325794E+02 -0.10159625108E+03  0.15348731047E+03  0.80587665386E+02 0.  0.
         25    2    1    2    0    0  0.29879045185E+01  0.15427849813E+03 -0.60604868596E+03  0.63777259879E+03  0.12509234776E+03 0.  0.
        -24    2    1    2    0    0 -0.96961240526E+01 -0.72442172332E+02  0.17681706511E+03  0.20848334221E+03  0.82819963234E+02 0.  0.
        -13    1    3    3    0    0 -0.29600290891E+02 -0.58177680121E+02 -0.84791871024E+02  0.10700692070E+03  0.00000000000E+00 0.  1.
         14    1    3    3    0    0  0.36308510425E+02 -0.23658645673E+02 -0.16804380060E+02  0.46480389774E+02  0.00000000000E+00 0. -1.
         11    1    5    5    0    0  0.28999775865E+02 -0.18810235418E+02  0.10642473076E+03  0.11189743194E+03  0.00000000000E+00 0. -1.
        -12    1    5    5    0    0 -0.38695899917E+02 -0.53631936914E+02  0.70392334350E+02  0.96585910271E+02  0.00000000000E+00 0.  1.
          5    1    4    4  501    0 -0.60743036212E+01  0.42161826968E+02 -0.33743334823E+02  0.54503228003E+02  0.41800000000E+01 0. -1.
         -5    1    4    4    0  501  0.90622081397E+01  0.11211667116E+03 -0.57230535113E+03  0.58326937079E+03  0.41800000000E+01 0. -1.
</event>
<event>
11    1  0.6455215E-009  0.1829332E+03  0.7561462E-02  0.1067295E+00
         22   -1    0    0    0    0  0.00000000000E+00  0.00000000000E+00  0.29326279040E+03  0.29326279040E+03  0.00000000000E+00 0. -1.
         22   -1    0    0    0    0 -0.00000000000E+00 -0.00000000000E+00 -0.65295314780E+03  0.65295314780E+03  0.00000000000E+00 0. -1.
         24    2    1    2    0    0 -0.72775380151E+02 -0.48432863255E+02 -0.37456756477E+03  0.39466406732E+03  0.88413049100E+02 0.  0.
         25    2    1    2    0    0  0.18107604261E+03 -0.23729969791E+02 -0.19285390635E+03  0.29357091199E+03  0.12505841235E+03 0.  0.
        -24    2    1    2    0    0 -0.10830066246E+03  0.72162833046E+02  0.20773111372E+03  0.25798095889E+03  0.80408031809E+02 0.  0.
        -11    1    3    3    0    0 -0.20898094859E+02 -0.21828944817E+02 -0.22178958435E+02  0.37485189046E+02  0.00000000000E+00 0.  1.
         12    1    3    3    0    0 -0.51877285292E+02 -0.26603918439E+02 -0.35238860634E+03  0.35717887827E+03  0.00000000000E+00 0. -1.
         11    1    5    5    0    0 -0.48554075923E+02  0.69031480264E+02  0.77147527354E+02  0.11434414953E+03  0.00000000000E+00 0. -1.
        -12    1    5    5    0    0 -0.59746586537E+02  0.31313527829E+01  0.13058358637E+03  0.14363680935E+03  0.00000000000E+00 0.  1.
          5    1    4    4  501    0  0.44263456264E+02  0.36593619440E+02 -0.11903681897E+02  0.58800651245E+02  0.41800000000E+01 0.  1.
         -5    1    4    4    0  501  0.13681258635E+03 -0.60323589231E+02 -0.18095022445E+03  0.23477026074E+03  0.41800000000E+01 0.  1.
</event>
<event>
11    1  0.6455215E-009  0.1910597E+03  0.7561462E-02  0.1061032E+00
         22   -1    0    0    0    0  0.00000000000E+00  0.00000000000E+00  0.10928117422E+04  0.10928117422E+04  0.00000000000E+00 0.  1.
         22   -1    0    0    0    0 -0.00000000000E+00 -0.00000000000E+00 -0.25525848680E+03  0.25525848680E+03  0.00000000000E+00 0. -1.
         24    2    1    2    0    0  0.39827219559E+02 -0.14080367069E+03 -0.19291419917E+03  0.26481717752E+03  0.10723976953E+03 0.  0.
         25    2    1    2    0    0 -0.34907663867E+02  0.12203479377E+03  0.30580208721E+03  0.35393813388E+03  0.12508497185E+03 0.  0.
        -24    2    1    2    0    0 -0.49195556916E+01  0.18768876921E+02  0.72466536739E+03  0.72931491763E+03  0.79899196551E+02 0.  0.
        -13    1    3    3    0    0 -0.36880010337E+02 -0.55660440623E+02 -0.73924859041E+02  0.99614781017E+02  0.00000000000E+00 0.  1.
         14    1    3    3    0    0  0.76707229896E+02 -0.85143230070E+02 -0.11898934013E+03  0.16520239650E+03  0.00000000000E+00 0. -1.
         13    1    5    5    0    0  0.10215926430E+02 -0.71106293405E+01  0.17288535677E+02  0.21303043639E+02  0.00000000000E+00 0. -1.
        -14    1    5    5    0    0 -0.15135482121E+02  0.25879506262E+02  0.70737683172E+03  0.70801187399E+03  0.00000000000E+00 0.  1.
          5    1    4    4  501    0  0.94485736695E+01  0.11348529869E+03  0.13233647268E+03  0.17463849222E+03  0.41800000000E+01 0.  1.
         -5    1    4    4    0  501 -0.44356237537E+02  0.85494950843E+01  0.17346561453E+03  0.17929964166E+03  0.41800000000E+01 0.  1.
</event>
<event>
11    1  0.6455215E-009  0.1376863E+03  0.7561462E-02  0.1110170E+00
         22   -1    0    0    0    0  0.00000000000E+00  0.00000000000E+00  0.20521135008E+03  0.20521135008E+03  0.00000000000E+00 0. -1.
         22   -1    0    0    0    0 -0.00000000000E+00 -0.00000000000E+00 -0.11754389169E+04  0.11754389169E+04  0.00000000000E+00 0.  1.
        -24    2    1    2    0    0  0.51922378298E+02 -0.29509651182E+02 -0.10709633397E+04  0.10755127454E+04  0.78730158145E+02 0.  0.
         25    2    1    2    0    0 -0.87001059463E+01  0.14123307463E+02 -0.44396437451E+02  0.13376635825E+03  0.12508890951E+03 0.  0.
         24    2    1    2    0    0 -0.43222272351E+02  0.15386343719E+02  0.14513221029E+03  0.17137116330E+03  0.78738889677E+02 0.  0.
        -13    1    5    5    0    0 -0.27460447739E+02 -0.14433427673E+02  0.10768131458E+02  0.32838280702E+02  0.00000000000E+00 0.  1.
         14    1    5    5    0    0 -0.15761824613E+02  0.29819771392E+02  0.13436407883E+03  0.13853288260E+03  0.00000000000E+00 0. -1.
         13    1    3    3    0    0 -0.12000675823E+02  0.57347347153E+01 -0.44196295408E+02  0.46154262320E+02  0.00000000000E+00 0. -1.
        -14    1    3    3    0    0  0.63923054121E+02 -0.35244385897E+02 -0.10267670443E+04  0.10293584831E+04  0.00000000000E+00 0.  1.
          5    1    4    4  501    0  0.32406339366E+02 -0.23197576782E+02  0.23112053086E+02  0.46259461708E+02  0.41800000000E+01 0. -1.
         -5    1    4    4    0  501 -0.41106445312E+02  0.37320884245E+02 -0.67508490538E+02  0.87506896538E+02  0.41800000000E+01 0. -1.
</event>
<event>
11    1  0.6455215E-009  0.2683573E+03  0.7561462E-02  0.1014550E+00
         22   -1    0    0    0    0  0.00000000000E+00  0.00000000000E+00  0.33201172654E+04  0.33201172654E+04  0.00000000000E+00 0. -1.
         22   -1    0    0    0    0 -0.00000000000E+00 -0.00000000000E+00 -0.14472684151E+04  0.14472684151E+04  0.00000000000E+00 0.  1.
         24    2    1    2    0    0  0.15088822140E+02  0.23611311638E+03 -0.14039532991E+04  0.14260323586E+04  0.80661919639E+02 0.  0.
         25    2    1    2    0    0 -0.28447372894E+02 -0.30004174026E+03  0.82286064687E+03  0.88520132901E+03  0.12508976694E+03 0.  0.
        -24    2    1    2    0    0  0.13358550754E+02  0.63928623883E+02  0.24539415026E+04  0.24561519930E+04  0.81168926048E+02 0.  0.
        -11    1    3    3    0    0  0.16135388920E+02  0.17189526268E+03 -0.11956885523E+04  0.12080891714E+04  0.00000000000E+00 0.  1.
         12    1    3    3    0    0 -0.10465667795E+01  0.64217853696E+02 -0.20826474686E+03  0.21794318714E+03  0.00000000000E+00 0. -1.
         13    1    5    5    0    0  0.10237610196E+02  0.52077528521E+02  0.24085651883E+04  0.24091498800E+04  0.00000000000E+00 0. -1.
        -14    1    5    5    0    0  0.31209405584E+01  0.11851095362E+02  0.45376314237E+02  0.47002112984E+02  0.00000000000E+00 0.  1.
          5    1    4    4  501    0  0.25542991787E+02 -0.73989701162E+01  0.46182118146E+02  0.53455117853E+02  0.41800000000E+01 0. -1.
         -5    1    4    4    0  501 -0.53990364681E+02 -0.29264277015E+03  0.77667852872E+03  0.83174621116E+03  0.41800000000E+01 0. -1.
</event>
<event>
11    1  0.6455215E-009  0.1381211E+03  0.7561462E-02  0.1109675E+00
         22   -1    0    0    0    0  0.00000000000E+00  0.00000000000E+00  0.65683788617E+03  0.65683788617E+03  0.00000000000E+00 0. -1.
         22   -1    0    0    0    0 -0.00000000000E+00 -0.00000000000E+00 -0.54409761632E+03  0.54409761632E+03  0.00000000000E+00 0.  1.
        -24    2    1    2    0    0 -0.13374176621E+02  0.33928849406E+02 -0.25535883944E+03  0.27017058842E+03  0.80336632657E+02 0.  0.
         25    2    1    2    0    0  0.55142987756E+02  0.74099233648E+01 -0.26049692809E+03  0.29428153098E+03  0.12508922361E+03 0.  0.
         24    2    1    2    0    0 -0.41768811135E+02 -0.41338772770E+02  0.62859603739E+03  0.63648338309E+03  0.80774940502E+02 0.  0.
        -13    1    5    5    0    0 -0.38193056151E+02  0.11590733155E+02  0.16039411297E+03  0.16528558954E+03  0.00000000000E+00 0.  1.
         14    1    5    5    0    0 -0.35757549843E+01 -0.52929505925E+02  0.46820192442E+03  0.47119779355E+03  0.00000000000E+00 0. -1.
         13    1    3    3    0    0  0.93575586211E+01 -0.14991485811E+02 -0.13151536986E+02  0.22028878211E+02  0.00000000000E+00 0. -1.
        -14    1    3    3    0    0 -0.22731735242E+02  0.48920335216E+02 -0.24220730245E+03  0.24814171021E+03  0.00000000000E+00 0.  1.
          5    1    4    4  501    0  0.16965692845E+02  0.63036930771E+02 -0.16307121716E+03  0.17570197392E+03  0.41800000000E+01 0.  1.
         -5    1    4    4    0  501  0.38177294911E+02 -0.55627007406E+02 -0.97425710938E+02  0.11857955706E+03  0.41800000000E+01 0.  1.
</event>
<event>
11    1  0.6455215E-009  0.1601870E+03  0.7561462E-02  0.1086902E+00
         22   -1    0    0    0    0  0.00000000000E+00  0.00000000000E+00  0.11209571500E+04  0.11209571500E+04  0.00000000000E+00 0.  1.
         22   -1    0    0    0    0 -0.00000000000E+00 -0.00000000000E+00 -0.10957089617E+03  0.10957089617E+03  0.00000000000E+00 0.  1.
        -24    2    1    2    0    0  0.60805538876E+02  0.83313126829E+02 -0.46440574299E+02  0.13721530357E+03  0.77671886379E+02 0.  0.
         25    2    1    2    0    0 -0.75963417726E+02 -0.21299970340E+02  0.53847563654E+03  0.55841445092E+03  0.12508620339E+03 0.  0.
         24    2    1    2    0    0  0.15157878851E+02 -0.62013156489E+02  0.51935119157E+03  0.53489829166E+03  0.11097355257E+03 0.  0.
        -13    1    5    5    0    0 -0.30013801404E+02 -0.18732946491E+02  0.38582244902E+03  0.38744123907E+03  0.00000000000E+00 0.  1.
         14    1    5    5    0    0  0.45171680255E+02 -0.43280209998E+02  0.13352874254E+03  0.14745705259E+03  0.00000000000E+00 0. -1.
         13    1    3    3    0    0  0.13565105132E+02  0.50539656055E+02  0.13618700536E+02  0.54071599900E+02  0.00000000000E+00 0. -1.
        -14    1    3    3    0    0  0.47240433743E+02  0.32773470774E+02 -0.60059274835E+02  0.83143703674E+02  0.00000000000E+00 0.  1.
          5    1    4    4  501    0 -0.67104928304E+02  0.43027491535E+02  0.23993605232E+03  0.25286600807E+03  0.41800000000E+01 0. -1.
         -5    1    4    4    0  501 -0.88584894218E+01 -0.64327461876E+02  0.29853958422E+03  0.30554844285E+03  0.41800000000E+01 0. -1.
</event>
<event>
11    1  0.6455215E-009  0.1774655E+03  0.7561462E-02  0.1071712E+00
         22   -1    0    0    0    0  0.00000000000E+00  0.00000000000E+00  0.25468308080E+03  0.25468308080E+03  0.00000000000E+00 0. -1.
         22   -1    0    0    0    0 -0.00000000000E+00 -0.00000000000E+00 -0.13605974368E+04  0.13605974368E+04  0.00000000000E+00 0. -1.
         24    2    1    2    0    0 -0.30281814638E+02 -0.34143101871E+02 -0.11114426931E+04  0.11153266058E+04  0.81029857486E+02 0.  0.
         25    2    1    2    0    0  0.10628849802E+03  0.12824891630E+03 -0.17136670010E+03  0.26973875956E+03  0.12508966050E+03 0.  0.
        -24    2    1    2    0    0 -0.76006683384E+02 -0.94105814425E+02  0.17689503725E+03  0.23021515220E+03  0.84108512485E+02 0.  0.
        -13    1    3    3    0    0 -0.17910425259E+02  0.25941527216E+02 -0.34996041252E+03  0.35137734204E+03  0.00000000000E+00 0.  1.
         14    1    3    3    0    0 -0.12371389379E+02 -0.60084629086E+02 -0.76148228060E+03  0.76394926376E+03  0.00000000000E+00 0. -1.
         13    1    5    5    0    0 -0.64684010171E+02 -0.10204156316E+03  0.17927489875E+03  0.21618508530E+03  0.00000000000E+00 0. -1.
        -14    1    5    5    0    0 -0.11322673214E+02  0.79357487314E+01 -0.23798614995E+01  0.14030066906E+02  0.00000000000E+00 0.  1.
          5    1    4    4  501    0  0.64527674979E+02 -0.15760000094E+01 -0.24215675694E+02  0.69066460482E+02  0.41800000000E+01 0. -1.
         -5    1    4    4    0  501  0.41760823044E+02  0.12982491630E+03 -0.14715102440E+03  0.20067229908E+03  0.41800000000E+01 0. -1.
</event>
<event>
11    1  0.6455215E-009  0.1449943E+03  0.7561462E-02  0.1102106E+00
         22   -1    0    0    0    0  0.00000000000E+00  0.00000000000E+00  0.22127306012E+04  0.22127306012E+04  0.00000000000E+00 0.  1.
         22   -1    0    0    0    0 -0.00000000000E+00 -0.00000000000E+00 -0.64108579282E+02  0.64108579282E+02  0.00000000000E+00 0.  1.
        -24    2    1    2    0    0  0.14614843733E+02  0.20707585968E+02 -0.24461814959E+02  0.87552416104E+02  0.80153898225E+02 0.  0.
         25    2    1    2    0    0  0.42355607004E+02 -0.65612208644E+02  0.94199466095E+03  0.95346877078E+03  0.12509914561E+03 0.  0.
         24    2    1    2    0    0 -0.56970450738E+02  0.44904622676E+02  0.12310891760E+04  0.12358179936E+04  0.80021852080E+02 0.  0.
        -11    1    5    5    0    0 -0.75434691289E+02  0.46924788749E+02  0.96463777315E+03  0.96871996049E+03  0.00000000000E+00 0.  1.
         12    1    5    5    0    0  0.18464240552E+02 -0.20201660726E+01  0.26645140280E+03  0.26709803313E+03  0.00000000000E+00 0. -1.
         13    1    3    3    0    0  0.23350617151E+02  0.29607068727E+02  0.19080253055E+02  0.42259743215E+02  0.00000000000E+00 0. -1.
        -14    1    3    3    0    0 -0.87357734175E+01 -0.88994827588E+01 -0.43542068014E+02  0.45292672890E+02  0.00000000000E+00 0.  1.
          5    1    4    4  501    0  0.31881677217E+02  0.32498721673E+02  0.21577657187E+03  0.22056656506E+03  0.41800000000E+01 0.  1.
         -5    1    4    4    0  501  0.10473929787E+02 -0.98110930317E+02  0.72621808908E+03  0.73290220572E+03  0.41800000000E+01 0.  1.
</event>
<event>
11    1  0.6455215E-009  0.1446177E+03  0.7561462E-02  0.1102509E+00
         22   -1    0    0    0    0  0.00000000000E+00  0.00000000000E+00  0.18298094241E+03  0.18298094241E+03  0.00000000000E+00 0. -1.
         22   -1    0    0    0    0 -0.00000000000E+00 -0.00000000000E+00 -0.12018616669E+04  0.12018616669E+04  0.00000000000E+00 0.  1.
        -24    2    1    2    0    0  0.25150483299E+02  0.46850242519E+02 -0.69401197725E+03  0.70078949812E+03  0.81399042238E+02 0.  0.
         25    2    1    2    0    0 -0.45689709285E+02 -0.11455716338E+03 -0.47103196570E+03  0.50272221539E+03  0.12509044694E+03 0.  0.
         24    2    1    2    0    0  0.20539225986E+02  0.67706920860E+02  0.14616321845E+03  0.18133089580E+03  0.80691513852E+02 0.  0.
        -11    1    5    5    0    0 -0.17021416476E+02  0.61127536929E+02  0.60992966785E+02  0.88013898829E+02  0.00000000000E+00 0.  1.
         12    1    5    5    0    0  0.37560642462E+02  0.65793839315E+01  0.85170251668E+02  0.93316996975E+02  0.00000000000E+00 0. -1.
         13    1    3    3    0    0  0.32059225473E+02  0.26213657290E+02 -0.13171806093E+03  0.13807460789E+03  0.00000000000E+00 0. -1.
        -14    1    3    3    0    0 -0.69087421741E+01  0.20636585230E+02 -0.56229391631E+03  0.56271489023E+03  0.00000000000E+00 0.  1.
          5    1    4    4  501    0 -0.64945463565E+02 -0.19083581533E+02 -0.28191296000E+03  0.28995600655E+03  0.41800000000E+01 0.  1.
         -5    1    4    4    0  501  0.19255754280E+02 -0.95473581847E+02 -0.18911900571E+03  0.21276620884E+03  0.41800000000E+01 0.  1.
</event>
<event>
11    1  0.6455215E-009  0.1467864E+03  0.7561462E-02  0.1100208E+00
         22   -1    0    0    0    0  0.00000000000E+00  0.00000000000E+00  0.61975152631E+03  0.61975152631E+03  0.00000000000E+00 0. -1.
         22   -1    0    0    0    0 -0.00000000000E+00 -0.00000000000E+00 -0.75532547278E+03  0.75532547278E+03  0.00000000000E+00 0.  1.
        -24    2    1    2    0    0  0.42455301193E+01 -0.77208248807E+02 -0.71602417002E+03  0.72487328936E+03  0.82289339325E+02 0.  0.
         25    2    1    2    0    0  0.27393619554E+02  0.58947460625E+02  0.13211072406E+03  0.19320045216E+03  0.12509179748E+03 0.  0.
         24    2    1    2    0    0 -0.31639149674E+02  0.18260788181E+02  0.44833949950E+03  0.45700325757E+03  0.80679479673E+02 0.  0.
        -13    1    5    5    0    0  0.22574701739E+01  0.24945106453E+02  0.39933568458E+02  0.47138565924E+02  0.00000000000E+00 0.  1.
         14    1    5    5    0    0 -0.33896619848E+02 -0.66843182720E+01  0.40840593104E+03  0.40986469164E+03  0.00000000000E+00 0. -1.
         11    1    3    3    0    0  0.19518572889E+02 -0.76068448936E+02 -0.35758699257E+03  0.36610905597E+03  0.00000000000E+00 0. -1.
        -12    1    3    3    0    0 -0.15273042770E+02 -0.11397998704E+01 -0.35843717745E+03  0.35876423339E+03  0.00000000000E+00 0.  1.
          5    1    4    4  501    0  0.46914737048E+02  0.80725110645E+02  0.13425084635E+03  0.16357963867E+03  0.41800000000E+01 0.  1.
         -5    1    4    4    0  501 -0.19521117493E+02 -0.21777650019E+02 -0.21401222915E+01  0.29620813493E+02  0.41800000000E+01 0.  1.
</event>
<event>
11    1  0.6455215E-009  0.1311189E+03  0.7561462E-02  0.1117902E+00
         22   -1    0    0    0    0  0.00000000000E+00  0.00000000000E+00  0.28608983749E+04  0.28608983749E+04  0.00000000000E+00 0.  1.
         22   -1    0    0    0    0 -0.00000000000E+00 -0.00000000000E+00 -0.34285131480E+02  0.34285131480E+02  0.00000000000E+00 0. -1.
         24    2    1    2    0    0 -0.37914132036E+01  0.27710129055E+02  0.35101210031E+02  0.93145753563E+02  0.81619914205E+02 0.  0.
         25    2    1    2    0    0 -0.14272415425E+02  0.13717896624E+02  0.97327836301E+03  0.98148384291E+03  0.12509148433E+03 0.  0.
        -24    2    1    2    0    0  0.18063828628E+02 -0.41428025680E+02  0.18182336704E+04  0.18205539099E+04  0.80001722341E+02 0.  0.
        -11    1    3    3    0    0 -0.42013975054E+02  0.19600721354E+02  0.25494695809E+02  0.52908807318E+02  0.00000000000E+00 0.  1.
         12    1    3    3    0    0  0.38222561850E+02  0.81094077016E+01  0.96065142222E+01  0.40236946246E+02  0.00000000000E+00 0. -1.
         13    1    5    5    0    0  0.16285028146E+02 -0.30558087829E+01  0.71377057430E+02  0.73274991890E+02  0.00000000000E+00 0. -1.
        -14    1    5    5    0    0  0.17788004825E+01 -0.38372216897E+02  0.17468566130E+04  0.17472789180E+04  0.00000000000E+00 0.  1.
          5    1    4    4  501    0 -0.22372984717E+02  0.24850773560E+02  0.96349522631E+03  0.96408435051E+03  0.41800000000E+01 0.  1.
         -5    1    4    4    0  501  0.81005692927E+01 -0.11132876936E+02  0.97831367051E+01  0.17399492393E+02  0.41800000000E+01 0.  1.
</event>
<event>
11    1  0.6455215E-009  0.1339246E+03  0.7561462E-02  0.1114539E+00
         22   -1    0    0    0    0  0.00000000000E+00  0.00000000000E+00  0.13293754159E+04  0.13293754159E+04  0.00000000000E+00 0.  1.
         22   -1    0    0    0    0 -0.00000000000E+00 -0.00000000000E+00 -0.16964244013E+04  0.16964244013E+04  0.00000000000E+00 0. -1.
        -24    2    1    2    0    0 -0.42843267524E+02  0.85790791213E+01 -0.16328987619E+04  0.16354206648E+04  0.79581644044E+02 0.  0.
         25    2    1    2    0    0  0.11618373262E+02 -0.45562141973E+02  0.13280994955E+02  0.13429953518E+03  0.12509630268E+03 0.  0.
         24    2    1    2    0    0  0.31224894262E+02  0.36983062852E+02  0.12525687815E+04  0.12560796173E+04  0.80403430641E+02 0.  0.
        -13    1    5    5    0    0 -0.42499495692E+01  0.49426594088E+02  0.93099792376E+03  0.93231871392E+03  0.00000000000E+00 0.  1.
         14    1    5    5    0    0  0.35474843831E+02 -0.12443531236E+02  0.32157085776E+03  0.32376090341E+03  0.00000000000E+00 0. -1.
         13    1    3    3    0    0 -0.48938451716E+02  0.32911740930E+02 -0.13852215009E+04  0.13864763833E+04  0.00000000000E+00 0. -1.
        -14    1    3    3    0    0  0.60951841920E+01 -0.24332661808E+02 -0.24767726095E+03  0.24894428150E+03  0.00000000000E+00 0.  1.
          5    1    4    4  501    0  0.46013968366E+02 -0.67664885853E+02 -0.16456572325E+02  0.83571007143E+02  0.41800000000E+01 0. -1.
         -5    1    4    4    0  501 -0.34395595103E+02  0.22102743879E+02  0.29737567280E+02  0.50728528042E+02  0.41800000000E+01 0. -1.
</event>
<event>
11    1  0.6455215E-009  0.1439349E+03  0.7561462E-02  0.1103242E+00
         22   -1    0    0    0    0  0.00000000000E+00  0.00000000000E+00  0.97413274642E+03  0.97413274642E+03  0.00000000000E+00 0.  1.
         22   -1    0    0    0    0 -0.00000000000E+00 -0.00000000000E+00 -0.30726190012E+03  0.30726190012E+03  0.00000000000E+00 0.  1.
        -24    2    1    2    0    0  0.59517773436E+02 -0.17703173826E+02 -0.25805341236E+03  0.27679689336E+03  0.78544183898E+02 0.  0.
         25    2    1    2    0    0  0.15459089563E+02  0.11862711199E+01  0.73385341251E+02  0.14586332117E+03  0.12510119689E+03 0.  0.
         24    2    1    2    0    0 -0.74976862999E+02  0.16516902706E+02  0.85153891741E+03  0.85873443202E+03  0.80074707642E+02 0.  0.
        -13    1    5    5    0    0 -0.64753135057E+02 -0.15867392319E+02  0.36695983923E+03  0.37296684336E+03  0.00000000000E+00 0.  1.
         14    1    5    5    0    0 -0.10223727942E+02  0.32384295025E+02  0.48457907818E+03  0.48576758865E+03  0.00000000000E+00 0. -1.
         13    1    3    3    0    0  0.60674292307E+02 -0.69570139064E+01 -0.92202461616E+02  0.11059413962E+03  0.00000000000E+00 0. -1.
        -14    1    3    3    0    0 -0.11565188716E+01 -0.10746159920E+02 -0.16585095074E+03  0.16620275374E+03  0.00000000000E+00 0.  1.
          5    1    4    4  501    0  0.18289478655E+02 -0.14936272387E+02  0.10624355132E+03  0.10891630667E+03  0.41800000000E+01 0.  1.
         -5    1    4    4    0  501 -0.28303890920E+01  0.16122543507E+02 -0.32858210067E+02  0.36947014499E+02  0.41800000000E+01 0.  1.
</event>
<event>
11    1  0.6455215E-009  0.1432926E+03  0.7561462E-02  0.1103936E+00
         22   -1    0    0    0    0  0.00000000000E+00  0.00000000000E+00  0.67952521485E+03  0.67952521485E+03  0.00000000000E+00 0. -1.
         22   -1    0    0    0    0 -0.00000000000E+00 -0.00000000000E+00 -0.75068385348E+03  0.75068385348E+03  0.00000000000E+00 0.  1.
        -24    2    1    2    0    0  0.87916964177E+01  0.40520899775E+02 -0.42507000360E+03  0.43468953433E+03  0.80939768057E+02 0.  0.
         25    2    1    2    0    0  0.52165321576E+02 -0.74378648261E+02 -0.29761634676E+03  0.33537559455E+03  0.12509154835E+03 0.  0.
         24    2    1    2    0    0 -0.60957017994E+02  0.33857748487E+02  0.65152771173E+03  0.66014393945E+03  0.80246847136E+02 0.  0.
        -11    1    5    5    0    0 -0.72191032255E+02  0.30727063773E+02  0.36306931952E+03  0.37144990021E+03  0.00000000000E+00 0.  1.
         12    1    5    5    0    0  0.11234014261E+02  0.31306847138E+01  0.28845839221E+03  0.28869403925E+03  0.00000000000E+00 0. -1.
         13    1    3    3    0    0  0.34932252197E+02  0.51433850249E+02 -0.27142677624E+03  0.27845681542E+03  0.00000000000E+00 0. -1.
        -14    1    3    3    0    0 -0.26140555779E+02 -0.10912950474E+02 -0.15364322736E+03  0.15623271891E+03  0.00000000000E+00 0.  1.
          5    1    4    4  501    0  0.36013271166E+02  0.30236874960E+02 -0.11403429001E+03  0.12342007942E+03  0.41800000000E+01 0.  1.
         -5    1    4    4    0  501  0.16152050411E+02 -0.10461552322E+03 -0.18358205676E+03  0.21195551513E+03  0.41800000000E+01 0.  1.
</event>
<event>
11    1  0.6455215E-009  0.1386385E+03  0.7561462E-02  0.1109088E+00
         22   -1    0    0    0    0  0.00000000000E+00  0.00000000000E+00  0.50143154888E+03  0.50143154888E+03  0.00000000000E+00 0.  1.
         22   -1    0    0    0    0 -0.00000000000E+00 -0.00000000000E+00 -0.36207278619E+03  0.36207278619E+03  0.00000000000E+00 0.  1.
         24    2    1    2    0    0 -0.21714314844E+02  0.39935616201E+01 -0.23743127205E+03  0.25151169699E+03  0.79981652705E+02 0.  0.
         25    2    1    2    0    0  0.24799612781E+02 -0.63457230348E+02 -0.67261126306E+02  0.15752195597E+03  0.12508903479E+03 0.  0.
        -24    2    1    2    0    0 -0.30852979369E+01  0.59463668728E+02  0.44405116104E+03  0.45447068211E+03  0.76267426254E+02 0.  0.
        -13    1    3    3    0    0 -0.25644176797E+02  0.16454414826E+02 -0.23645433859E+03  0.23840936603E+03  0.00000000000E+00 0.  1.
         14    1    3    3    0    0  0.39298619533E+01 -0.12460853206E+02 -0.97693346045E+00  0.13102330959E+02  0.00000000000E+00 0. -1.
         11    1    5    5    0    0  0.29897678753E+02  0.45505649964E+02  0.18159431375E+03  0.18958146048E+03  0.00000000000E+00 0. -1.
        -12    1    5    5    0    0 -0.32982976690E+02  0.13958018764E+02  0.26245684730E+03  0.26488922162E+03  0.00000000000E+00 0.  1.
          5    1    4    4  501    0  0.55289412099E+02 -0.60873469236E+01 -0.73332629489E+02  0.92136430529E+02  0.41800000000E+01 0.  1.
         -5    1    4    4    0  501 -0.30489799318E+02 -0.57369883425E+02  0.60715031827E+01  0.65385525443E+02  0.41800000000E+01 0.  1.
</event>
<event>
11    1  0.6455215E-009  0.1699572E+03  0.7561462E-02  0.1078069E+00
         22   -1    0    0    0    0  0.00000000000E+00  0.00000000000E+00  0.15178930820E+04  0.15178930820E+04  0.00000000000E+00 0. -1.
         22   -1    0    0    0    0 -0.00000000000E+00 -0.00000000000E+00 -0.17175689057E+03  0.17175689057E+03  0.00000000000E+00 0.  1.
        -24    2    1    2    0    0 -0.59456400820E+02  0.11163136790E+03 -0.20678338228E+02  0.15093833150E+03  0.79738073382E+02 0.  0.
         25    2    1    2    0    0 -0.40598627228E+02 -0.11640220353E+03  0.10239420806E+02  0.17592723094E+03  0.12509126000E+03 0.  0.
         24    2    1    2    0    0  0.10005502805E+03  0.47708356348E+01  0.13565751088E+04  0.13627844101E+04  0.82774108493E+02 0.  0.
        -13    1    5    5    0    0  0.82728313406E+01  0.26008220850E+02  0.14457471424E+03  0.14712822737E+03  0.00000000000E+00 0.  1.
         14    1    5    5    0    0  0.91782196707E+02 -0.21237385215E+02  0.12120003946E+04  0.12156561827E+04  0.00000000000E+00 0. -1.
         11    1    3    3    0    0 -0.18427093159E+02 -0.75239868276E+00  0.17430808031E+02  0.25376306561E+02  0.00000000000E+00 0. -1.
        -12    1    3    3    0    0 -0.41029307661E+02  0.11238376658E+03 -0.38109146259E+02  0.12556202494E+03  0.00000000000E+00 0.  1.
          5    1    4    4  501    0  0.30439128075E+02 -0.41425092907E+02  0.43360015735E+02  0.67380577356E+02  0.41800000000E+01 0. -1.
         -5    1    4    4    0  501 -0.71037755302E+02 -0.74977110625E+02 -0.33120594930E+02  0.10854665359E+03  0.41800000000E+01 0. -1.
</event>
<event>
11    1  0.6455215E-009  0.1285758E+03  0.7561462E-02  0.1121031E+00
         22   -1    0    0    0    0  0.00000000000E+00  0.00000000000E+00  0.45459943823E+04  0.45459943823E+04  0.00000000000E+00 0.  1.
         22   -1    0    0    0    0 -0.00000000000E+00 -0.00000000000E+00 -0.36078334521E+02  0.36078334521E+02  0.00000000000E+00 0. -1.
         24    2    1    2    0    0  0.72214987459E+00  0.29394938504E+02  0.20054930649E+02  0.85598906008E+02  0.77848497457E+02 0.  0.
         25    2    1    2    0    0 -0.10073346248E+02 -0.39484206889E+02  0.15822551891E+04  0.15877151378E+04  0.12508956978E+03 0.  0.
        -24    2    1    2    0    0  0.93511963732E+01  0.10089268385E+02  0.29076059281E+04  0.29087586731E+04  0.80718937695E+02 0.  0.
        -11    1    3    3    0    0 -0.35848410847E+02  0.76884640029E+00  0.15053428560E+02  0.38888370967E+02  0.00000000000E+00 0.  1.
         12    1    3    3    0    0  0.36570560722E+02  0.28626092104E+02  0.50015020896E+01  0.46710535041E+02  0.00000000000E+00 0. -1.
         13    1    5    5    0    0 -0.19076863848E+02 -0.23791739440E+02  0.64498174028E+03  0.64570226800E+03  0.00000000000E+00 0. -1.
        -14    1    5    5    0    0  0.28428060221E+02  0.33881007825E+02  0.22626241878E+04  0.22630564051E+04  0.00000000000E+00 0.  1.
          5    1    4    4  501    0  0.21774841486E+02 -0.75324871482E+02  0.75800863696E+03  0.76206466004E+03  0.41800000000E+01 0. -1.
         -5    1    4    4    0  501 -0.31848187734E+02  0.35840664593E+02  0.82424655209E+03  0.82565047771E+03  0.41800000000E+01 0. -1.
</event>
<event>
11    1  0.6455215E-009  0.1625943E+03  0.7561462E-02  0.1084662E+00
         22   -1    0    0    0    0  0.00000000000E+00  0.00000000000E+00  0.12138534862E+04  0.12138534862E+04  0.00000000000E+00 0. -1.
         22   -1    0    0    0    0 -0.00000000000E+00 -0.00000000000E+00 -0.29032871630E+04  0.29032871630E+04  0.00000000000E+00 0. -1.
         24    2    1    2    0    0 -0.73890975152E+02 -0.70084720126E+02 -0.26206512205E+04  0.26240712271E+04  0.86978394553E+02 0.  0.
         25    2    1    2    0    0  0.74088925385E+02  0.13169948184E+03 -0.24445369799E+03  0.31343077249E+03  0.12508923336E+03 0.  0.
        -24    2    1    2    0    0 -0.19795023294E+00 -0.61614761713E+02  0.11756712417E+04  0.11796386497E+04  0.74485281818E+02 0.  0.
        -11    1    3    3    0    0  0.15238116743E+02  0.57048353210E+01 -0.41560874710E+03  0.41592712825E+03  0.00000000000E+00 0.  1.
         12    1    3    3    0    0 -0.89129091895E+02 -0.75789555447E+02 -0.22050424734E+04  0.22081440988E+04  0.00000000000E+00 0. -1.
         13    1    5    5    0    0 -0.41249835735E+01 -0.60116842297E+02  0.11732333281E+04  0.11747797634E+04  0.00000000000E+00 0. -1.
        -14    1    5    5    0    0  0.39270333405E+01 -0.14979194163E+01  0.24379135653E+01  0.48588862908E+01  0.00000000000E+00 0.  1.
          5    1    4    4  501    0  0.22685869663E+02  0.13975699035E+03 -0.19868910243E+03  0.24401126379E+03  0.41800000000E+01 0. -1.
         -5    1    4    4    0  501  0.51403055721E+02 -0.80575085125E+01 -0.45764595564E+02  0.69419508699E+02  0.41800000000E+01 0. -1.
</event>
<event>
11    1  0.6455215E-009  0.1913249E+03  0.7561462E-02  0.1060834E+00
         22   -1    0    0    0    0  0.00000000000E+00  0.00000000000E+00  0.68376569146E+03  0.68376569146E+03  0.00000000000E+00 0. -1.
         22   -1    0    0    0    0 -0.00000000000E+00 -0.00000000000E+00 -0.25217144102E+03  0.25217144102E+03  0.00000000000E+00 0. -1.
         24    2    1    2    0    0  0.98787959175E+02 -0.10678775285E+03 -0.15695675139E+03  0.22842200260E+03  0.79865539685E+02 0.  0.
         25    2    1    2    0    0 -0.63645939432E+02  0.13218466746E+03  0.11286157240E+03  0.22341075036E+03  0.12510410439E+03 0.  0.
        -24    2    1    2    0    0 -0.35142019743E+02 -0.25396914610E+02  0.47568942943E+03  0.48410437952E+03  0.78718817171E+02 0.  0.
        -11    1    3    3    0    0 -0.13932985294E+02 -0.91419046799E+01 -0.12896116488E+02  0.21071599865E+02  0.00000000000E+00 0.  1.
         12    1    3    3    0    0  0.11272094447E+03 -0.97645848172E+02 -0.14406063490E+03  0.20735040274E+03  0.00000000000E+00 0. -1.
         11    1    5    5    0    0 -0.50259466238E+02 -0.43368663939E+02  0.35255324985E+03  0.35874872674E+03  0.00000000000E+00 0. -1.
        -12    1    5    5    0    0  0.15117446495E+02  0.17971749328E+02  0.12313617959E+03  0.12535565279E+03  0.00000000000E+00 0.  1.
          5    1    4    4  501    0  0.16396039624E+02  0.36163339298E+01  0.60792929910E+02  0.63207283706E+02  0.41800000000E+01 0.  1.
         -5    1    4    4    0  501 -0.80041979056E+02  0.12856833353E+03  0.52068642486E+02  0.16020346666E+03  0.41800000000E+01 0.  1.
</event>
<event>
11    1  0.6455215E-009  0.1334392E+03  0.7561462E-02  0.1115114E+00
         22   -1    0    0    0    0  0.00000000000E+00  0.00000000000E+00  0.31655712526E+03  0.31655712526E+03  0.00000000000E+00 0. -1.
         22   -1    0    0    0    0 -0.00000000000E+00 -0.00000000000E+00 -0.30319572396E+03  0.30319572396E+03  0.00000000000E+00 0. -1.
        -24    2    1    2    0    0 -0.46914509882E+02 -0.10438974263E+02 -0.24907204921E+03  0.26603774612E+03  0.80182624303E+02 0.  0.
         25    2    1    2    0    0  0.28437587405E+02 -0.33549232330E+02  0.98471499692E+02  0.16516353474E+03  0.12509240421E+03 0.  0.
         24    2    1    2    0    0  0.18476922478E+02  0.43988206593E+02  0.16396195081E+03  0.18855156836E+03  0.79948818824E+02 0.  0.
        -11    1    5    5    0    0  0.30140119987E+02  0.63312430776E+02  0.11605438342E+03  0.13559318063E+03  0.00000000000E+00 0.  1.
         12    1    5    5    0    0 -0.11663197510E+02 -0.19324224183E+02  0.47907567398E+02  0.52958387725E+02  0.00000000000E+00 0. -1.
         13    1    3    3    0    0 -0.83582581155E+01 -0.40877288725E+02 -0.83680124014E+02  0.93504953705E+02  0.00000000000E+00 0. -1.
        -14    1    3    3    0    0 -0.38556251767E+02  0.30438314462E+02 -0.16539192520E+03  0.17253279241E+03  0.00000000000E+00 0.  1.
          5    1    4    4  501    0 -0.43460351048E+02 -0.40813094597E+02  0.51315541631E+02  0.78773523577E+02  0.41800000000E+01 0. -1.
         -5    1    4    4    0  501  0.71897938453E+02  0.72638622670E+01  0.47155958061E+02  0.86390011167E+02  0.41800000000E+01 0. -1.
</event>
<event>
11    1  0.6455215E-009  0.1319878E+03  0.7561462E-02  0.1116850E+00
         22   -1    0    0    0    0  0.00000000000E+00  0.00000000000E+00  0.48862445872E+03  0.48862445872E+03  0.00000000000E+00 0.  1.
         22   -1    0    0    0    0 -0.00000000000E+00 -0.00000000000E+00 -0.42643278864E+03  0.42643278864E+03  0.00000000000E+00 0. -1.
         24    2    1    2    0    0 -0.10797999488E+02 -0.14296053515E+02 -0.38322178135E+03  0.39183295090E+03  0.79706673339E+02 0.  0.
         25    2    1    2    0    0  0.28309391762E+02 -0.25352312680E+02  0.96021767722E+02  0.16221019668E+03  0.12509119317E+03 0.  0.
        -24    2    1    2    0    0 -0.17511392274E+02  0.39648366195E+02  0.34939168370E+03  0.36101409978E+03  0.79862317772E+02 0.  0.
        -11    1    3    3    0    0 -0.29055612488E+02  0.23606754244E+02 -0.13606991080E+03  0.14112592989E+03  0.00000000000E+00 0.  1.
         12    1    3    3    0    0  0.18257613000E+02 -0.37902807759E+02 -0.24715187055E+03  0.25070702101E+03  0.00000000000E+00 0. -1.
         13    1    5    5    0    0 -0.38870136428E+02  0.52490688524E+02  0.23284358113E+03  0.24183112530E+03  0.00000000000E+00 0. -1.
        -14    1    5    5    0    0  0.21358744154E+02 -0.12842322329E+02  0.11654810256E+03  0.11918297448E+03  0.00000000000E+00 0.  1.
          5    1    4    4  501    0 -0.37198971338E+02 -0.19179285832E+02  0.85714666201E+02  0.95478190575E+02  0.41800000000E+01 0. -1.
         -5    1    4    4    0  501  0.65508363100E+02 -0.61730268484E+01  0.10307101521E+02  0.66732006102E+02  0.41800000000E+01 0. -1.
</event>
<event>
11    1  0.6455215E-009  0.1261494E+03  0.7561462E-02  0.1124093E+00
         22   -1    0    0    0    0  0.00000000000E+00  0.00000000000E+00  0.76271707844E+03  0.76271707844E+03  0.00000000000E+00 0. -1.
         22   -1    0    0    0    0 -0.00000000000E+00 -0.00000000000E+00 -0.16592172825E+03  0.16592172825E+03  0.00000000000E+00 0. -1.
         24    2    1    2    0    0  0.60289056041E+01  0.45267311973E+02 -0.40342043079E+02  0.10083698166E+03  0.80343880881E+02 0.  0.
         25    2    1    2    0    0  0.83693331731E+01 -0.35319307369E+02 -0.44864372011E+02  0.13776527310E+03  0.12509580083E+03 0.  0.
        -24    2    1    2    0    0 -0.14398238777E+02 -0.99480046044E+01  0.68200176528E+03  0.69003655192E+03  0.10352662975E+03 0.  0.
        -13    1    3    3    0    0 -0.17194618430E+02 -0.15854684194E+02 -0.23849151027E+02  0.33403711149E+02  0.00000000000E+00 0.  1.
         14    1    3    3    0    0  0.23223524034E+02  0.61121996167E+02 -0.16492892053E+02  0.67433270514E+02  0.00000000000E+00 0. -1.
         13    1    5    5    0    0 -0.11062321145E+02  0.29399037173E+02  0.57701084428E+03  0.57786520292E+03  0.00000000000E+00 0. -1.
        -14    1    5    5    0    0 -0.33359176327E+01 -0.39347041777E+02  0.10499092100E+03  0.11217134900E+03  0.00000000000E+00 0.  1.
          5    1    4    4  501    0 -0.40129651723E+02  0.27367545282E+02 -0.51748408381E+01  0.49026756571E+02  0.41800000000E+01 0.  1.
         -5    1    4    4    0  501  0.48498984896E+02 -0.62686852651E+02 -0.39689531173E+02  0.88738516530E+02  0.41800000000E+01 0.  1.
</event>
<event>
11    1  0.6455215E-009  0.1455297E+03  0.7561462E-02  0.1101536E+00
         22   -1    0    0    0    0  0.00000000000E+00  0.00000000000E+00  0.79241271701E+03  0.79241271701E+03  0.00000000000E+00 0.  1.
         22   -1    0    0    0    0 -0.00000000000E+00 -0.00000000000E+00 -0.11156591179E+04  0.11156591179E+04  0.00000000000E+00 0.  1.
         24    2    1    2    0    0  0.13324777812E+02  0.72600429897E+02 -0.10642457187E+04  0.10701230269E+04  0.84237585109E+02 0.  0.
         25    2    1    2    0    0 -0.87363202284E+01 -0.10159382405E+03  0.96608426386E+02  0.18809122558E+03  0.12508993849E+03 0.  0.
        -24    2    1    2    0    0 -0.45884575835E+01  0.28993394157E+02  0.64439089141E+03  0.64985758247E+03  0.78826300867E+02 0.  0.
        -11    1    3    3    0    0  0.23449222439E+02  0.85540179682E+02 -0.71336441008E+03  0.71885726674E+03  0.00000000000E+00 0.  1.
         12    1    3    3    0    0 -0.10124444627E+02 -0.12939749785E+02 -0.35088130864E+03  0.35126576015E+03  0.00000000000E+00 0. -1.
         13    1    5    5    0    0 -0.26845214822E+02 -0.15491853015E+02  0.16440704871E+03  0.16730314024E+03  0.00000000000E+00 0. -1.
        -14    1    5    5    0    0  0.22256757238E+02  0.44485247172E+02  0.47998384271E+03  0.48255444223E+03  0.00000000000E+00 0.  1.
          5    1    4    4  501    0  0.36187556577E+02 -0.96009408770E+02  0.29153077910E+02  0.10674605461E+03  0.41800000000E+01 0. -1.
         -5    1    4    4    0  501 -0.44923876806E+02 -0.55844152853E+01  0.67455348476E+02  0.81345170965E+02  0.41800000000E+01 0. -1.
</event>
<event>
11    1  0.6455215E-009  0.1388968E+03  0.7561462E-02  0.1108797E+00
         22   -1    0    0    0    0  0.00000000000E+00  0.00000000000E+00  0.35616583694E+03  0.35616583694E+03  0.00000000000E+00 0.  1.
         22   -1    0    0    0    0 -0.00000000000E+00 -0.00000000000E+00 -0.34272351196E+03  0.34272351196E+03  0.00000000000E+00 0.  1.
        -24    2    1    2    0    0  0.48558204559E+01  0.45358441295E+01 -0.26044977896E+03  0.27257429597E+03  0.80115582704E+02 0.  0.
         25    2    1    2    0    0 -0.32931311944E+02 -0.57105865095E+02  0.75376054236E+01  0.14160489286E+03  0.12509827757E+03 0.  0.
         24    2    1    2    0    0  0.28075491488E+02  0.52570020965E+02  0.26635449851E+03  0.28471016007E+03  0.81014295293E+02 0.  0.
        -11    1    5    5    0    0  0.41736667741E+02  0.25186130774E+02  0.23816654445E+03  0.24310407959E+03  0.00000000000E+00 0.  1.
         12    1    5    5    0    0 -0.13661176253E+02  0.27383890191E+02  0.28187954060E+02  0.41606080477E+02  0.00000000000E+00 0. -1.
         11    1    3    3    0    0 -0.22789975285E+02  0.24221304695E+02 -0.54492691577E+02  0.63839705590E+02  0.00000000000E+00 0. -1.
        -12    1    3    3    0    0  0.27645795741E+02 -0.19685460565E+02 -0.20595708738E+03  0.20873459038E+03  0.00000000000E+00 0.  1.
          5    1    4    4  501    0  0.41867713389E+02  0.71470989490E+01  0.93608515376E+00  0.42688817074E+02  0.41800000000E+01 0. -1.
         -5    1    4    4    0  501 -0.74799025333E+02 -0.64252964044E+02  0.66015202698E+01  0.98916075786E+02  0.41800000000E+01 0. -1.
</event>
<event>
11    1  0.6455215E-009  0.1729707E+03  0.7561462E-02  0.1075475E+00
         22   -1    0    0    0    0  0.00000000000E+00  0.00000000000E+00  0.16630270626E+03  0.16630270626E+03  0.00000000000E+00 0.  1.
         22   -1    0    0    0    0 -0.00000000000E+00 -0.00000000000E+00 -0.55678805100E+03  0.55678805100E+03  0.00000000000E+00 0. -1.
         24    2    1    2    0    0 -0.37833287627E+02  0.11936847908E+03 -0.39444689097E+03  0.42148810835E+03  0.79897961384E+02 0.  0.
         25    2    1    2    0    0 -0.19124771908E+01 -0.10221596553E+03 -0.77486198960E+02  0.17917531422E+03  0.12509165047E+03 0.  0.
        -24    2    1    2    0    0  0.39745764818E+02 -0.17152513554E+02  0.81447745186E+02  0.12242733470E+03  0.80503307656E+02 0.  0.
        -11    1    3    3    0    0 -0.46241350517E+01  0.53870336827E+01  0.22179286732E+01  0.74378736528E+01  0.00000000000E+00 0.  1.
         12    1    3    3    0    0 -0.33209152575E+02  0.11398144540E+03 -0.39666481964E+03  0.41405023469E+03  0.00000000000E+00 0. -1.
         13    1    5    5    0    0  0.22436705313E+02  0.26522394546E+02  0.86729577701E+01  0.35805912280E+02  0.00000000000E+00 0. -1.
        -14    1    5    5    0    0  0.17309059505E+02 -0.43674908100E+02  0.72774787416E+02  0.86621422420E+02  0.00000000000E+00 0.  1.
          5    1    4    4  501    0  0.32140294450E+02 -0.54188458639E+02  0.19113451716E+02  0.65971084678E+02  0.41800000000E+01 0. -1.
         -5    1    4    4    0  501 -0.34052771641E+02 -0.48027506889E+02 -0.96599650677E+02  0.11320422954E+03  0.41800000000E+01 0. -1.
</event>
<event>
11    1  0.6455215E-009  0.1539698E+03  0.7561462E-02  0.1092890E+00
         22   -1    0    0    0    0  0.00000000000E+00  0.00000000000E+00  0.86642102470E+03  0.86642102470E+03  0.00000000000E+00 0.  1.
         22   -1    0    0    0    0 -0.00000000000E+00 -0.00000000000E+00 -0.68818891500E+03  0.68818891500E+03  0.00000000000E+00 0. -1.
         24    2    1    2    0    0 -0.31733405215E+02 -0.26867363200E+02 -0.49618744764E+03  0.50387481656E+03  0.77194451581E+02 0.  0.
         25    2    1    2    0    0 -0.46576303970E+02 -0.18951511738E+02 -0.15906700662E+03  0.20851223801E+03  0.12508608602E+03 0.  0.
        -24    2    1    2    0    0  0.78309709185E+02  0.45818874938E+02  0.83348656396E+03  0.84222288513E+03  0.80048460871E+02 0.  0.
        -11    1    3    3    0    0 -0.55910818202E+02 -0.18049737343E+02 -0.27570205447E+03  0.28189259560E+03  0.00000000000E+00 0.  1.
         12    1    3    3    0    0  0.24177412987E+02 -0.88176258573E+01 -0.22048539316E+03  0.22198222096E+03  0.00000000000E+00 0. -1.
         11    1    5    5    0    0  0.36140376309E+01 -0.15006646121E+02  0.39412132008E+02  0.42327022636E+02  0.00000000000E+00 0. -1.
        -12    1    5    5    0    0  0.74695671554E+02  0.60825521059E+02  0.79407443195E+03  0.79989586250E+03  0.00000000000E+00 0.  1.
          5    1    4    4  501    0 -0.40663834012E+02  0.18904697222E+01  0.65406891349E+01  0.41441214831E+02  0.41800000000E+01 0.  1.
         -5    1    4    4    0  501 -0.59124699581E+01 -0.20841981460E+02 -0.16560769575E+03  0.16707102318E+03  0.41800000000E+01 0.  1.
</event>
<event>
11    1  0.6455215E-009  0.1372380E+03  0.7561462E-02  0.1110682E+00
         22   -1    0    0    0    0  0.00000000000E+00  0.00000000000E+00  0.55622815305E+03  0.55622815305E+03  0.00000000000E+00 0. -1.
         22   -1    0    0    0    0 -0.00000000000E+00 -0.00000000000E+00 -0.51902763758E+03  0.51902763758E+03  0.00000000000E+00 0. -1.
        -24    2    1    2    0    0 -0.59039983600E+02  0.97660162150E+01 -0.47200400850E+03  0.48238795211E+03  0.79556631151E+02 0.  0.
         25    2    1    2    0    0  0.55542859839E+02  0.47888146246E+02  0.11184228713E+03  0.18312386620E+03  0.12508944541E+03 0.  0.
         24    2    1    2    0    0  0.34971237605E+01 -0.57654162461E+02  0.39736223685E+03  0.40974397232E+03  0.81591318485E+02 0.  0.
        -11    1    5    5    0    0 -0.26968400885E+02 -0.10165073411E+02  0.25477057994E+03  0.25639553773E+03  0.00000000000E+00 0.  1.
         12    1    5    5    0    0  0.30465524646E+02 -0.47489089050E+02  0.14259165691E+03  0.15334843459E+03  0.00000000000E+00 0. -1.
         11    1    3    3    0    0 -0.38613909829E+02 -0.58769980467E+01 -0.43804784312E+03  0.43978572737E+03  0.00000000000E+00 0. -1.
        -12    1    3    3    0    0 -0.20426073771E+02  0.15643014262E+02 -0.33956165381E+02  0.42602224734E+02  0.00000000000E+00 0.  1.
          5    1    4    4  501    0  0.25382847548E+02  0.30822012151E+02 -0.21324391585E+02  0.45458634594E+02  0.41800000000E+01 0.  1.
         -5    1    4    4    0  501  0.30160012291E+02  0.17066134095E+02  0.13316667871E+03  0.13766523161E+03  0.41800000000E+01 0.  1.
</event>
<event>
11    1  0.6455215E-009  0.1306794E+03  0.7561462E-02  0.1118437E+00
         22   -1    0    0    0    0  0.00000000000E+00  0.00000000000E+00  0.17271243415E+04  0.17271243415E+04  0.00000000000E+00 0. -1.
         22   -1    0    0    0    0 -0.00000000000E+00 -0.00000000000E+00 -0.47443377773E+02  0.47443377773E+02  0.00000000000E+00 0.  1.
        -24    2    1    2    0    0 -0.24018377388E+02  0.98499870475E+01  0.38918245688E+02  0.92665197443E+02  0.79989401001E+02 0.  0.
         25    2    1    2    0    0  0.20782627539E+02 -0.47012422136E+02  0.21901006904E+03  0.25739353097E+03  0.12507571308E+03 0.  0.
         24    2    1    2    0    0  0.32357498489E+01  0.37162435089E+02  0.14217526490E+04  0.14245089909E+04  0.80335256540E+02 0.  0.
        -13    1    5    5    0    0  0.10829380706E+02  0.46600091592E+02  0.42524867881E+03  0.42793139970E+03  0.00000000000E+00 0.  1.
         14    1    5    5    0    0 -0.75936308574E+01 -0.94376565034E+01  0.99650397019E+03  0.99657759116E+03  0.00000000000E+00 0. -1.
         13    1    3    3    0    0  0.15851086964E+02  0.31042271934E+02  0.31357598971E+02  0.46884737580E+02  0.00000000000E+00 0. -1.
        -14    1    3    3    0    0 -0.39869464352E+02 -0.21192284886E+02  0.75606467176E+01  0.45780459863E+02  0.00000000000E+00 0.  1.
          5    1    4    4  501    0 -0.47288917946E+02  0.19568079925E+01  0.51815914885E+02  0.70302434477E+02  0.41800000000E+01 0.  1.
         -5    1    4    4    0  501  0.68071545486E+02 -0.48969230129E+02  0.16719415416E+03  0.18709109650E+03  0.41800000000E+01 0.  1.
</event>
<event>
11    1  0.6455215E-009  0.1534730E+03  0.7561462E-02  0.1093382E+00
         22   -1    0    0    0    0  0.00000000000E+00  0.00000000000E+00  0.54243101547E+03  0.54243101547E+03  0.00000000000E+00 0.  1.
         22   -1    0    0    0    0 -0.00000000000E+00 -0.00000000000E+00 -0.95728227661E+03  0.95728227661E+03  0.00000000000E+00 0.  1.
        -24    2    1    2    0    0 -0.10739814522E+02  0.39433854435E+02 -0.67292548384E+03  0.67897736063E+03  0.80691864208E+02 0.  0.
         25    2    1    2    0    0  0.59438715230E+02  0.35770546806E+02 -0.25568636593E+03  0.29297644808E+03  0.12508872260E+03 0.  0.
         24    2    1    2    0    0 -0.48698900707E+02 -0.75204401242E+02  0.51376058863E+03  0.52775948337E+03  0.80949644590E+02 0.  0.
        -11    1    5    5    0    0 -0.62358203770E+02 -0.83662359073E+02  0.43072011808E+03  0.44317914665E+03  0.00000000000E+00 0.  1.
         12    1    5    5    0    0  0.13659303063E+02  0.84579578312E+01  0.83040470554E+02  0.84580336726E+02  0.00000000000E+00 0. -1.
         13    1    3    3    0    0  0.26864299836E+02 -0.91719593969E+01 -0.17762382592E+03  0.17987784460E+03  0.00000000000E+00 0. -1.
        -14    1    3    3    0    0 -0.37604114358E+02  0.48605813832E+02 -0.49530165792E+03  0.49909951602E+03  0.00000000000E+00 0.  1.
          5    1    4    4  501    0  0.57251144342E+02 -0.13211857215E+02 -0.23008625867E+03  0.23750664313E+03  0.41800000000E+01 0. -1.
         -5    1    4    4    0  501  0.21875708876E+01  0.48982404022E+02 -0.25600107257E+02  0.55469804954E+02  0.41800000000E+01 0. -1.
</event>
<event>
11    1  0.6455215E-009  0.1397682E+03  0.7561462E-02  0.1107817E+00
         22   -1    0    0    0    0  0.00000000000E+00  0.00000000000E+00  0.21370514464E+04  0.21370514464E+04  0.00000000000E+00 0.  1.
         22   -1    0    0    0    0 -0.00000000000E+00 -0.00000000000E+00 -0.25881200127E+03  0.25881200127E+03  0.00000000000E+00 0. -1.
         24    2    1    2    0    0 -0.65307144695E+02 -0.13712813687E+02 -0.20824200137E+03  0.23375455470E+03  0.82603851599E+02 0.  0.
         25    2    1    2    0    0  0.26422546612E+02 -0.11610094911E+02  0.75471653922E+02  0.14892266399E+03  0.12509613915E+03 0.  0.
        -24    2    1    2    0    0  0.38884598083E+02  0.25322908598E+02  0.20110097926E+04  0.20131862290E+04  0.81272043406E+02 0.  0.
        -13    1    3    3    0    0 -0.58576510751E+02  0.24591038486E+02 -0.97393176040E+02  0.11628137222E+03  0.00000000000E+00 0.  1.
         14    1    3    3    0    0 -0.67306339438E+01 -0.38303852173E+02 -0.11084882533E+03  0.11747318248E+03  0.00000000000E+00 0. -1.
         11    1    5    5    0    0  0.11475091820E+02 -0.17068231872E+01  0.36460342465E+02  0.38261567536E+02  0.00000000000E+00 0. -1.
        -12    1    5    5    0    0  0.27409506263E+02  0.27029731786E+02  0.19745494502E+04  0.19749246615E+04  0.00000000000E+00 0.  1.
          5    1    4    4  501    0 -0.38215736658E+02  0.32136206923E+01 -0.10768610458E+02  0.40052531224E+02  0.41800000000E+01 0.  1.
         -5    1    4    4    0  501  0.64638283270E+02 -0.14823715603E+02  0.86240264380E+02  0.10887013277E+03  0.41800000000E+01 0.  1.
</event>
<event>
11    1  0.6455215E-009  0.1526446E+03  0.7561462E-02  0.1094207E+00
         22   -1    0    0    0    0  0.00000000000E+00  0.00000000000E+00  0.18807361702E+04  0.18807361702E+04  0.00000000000E+00 0.  1.
         22   -1    0    0    0    0 -0.00000000000E+00 -0.00000000000E+00 -0.24084187397E+04  0.24084187397E+04  0.00000000000E+00 0.  1.
        -24    2    1    2    0    0  0.98526230036E+01 -0.44284197503E+02 -0.23803100802E+04  0.23820504883E+04  0.78932164712E+02 0.  0.
         25    2    1    2    0    0 -0.87679818142E+02  0.23320210102E+01  0.20800454610E+03  0.25807995598E+03  0.12508470590E+03 0.  0.
         24    2    1    2    0    0  0.77827195138E+02  0.41952176493E+02  0.16446229645E+04  0.16490244656E+04  0.81730870425E+02 0.  0.
        -13    1    5    5    0    0  0.21851785635E+02  0.43003416494E+02  0.11885010475E+04  0.11894795225E+04  0.00000000000E+00 0.  1.
         14    1    5    5    0    0  0.55975409503E+02 -0.10512400011E+01  0.45612191701E+03  0.45954494312E+03  0.00000000000E+00 0. -1.
         13    1    3    3    0    0 -0.17723030887E+02  0.98884904418E+01 -0.12038211687E+04  0.12039922318E+04  0.00000000000E+00 0. -1.
        -14    1    3    3    0    0  0.27575653891E+02 -0.54172687945E+02 -0.11764889116E+04  0.11780582566E+04  0.00000000000E+00 0.  1.
          5    1    4    4  501    0 -0.53649417854E+02 -0.55186025122E+02  0.15340110840E+03  0.17167740056E+03  0.41800000000E+01 0.  1.
         -5    1    4    4    0  501 -0.34030400287E+02  0.57518046132E+02  0.54603437701E+02  0.86402555422E+02  0.41800000000E+01 0.  1.
</event>
<event>
11    1  0.6455215E-009  0.1885488E+03  0.7561462E-02  0.1062930E+00
         22   -1    0    0    0    0  0.00000000000E+00  0.00000000000E+00  0.46601004992E+03  0.46601004992E+03  0.00000000000E+00 0.  1.
         22   -1    0    0    0    0 -0.00000000000E+00 -0.00000000000E+00 -0.43110373155E+03  0.43110373155E+03  0.00000000000E+00 0. -1.
         24    2    1    2    0    0 -0.12724580603E+03  0.32389775402E+02 -0.26491609184E+03  0.31001382485E+03  0.93206454609E+02 0.  0.
         25    2    1    2    0    0  0.16119632649E+03 -0.95619185824E+02 -0.41488289802E+02  0.22912288195E+03  0.12509489387E+03 0.  0.
        -24    2    1    2    0    0 -0.33950520461E+02  0.63229410422E+02  0.34131070002E+03  0.35797707467E+03  0.80647354929E+02 0.  0.
        -11    1    3    3    0    0 -0.77224695594E+02 -0.18418787773E+02 -0.19324713687E+03  0.20891950905E+03  0.00000000000E+00 0.  1.
         12    1    3    3    0    0 -0.50021110437E+02  0.50808563176E+02 -0.71668954969E+02  0.10109431580E+03  0.00000000000E+00 0. -1.
         11    1    5    5    0    0 -0.12023981484E+02  0.38581676623E+02  0.47692992541E+02  0.62511946372E+02  0.00000000000E+00 0. -1.
        -12    1    5    5    0    0 -0.21926538977E+02  0.24647733799E+02  0.29361770748E+03  0.29546512829E+03  0.00000000000E+00 0.  1.
          5    1    4    4  501    0  0.12667965488E+02 -0.12999430398E+01  0.34809769501E+02  0.37300933691E+02  0.41800000000E+01 0.  1.
         -5    1    4    4    0  501  0.14852836100E+03 -0.94319242784E+02 -0.76298059302E+02  0.19182194826E+03  0.41800000000E+01 0.  1.
</event>
<event>
11    1  0.6455215E-009  0.1274911E+03  0.7561462E-02  0.1122391E+00
         22   -1    0    0    0    0  0.00000000000E+00  0.00000000000E+00  0.11761703070E+03  0.11761703070E+03  0.00000000000E+00 0.  1.
         22   -1    0    0    0    0 -0.00000000000E+00 -0.00000000000E+00 -0.91636588484E+03  0.91636588484E+03  0.00000000000E+00 0. -1.
         24    2    1    2    0    0 -0.19592691803E+02 -0.15842449946E+02 -0.55607666519E+03  0.56295134290E+03  0.84012499752E+02 0.  0.
         25    2    1    2    0    0  0.24836679001E+02  0.46465073909E+01 -0.32847390059E+03  0.35238954026E+03  0.12507931109E+03 0.  0.
        -24    2    1    2    0    0 -0.52439871984E+01  0.11195942555E+02  0.85801711637E+02  0.11864203238E+03  0.81000923421E+02 0.  0.
        -11    1    3    3    0    0 -0.65557061854E+01  0.12927296573E+02 -0.14665580448E+02  0.20619687926E+02  0.00000000000E+00 0.  1.
         12    1    3    3    0    0 -0.13036985618E+02 -0.28769746518E+02 -0.54141108474E+03  0.54233165497E+03  0.00000000000E+00 0. -1.
         13    1    5    5    0    0  0.23658441845E+02 -0.25781751799E+02  0.37747596073E+02  0.51471366852E+02  0.00000000000E+00 0. -1.
        -14    1    5    5    0    0 -0.28902429043E+02  0.36977694353E+02  0.48054115563E+02  0.67170665523E+02  0.00000000000E+00 0.  1.
          5    1    4    4  501    0  0.31357270764E+02  0.94024730984E+01 -0.33777587441E+03  0.33938429348E+03  0.41800000000E+01 0.  1.
         -5    1    4    4    0  501 -0.65205917628E+01 -0.47559657075E+01  0.93019738220E+01  0.13005246777E+02  0.41800000000E+01 0.  1.
</event>
<event>
11    1  0.7147414E-009  0.1828614E+03  0.7561462E-02  0.1067351E+00
         22   -1    0    0    0    0  0.00000000000E+00  0.00000000000E+00  0.10621377426E+04  0.10621377426E+04  0.00000000000E+00 0.  1.
         22   -1    0    0    0    0 -0.00000000000E+00 -0.00000000000E+00 -0.17183883067E+04  0.17183883067E+04  0.00000000000E+00 0.  1.
         24    2    1    2    0    0 -0.18877094274E+02 -0.19988036724E+02 -0.69495488125E+03  0.70018325258E+03  0.80860583211E+02 0.  0.
         25    2    1    2    0    0 -0.15820934602E+02 -0.10894597245E+03 -0.10080350613E+04  0.10217153216E+04  0.12509191267E+03 0.  0.
        -24    2    1    2    0    0  0.34698028876E+02  0.12893400917E+03  0.10467393784E+04  0.10586274751E+04  0.84857956443E+02 0.  0.
        -13    1    3    3    0    0 -0.47262383237E+02  0.28382199774E+01 -0.32346422586E+03  0.32691114049E+03  0.00000000000E+00 0.  1.
         14    1    3    3    0    0  0.28385288963E+02 -0.22826256702E+02 -0.37149065539E+03  0.37327211209E+03  0.00000000000E+00 0. -1.
         13    1    5    5    0    0 -0.17373751153E+02 -0.31791663639E+00  0.16967582212E+03  0.17056328126E+03  0.00000000000E+00 0. -1.
        -14    1    5    5    0    0  0.52071780029E+02  0.12925192581E+03  0.87706355633E+03  0.88806419387E+03  0.00000000000E+00 0.  1.
          5    1    4    4  501    0  0.19238142081E+02 -0.11992282639E+03 -0.61143074131E+03  0.62339122083E+03  0.41800000000E+01 0. -1.
         -5    1    4    4    0  501 -0.35059076683E+02  0.10976853941E+02 -0.39660432000E+03  0.39832410073E+03  0.41800000000E+01 0. -1.
</event>
<event>
11    1  0.6455215E-009  0.1268447E+03  0.7561462E-02  0.1123208E+00
         22   -1    0    0    0    0  0.00000000000E+00  0.00000000000E+00  0.85034201009E+02  0.85034201009E+02  0.00000000000E+00 0.  1.
         22   -1    0    0    0    0 -0.00000000000E+00 -0.00000000000E+00 -0.10507212810E+04  0.10507212810E+04  0.00000000000E+00 0.  1.
         24    2    1    2    0    0 -0.80044885676E+01 -0.89541252701E+01 -0.65333538180E+03  0.65860264868E+03  0.82256182401E+02 0.  0.
         25    2    1    2    0    0 -0.95492751506E+01 -0.37391931573E+01 -0.35983307797E+03  0.38109849970E+03  0.12510416561E+03 0.  0.
        -24    2    1    2    0    0  0.17553763718E+02  0.12693318427E+02  0.47481379775E+02  0.96054333627E+02  0.80639311938E+02 0.  0.
        -11    1    3    3    0    0  0.17995108620E+02 -0.28830340329E+02 -0.52708365997E+03  0.52817818685E+03  0.00000000000E+00 0.  1.
         12    1    3    3    0    0 -0.25999597187E+02  0.19876215059E+02 -0.12625172183E+03  0.13042446183E+03  0.00000000000E+00 0. -1.
         13    1    5    5    0    0  0.30547892732E+02  0.41499146027E+02  0.33750788678E+02  0.61599258175E+02  0.00000000000E+00 0. -1.
        -14    1    5    5    0    0 -0.12994129014E+02 -0.28805827599E+02  0.13730591097E+02  0.34455075452E+02  0.00000000000E+00 0.  1.
          5    1    4    4  501    0 -0.61518313237E+02 -0.22794729769E+02 -0.14493613245E+03  0.15914791063E+03  0.41800000000E+01 0.  1.
         -5    1    4    4    0  501  0.51969038086E+02  0.19055536612E+02 -0.21489694552E+03  0.22195058907E+03  0.41800000000E+01 0.  1.
</event>
<event>
11    1  0.6455215E-009  0.1358826E+03  0.7561462E-02  0.1112245E+00
         22   -1    0    0    0    0  0.00000000000E+00  0.00000000000E+00  0.56671047150E+03  0.56671047150E+03  0.00000000000E+00 0. -1.
         22   -1    0    0    0    0 -0.00000000000E+00 -0.00000000000E+00 -0.14248545049E+03  0.14248545049E+03  0.00000000000E+00 0.  1.
         24    2    1    2    0    0 -0.38330165513E+02  0.19729389435E+02 -0.42105412439E+02  0.10037071270E+03  0.80268074695E+02 0.  0.
         25    2    1    2    0    0  0.56251844264E+02 -0.65232919924E+02  0.18451068597E+02  0.15299645672E+03  0.12509144659E+03 0.  0.
        -24    2    1    2    0    0 -0.17921678751E+02  0.45503530490E+02  0.44787936485E+03  0.45582875258E+03  0.69225489259E+02 0.  0.
        -11    1    3    3    0    0 -0.24106940953E+02  0.50295930593E+01 -0.65095873734E+02  0.69598234070E+02  0.00000000000E+00 0.  1.
         12    1    3    3    0    0 -0.14223224560E+02  0.14699796375E+02  0.22990461296E+02  0.30772478628E+02  0.00000000000E+00 0. -1.
         11    1    5    5    0    0 -0.35643275390E+01  0.16272177367E+02  0.38176822889E+03  0.38213148100E+03  0.00000000000E+00 0. -1.
        -12    1    5    5    0    0 -0.14357351212E+02  0.29231353123E+02  0.66111135962E+02  0.73697271574E+02  0.00000000000E+00 0.  1.
          5    1    4    4  501    0 -0.16930936254E+01 -0.32167393204E+02 -0.48509824696E+02  0.58380503968E+02  0.41800000000E+01 0.  1.
         -5    1    4    4    0  501  0.57944937889E+02 -0.33065526720E+02  0.66960893293E+02  0.94615952750E+02  0.41800000000E+01 0.  1.
</event>
<event>
11    1  0.9428356E-009  0.1443009E+03  0.7561462E-02  0.1102849E+00
         22   -1    0    0    0    0  0.00000000000E+00  0.00000000000E+00  0.27222389565E+03  0.27222389565E+03  0.00000000000E+00 0.  1.
         22   -1    0    0    0    0 -0.00000000000E+00 -0.00000000000E+00 -0.71498268269E+03  0.71498268269E+03  0.00000000000E+00 0. -1.
        -24    2    1    2    0    0 -0.59429341533E+02  0.97410303969E+00 -0.44334131857E+03  0.45325382238E+03  0.73175865117E+02 0.  0.
         25    2    1    2    0    0  0.12763677130E+03 -0.12916890126E+02 -0.22294120271E+03  0.28602311141E+03  0.12509376066E+03 0.  0.
         24    2    1    2    0    0 -0.68207429769E+02  0.11942787086E+02  0.22352373424E+03  0.24792964455E+03  0.81922922540E+02 0.  0.
        -11    1    5    5    0    0 -0.84849782537E+02 -0.29319345923E+01  0.17399376805E+03  0.19360246165E+03  0.00000000000E+00 0.  1.
         12    1    5    5    0    0  0.16642352768E+02  0.14874721678E+02  0.49529966191E+02  0.54327182897E+02  0.00000000000E+00 0. -1.
         11    1    3    3    0    0 -0.36785751082E+02 -0.18873633052E+01 -0.41604694415E+03  0.41767429100E+03  0.00000000000E+00 0. -1.
        -12    1    3    3    0    0 -0.22643590452E+02  0.28614663449E+01 -0.27294374417E+02  0.35579531377E+02  0.00000000000E+00 0.  1.
          5    1    4    4  501    0 -0.84899478160E+01 -0.79925465968E+01  0.10151351891E+02  0.16015066664E+02  0.41800000000E+01 0. -1.
         -5    1    4    4    0  501  0.13612671912E+03 -0.49243435288E+01 -0.23309255460E+03  0.27000804475E+03  0.41800000000E+01 0. -1.
</event>
<event>
11    1  0.6455215E-009  0.1531917E+03  0.7561462E-02  0.1093661E+00
         22   -1    0    0    0    0  0.00000000000E+00  0.00000000000E+00  0.24692410555E+03  0.24692410555E+03  0.00000000000E+00 0.  1.
         22   -1    0    0    0    0 -0.00000000000E+00 -0.00000000000E+00 -0.42315680577E+03  0.42315680577E+03  0.00000000000E+00 0.  1.
         24    2    1    2    0    0 -0.36076461653E+02 -0.60643987213E+02 -0.27038285164E+03  0.29027331138E+03  0.78565288544E+02 0.  0.
         25    2    1    2    0    0  0.11075797746E+03  0.13874550550E+02 -0.66100380155E+02  0.18021310446E+03  0.12509064729E+03 0.  0.
        -24    2    1    2    0    0 -0.74681515811E+02  0.46769436663E+02  0.16025053158E+03  0.19959449548E+03  0.79956367755E+02 0.  0.
        -13    1    3    3    0    0 -0.31734991607E+02 -0.70333858918E+02 -0.26865393580E+03  0.27951547117E+03  0.00000000000E+00 0.  1.
         14    1    3    3    0    0 -0.43414700464E+01  0.96898717049E+01 -0.17289158383E+01  0.10757840201E+02  0.00000000000E+00 0. -1.
         11    1    5    5    0    0 -0.65569569248E+02  0.11545614141E+02  0.49337781125E+02  0.82866677643E+02  0.00000000000E+00 0. -1.
        -12    1    5    5    0    0 -0.91119465624E+01  0.35223822522E+02  0.11091275046E+03  0.11672781784E+03  0.00000000000E+00 0.  1.
          5    1    4    4  501    0  0.63284578976E+02 -0.37409968386E+02  0.12791994092E+02  0.74736545168E+02  0.41800000000E+01 0. -1.
         -5    1    4    4    0  501  0.47473398488E+02  0.51284518936E+02 -0.78892374247E+02  0.10547655930E+03  0.41800000000E+01 0. -1.
</event>
<event>
11    1  0.6455215E-009  0.1883454E+03  0.7561462E-02  0.1063085E+00
         22   -1    0    0    0    0  0.00000000000E+00  0.00000000000E+00  0.17360212563E+04  0.17360212563E+04  0.00000000000E+00 0.  1.
         22   -1    0    0    0    0 -0.00000000000E+00 -0.00000000000E+00 -0.48219786734E+03  0.48219786734E+03  0.00000000000E+00 0.  1.
         24    2    1    2    0    0  0.20154719330E+02  0.13738989864E+03 -0.39279917989E+03  0.42423217470E+03  0.79997158542E+02 0.  0.
         25    2    1    2    0    0 -0.33959961880E+02 -0.15487219020E+03  0.67761564519E+02  0.21301974195E+03  0.12508839485E+03 0.  0.
        -24    2    1    2    0    0  0.13805242550E+02  0.17482291558E+02  0.15788610043E+04  0.15809672070E+04  0.78479445332E+02 0.  0.
        -13    1    3    3    0    0  0.14724699218E+02 -0.54109827189E+01 -0.60647944185E+02  0.62643983230E+02  0.00000000000E+00 0.  1.
         14    1    3    3    0    0  0.54300201114E+01  0.14280088136E+03 -0.33215123570E+03  0.36158819147E+03  0.00000000000E+00 0. -1.
         11    1    5    5    0    0  0.24887602462E+02 -0.11112623148E+02  0.20983478648E+03  0.21159754433E+03  0.00000000000E+00 0. -1.
        -12    1    5    5    0    0 -0.11082359912E+02  0.28594914706E+02  0.13690262179E+04  0.13693696627E+04  0.00000000000E+00 0.  1.
          5    1    4    4  501    0  0.15505540041E+02 -0.85208374801E+02 -0.21555060110E+02  0.89347534518E+02  0.41800000000E+01 0. -1.
         -5    1    4    4    0  501 -0.49465501921E+02 -0.69663815397E+02  0.89316624629E+02  0.12367220743E+03  0.41800000000E+01 0. -1.
</event>
<event>
11    1  0.6758482E-009  0.1613797E+03  0.7561462E-02  0.1085787E+00
         22   -1    0    0    0    0  0.00000000000E+00  0.00000000000E+00  0.24509914282E+03  0.24509914282E+03  0.00000000000E+00 0.  1.
         22   -1    0    0    0    0 -0.00000000000E+00 -0.00000000000E+00 -0.14323089969E+04  0.14323089969E+04  0.00000000000E+00 0. -1.
         24    2    1    2    0    0 -0.80765519553E+02 -0.52706645055E+02 -0.93398428856E+03  0.94241338921E+03  0.80717317231E+02 0.  0.
         25    2    1    2    0    0  0.15054166769E+03 -0.20585069498E+02 -0.45451291461E+03  0.49529759451E+03  0.12510467131E+03 0.  0.
        -24    2    1    2    0    0 -0.69776148141E+02  0.73291714552E+02  0.20128734910E+03  0.23969715598E+03  0.81839742231E+02 0.  0.
        -11    1    3    3    0    0 -0.58107581613E+01 -0.14435673397E+02 -0.24373169268E+02  0.28917208666E+02  0.00000000000E+00 0.  1.
         12    1    3    3    0    0 -0.74954761391E+02 -0.38270971657E+02 -0.90961111929E+03  0.91349618054E+03  0.00000000000E+00 0. -1.
         13    1    5    5    0    0 -0.42841004577E+02  0.38782901783E+02  0.34593810193E+02  0.67351294327E+02  0.00000000000E+00 0. -1.
        -14    1    5    5    0    0 -0.26935143564E+02  0.34508812769E+02  0.16669353890E+03  0.17234586166E+03  0.00000000000E+00 0.  1.
          5    1    4    4  501    0  0.57554729876E+00 -0.20162861405E+02 -0.19070474995E+03  0.19181409303E+03  0.41800000000E+01 0.  1.
         -5    1    4    4    0  501  0.14996612040E+03 -0.42220809211E+00 -0.26380816466E+03  0.30348350148E+03  0.41800000000E+01 0.  1.
</event>
<event>
11    1  0.6455215E-009  0.1596631E+03  0.7561462E-02  0.1087395E+00
         22   -1    0    0    0    0  0.00000000000E+00  0.00000000000E+00  0.96484680715E+03  0.96484680715E+03  0.00000000000E+00 0. -1.
         22   -1    0    0    0    0 -0.00000000000E+00 -0.00000000000E+00 -0.13405373565E+03  0.13405373565E+03  0.00000000000E+00 0. -1.
         24    2    1    2    0    0  0.53931216828E+02 -0.76406927481E+02 -0.22502353539E+02  0.12947205788E+03  0.86660620469E+02 0.  0.
         25    2    1    2    0    0 -0.70451380038E+02  0.88214006488E+02  0.71290351621E+02  0.18296173248E+03  0.12509026112E+03 0.  0.
        -24    2    1    2    0    0  0.16520163211E+02 -0.11807079007E+02  0.78200507341E+03  0.78646675245E+03  0.81152294819E+02 0.  0.
        -11    1    3    3    0    0  0.74477549731E+02 -0.58678118183E+02 -0.32971296535E+02  0.10038492597E+03  0.00000000000E+00 0.  1.
         12    1    3    3    0    0 -0.20546332903E+02 -0.17728809298E+02  0.10468942996E+02  0.29087131902E+02  0.00000000000E+00 0. -1.
         11    1    5    5    0    0 -0.28894432351E+02 -0.41517336347E+01  0.48838985075E+03  0.48926145508E+03  0.00000000000E+00 0. -1.
        -12    1    5    5    0    0  0.45414595562E+02 -0.76553453725E+01  0.29361522267E+03  0.29720529737E+03  0.00000000000E+00 0.  1.
          5    1    4    4  501    0 -0.10252117041E+03  0.59811589281E+02  0.73830863557E+02  0.13984450439E+03  0.41800000000E+01 0. -1.
         -5    1    4    4    0  501  0.32069790367E+02  0.28402417207E+02 -0.25405119365E+01  0.43117228092E+02  0.41800000000E+01 0. -1.
</event>
<event>
11    1  0.6455215E-009  0.1301522E+03  0.7561462E-02  0.1119082E+00
         22   -1    0    0    0    0  0.00000000000E+00  0.00000000000E+00  0.82978400115E+02  0.82978400115E+02  0.00000000000E+00 0. -1.
         22   -1    0    0    0    0 -0.00000000000E+00 -0.00000000000E+00 -0.12547679055E+04  0.12547679055E+04  0.00000000000E+00 0. -1.
         24    2    1    2    0    0 -0.17344234070E+02 -0.25446735268E+02 -0.72951432580E+03  0.73444155487E+03  0.79151040344E+02 0.  0.
         25    2    1    2    0    0  0.30903440699E+02 -0.87810751461E+01 -0.48713661971E+03  0.50396636033E+03  0.12509147116E+03 0.  0.
        -24    2    1    2    0    0 -0.13559206629E+02  0.34227810414E+02  0.44861440125E+02  0.99338390408E+02  0.80623643608E+02 0.  0.
        -11    1    3    3    0    0  0.14907116848E+02 -0.38058137819E+01 -0.28801964492E+02  0.32653629352E+02  0.00000000000E+00 0.  1.
         12    1    3    3    0    0 -0.32251350919E+02 -0.21640921486E+02 -0.70071236131E+03  0.70178792552E+03  0.00000000000E+00 0. -1.
         13    1    5    5    0    0 -0.20420605429E+02  0.10272177341E+01  0.59122986033E+02  0.62558642727E+02  0.00000000000E+00 0. -1.
        -14    1    5    5    0    0  0.68613988007E+01  0.33200592680E+02 -0.14261545908E+02  0.36779747681E+02  0.00000000000E+00 0.  1.
          5    1    4    4  501    0 -0.59915719245E+01  0.53249759148E+02 -0.26380910579E+03  0.26922881065E+03  0.41800000000E+01 0.  1.
         -5    1    4    4    0  501  0.36895012623E+02 -0.62030834294E+02 -0.22332751391E+03  0.23473754968E+03  0.41800000000E+01 0.  1.
</event>
<event>
11    1  0.6455215E-009  0.1350252E+03  0.7561462E-02  0.1113244E+00
         22   -1    0    0    0    0  0.00000000000E+00  0.00000000000E+00  0.10210364687E+04  0.10210364687E+04  0.00000000000E+00 0. -1.
         22   -1    0    0    0    0 -0.00000000000E+00 -0.00000000000E+00 -0.21143560993E+03  0.21143560993E+03  0.00000000000E+00 0. -1.
        -24    2    1    2    0    0  0.16479186147E+01  0.39226494101E+02 -0.85926651841E+02  0.12404386985E+03  0.80386931002E+02 0.  0.
         25    2    1    2    0    0  0.36267688684E+02 -0.72352410116E+02 -0.50785298504E+02  0.15738660291E+03  0.12506470221E+03 0.  0.
         24    2    1    2    0    0 -0.37915607298E+02  0.33125916015E+02  0.94631280908E+03  0.95104160584E+03  0.80232685497E+02 0.  0.
        -11    1    5    5    0    0 -0.42790849186E+02 -0.15618232130E+02  0.42655606674E+03  0.42898142620E+03  0.00000000000E+00 0.  1.
         12    1    5    5    0    0  0.48752418879E+01  0.48744148145E+02  0.51975674234E+03  0.52206017964E+03  0.00000000000E+00 0. -1.
         11    1    3    3    0    0  0.20491883062E+02  0.11358180859E+02 -0.87285385915E+02  0.90375130087E+02  0.00000000000E+00 0. -1.
        -12    1    3    3    0    0 -0.18843964447E+02  0.27868313242E+02  0.13587340747E+01  0.33668739764E+02  0.00000000000E+00 0.  1.
          5    1    4    4  501    0 -0.40965533132E+02 -0.16430869277E+02 -0.42775537484E+02  0.61606553036E+02  0.41800000000E+01 0. -1.
         -5    1    4    4    0  501  0.77233221816E+02 -0.55921540839E+02 -0.80097610201E+01  0.95780049872E+02  0.41800000000E+01 0. -1.
</event>
<event>
11    1  0.6455215E-009  0.1588087E+03  0.7561462E-02  0.1088203E+00
         22   -1    0    0    0    0  0.00000000000E+00  0.00000000000E+00  0.35042426297E+03  0.35042426297E+03  0.00000000000E+00 0.  1.
         22   -1    0    0    0    0 -0.00000000000E+00 -0.00000000000E+00 -0.32012731508E+03  0.32012731508E+03  0.00000000000E+00 0. -1.
         24    2    1    2    0    0 -0.51611746671E+02  0.77666493979E+02 -0.19088078417E+03  0.22730115945E+03  0.80836171604E+02 0.  0.
         25    2    1    2    0    0  0.88028805256E+02 -0.79595585634E+02 -0.33090129173E+02  0.17556310751E+03  0.12507166051E+03 0.  0.
        -24    2    1    2    0    0 -0.36417058584E+02  0.19290916550E+01  0.25426786124E+03  0.26768731109E+03  0.75328797350E+02 0.  0.
        -13    1    3    3    0    0 -0.13319748233E+02  0.81358481912E+01  0.46389884229E+01  0.16282749533E+02  0.00000000000E+00 0.  1.
         14    1    3    3    0    0 -0.38291998439E+02  0.69530645787E+02 -0.19551977259E+03  0.21101840992E+03  0.00000000000E+00 0. -1.
         11    1    5    5    0    0  0.11247116980E+02 -0.66405930760E+01  0.16995215375E+03  0.17045330646E+03  0.00000000000E+00 0. -1.
        -12    1    5    5    0    0 -0.47664175564E+02  0.85696847310E+01  0.84315707486E+02  0.97234004635E+02  0.00000000000E+00 0.  1.
          5    1    4    4  501    0  0.11077748834E+03 -0.25986169870E+02 -0.25542139482E+02  0.11669107180E+03  0.41800000000E+01 0.  1.
         -5    1    4    4    0  501 -0.22748683087E+02 -0.53609415764E+02 -0.75479896904E+01  0.58872035714E+02  0.41800000000E+01 0.  1.
</event>
<event>
11    1  0.6455215E-009  0.1625150E+03  0.7561462E-02  0.1084735E+00
         22   -1    0    0    0    0  0.00000000000E+00  0.00000000000E+00  0.36502269715E+03  0.36502269715E+03  0.00000000000E+00 0.  1.
         22   -1    0    0    0    0 -0.00000000000E+00 -0.00000000000E+00 -0.38204023087E+03  0.38204023087E+03  0.00000000000E+00 0.  1.
        -24    2    1    2    0    0  0.54596799447E+02 -0.52869933199E+01 -0.26890671831E+03  0.28579118627E+03  0.79730898596E+02 0.  0.
         25    2    1    2    0    0 -0.14464933197E+03  0.37879194245E+02  0.17743485023E+02  0.19575516802E+03  0.12508793687E+03 0.  0.
         24    2    1    2    0    0  0.90052532520E+02 -0.32592200925E+02  0.23414569957E+03  0.26551657373E+03  0.80641999757E+02 0.  0.
        -11    1    5    5    0    0  0.57479825381E+02 -0.59350923887E+02  0.14447762235E+03  0.16643390836E+03  0.00000000000E+00 0.  1.
         12    1    5    5    0    0  0.32572707139E+02  0.26758722962E+02  0.89668077221E+02  0.99082665373E+02  0.00000000000E+00 0. -1.
         11    1    3    3    0    0 -0.22208712260E+00 -0.34576315858E+02 -0.91888119410E+02  0.98178395942E+02  0.00000000000E+00 0. -1.
        -12    1    3    3    0    0  0.54818886570E+02  0.29289322538E+02 -0.17701859890E+03  0.18761279033E+03  0.00000000000E+00 0.  1.
          5    1    4    4  501    0 -0.12190467691E+03 -0.20751323937E+02  0.38200739488E+02  0.12949183988E+03  0.41800000000E+01 0.  1.
         -5    1    4    4    0  501 -0.22744655059E+02  0.58630518182E+02 -0.20457254465E+02  0.66263328140E+02  0.41800000000E+01 0.  1.
</event>
<event>
11    1  0.6455215E-009  0.1625699E+03  0.7561462E-02  0.1084685E+00
         22   -1    0    0    0    0  0.00000000000E+00  0.00000000000E+00  0.74679408759E+02  0.74679408759E+02  0.00000000000E+00 0.  1.
         22   -1    0    0    0    0 -0.00000000000E+00 -0.00000000000E+00 -0.36969364638E+04  0.36969364638E+04  0.00000000000E+00 0.  1.
        -24    2    1    2    0    0 -0.82246650236E+02  0.60337767094E+02 -0.32526222417E+04  0.32552518590E+04  0.81902753780E+02 0.  0.
         25    2    1    2    0    0  0.16335876484E+03 -0.20957431808E+02 -0.32839284059E+03  0.38809030850E+03  0.12508768848E+03 0.  0.
         24    2    1    2    0    0 -0.81112114608E+02 -0.39380335285E+02 -0.41241972760E+02  0.12827370500E+03  0.81383395938E+02 0.  0.
        -11    1    5    5    0    0 -0.50873222660E+02 -0.61204504169E+02 -0.43892042848E+02  0.90887774424E+02  0.00000000000E+00 0.  1.
         12    1    5    5    0    0 -0.30238891948E+02  0.21824168884E+02  0.26500700886E+01  0.37385930577E+02  0.00000000000E+00 0. -1.
         13    1    3    3    0    0 -0.76891094795E+01 -0.19593319088E+02 -0.43194782123E+03  0.43246033439E+03  0.00000000000E+00 0. -1.
        -14    1    3    3    0    0 -0.74557540756E+02  0.79931086182E+02 -0.28206744205E+04  0.28227915247E+04  0.00000000000E+00 0.  1.
          5    1    4    4  501    0  0.94096468904E+02 -0.60071267551E+02 -0.26044359314E+03  0.28339202574E+03  0.41800000000E+01 0. -1.
         -5    1    4    4    0  501  0.69262295940E+02  0.39113835743E+02 -0.67949247445E+02  0.10469828276E+03  0.41800000000E+01 0. -1.
</event>
<event>
11    1  0.6455215E-009  0.1257297E+03  0.7561462E-02  0.1124630E+00
         22   -1    0    0    0    0  0.00000000000E+00  0.00000000000E+00  0.42635059941E+03  0.42635059941E+03  0.00000000000E+00 0. -1.
         22   -1    0    0    0    0 -0.00000000000E+00 -0.00000000000E+00 -0.19726145219E+04  0.19726145219E+04  0.00000000000E+00 0. -1.
         24    2    1    2    0    0  0.55375460759E+01  0.11249923194E+02 -0.18846087336E+04  0.18863276707E+04  0.79528468555E+02 0.  0.
         25    2    1    2    0    0 -0.24614904147E+02 -0.12655660091E+02 -0.33373405052E+02  0.13238702507E+03  0.12508589450E+03 0.  0.
        -24    2    1    2    0    0  0.19077358072E+02  0.14057368971E+01  0.37171821615E+03  0.38025042555E+03  0.77781953060E+02 0.  0.
        -11    1    3    3    0    0 -0.25798756485E+02  0.23043892882E+02 -0.44974680834E+03  0.45107514723E+03  0.00000000000E+00 0.  1.
         12    1    3    3    0    0  0.31336302561E+02 -0.11793969689E+02 -0.14348619252E+04  0.14352525234E+04  0.00000000000E+00 0. -1.
         11    1    5    5    0    0 -0.11213712460E+02  0.20165589351E+02  0.29226090110E+03  0.29317031339E+03  0.00000000000E+00 0. -1.
        -12    1    5    5    0    0  0.30291070531E+02 -0.18759852454E+02  0.79457315049E+02  0.87080112154E+02  0.00000000000E+00 0.  1.
          5    1    4    4  501    0  0.43869540765E+02 -0.26694371954E+02  0.62843489464E+01  0.51904638932E+02  0.41800000000E+01 0.  1.
         -5    1    4    4    0  501 -0.68484444912E+02  0.14038711864E+02 -0.39657753998E+02  0.80482386135E+02  0.41800000000E+01 0.  1.
</event>
<event>
11    1  0.6455215E-009  0.1324876E+03  0.7561462E-02  0.1116250E+00
         22   -1    0    0    0    0  0.00000000000E+00  0.00000000000E+00  0.10119622135E+04  0.10119622135E+04  0.00000000000E+00 0. -1.
         22   -1    0    0    0    0 -0.00000000000E+00 -0.00000000000E+00 -0.16691389473E+03  0.16691389473E+03  0.00000000000E+00 0. -1.
         24    2    1    2    0    0 -0.86267225536E+01 -0.84887782128E+01 -0.13522141043E+03  0.15872746599E+03  0.82238062491E+02 0.  0.
         25    2    1    2    0    0 -0.22097717570E+02  0.39451471079E+02  0.24334817976E+03  0.27732793975E+03  0.12509085450E+03 0.  0.
        -24    2    1    2    0    0  0.30724440124E+02 -0.30962692866E+02  0.73692154940E+03  0.74282070247E+03  0.82622917359E+02 0.  0.
        -11    1    3    3    0    0  0.18538031389E+02  0.48242918872E+01  0.10056591201E+01  0.19181859927E+02  0.00000000000E+00 0.  1.
         12    1    3    3    0    0 -0.27164753943E+02 -0.13313070100E+02 -0.13622706955E+03  0.13954560606E+03  0.00000000000E+00 0. -1.
         11    1    5    5    0    0 -0.28070616919E+02 -0.17248275032E+02  0.27769534255E+03  0.27964292553E+03  0.00000000000E+00 0. -1.
        -12    1    5    5    0    0  0.58795057042E+02 -0.13714417835E+02  0.45922620685E+03  0.46317777694E+03  0.00000000000E+00 0.  1.
          5    1    4    4  501    0 -0.64481061252E+02 -0.56139654288E+00  0.74322143883E+02  0.98485409567E+02  0.41800000000E+01 0. -1.
         -5    1    4    4    0  501  0.42383343682E+02  0.40012867622E+02  0.16902603588E+03  0.17884253018E+03  0.41800000000E+01 0. -1.
</event>
<event>
11    1  0.6455215E-009  0.1552763E+03  0.7561462E-02  0.1091606E+00
         22   -1    0    0    0    0  0.00000000000E+00  0.00000000000E+00  0.51630296361E+03  0.51630296361E+03  0.00000000000E+00 0.  1.
         22   -1    0    0    0    0 -0.00000000000E+00 -0.00000000000E+00 -0.19998436749E+03  0.19998436749E+03  0.00000000000E+00 0. -1.
         24    2    1    2    0    0  0.10250926810E+01  0.90154870784E+02 -0.11510402818E+03  0.16642084008E+03  0.79485892892E+02 0.  0.
         25    2    1    2    0    0 -0.32100566317E+02 -0.99410932359E+02  0.68212435136E+02  0.17668039551E+03  0.12510014396E+03 0.  0.
        -24    2    1    2    0    0  0.31075473636E+02  0.92560615748E+01  0.36321018916E+03  0.37318609551E+03  0.79340157777E+02 0.  0.
        -13    1    3    3    0    0  0.96778273469E+01  0.28741735685E+02  0.54836344622E+01  0.30819116783E+02  0.00000000000E+00 0.  1.
         14    1    3    3    0    0 -0.86527346659E+01  0.61413135098E+02 -0.12058766264E+03  0.13560172330E+03  0.00000000000E+00 0. -1.
         11    1    5    5    0    0  0.15183454909E+02 -0.34901884344E+02  0.18694245430E+03  0.19077777662E+03  0.00000000000E+00 0. -1.
        -12    1    5    5    0    0  0.15892018727E+02  0.44157945919E+02  0.17626773486E+03  0.18240831889E+03  0.00000000000E+00 0.  1.
          5    1    4    4  501    0 -0.18221755689E+02 -0.12777402896E+03  0.65270749136E+02  0.14469270179E+03  0.41800000000E+01 0.  1.
         -5    1    4    4    0  501 -0.13878810628E+02  0.28363096601E+02  0.29416859993E+01  0.31987693724E+02  0.41800000000E+01 0.  1.
</event>
<event>
11    1  0.6455215E-009  0.1401168E+03  0.7561462E-02  0.1107428E+00
         22   -1    0    0    0    0  0.00000000000E+00  0.00000000000E+00  0.12329383509E+04  0.12329383509E+04  0.00000000000E+00 0.  1.
         22   -1    0    0    0    0 -0.00000000000E+00 -0.00000000000E+00 -0.72294552763E+03  0.72294552763E+03  0.00000000000E+00 0. -1.
         24    2    1    2    0    0  0.17974179737E+01 -0.62602737406E+02 -0.69762990926E+03  0.70478718167E+03  0.78199409959E+02 0.  0.
         25    2    1    2    0    0  0.45634722174E+01  0.11913299727E+03  0.37958744445E+03  0.41707004624E+03  0.12508916487E+03 0.  0.
        -24    2    1    2    0    0 -0.63608901911E+01 -0.56530259866E+02  0.82803528813E+03  0.83402665066E+03  0.81987099064E+02 0.  0.
        -11    1    3    3    0    0  0.16487612766E+02 -0.50215983979E+01 -0.30637265007E+02  0.35152522417E+02  0.00000000000E+00 0.  1.
         12    1    3    3    0    0 -0.14690194792E+02 -0.57581139008E+02 -0.66699264425E+03  0.66963465926E+03  0.00000000000E+00 0. -1.
         11    1    5    5    0    0 -0.27681768240E+02  0.92035746636E+01  0.31714850263E+03  0.31848729770E+03  0.00000000000E+00 0. -1.
        -12    1    5    5    0    0  0.21320878049E+02 -0.65733834530E+02  0.51088678550E+03  0.51553935296E+03  0.00000000000E+00 0.  1.
          5    1    4    4  501    0  0.63538314575E+02  0.67960882757E+02  0.17892986949E+03  0.20171556608E+03  0.41800000000E+01 0.  1.
         -5    1    4    4    0  501 -0.58974842358E+02  0.51172114515E+02  0.20065757496E+03  0.21535448016E+03  0.41800000000E+01 0.  1.
</event>
<event>
11    1  0.6455215E-009  0.1284117E+03  0.7561462E-02  0.1121236E+00
         22   -1    0    0    0    0  0.00000000000E+00  0.00000000000E+00  0.50100215304E+02  0.50100215304E+02  0.00000000000E+00 0. -1.
         22   -1    0    0    0    0 -0.00000000000E+00 -0.00000000000E+00 -0.13137932298E+04  0.13137932298E+04  0.00000000000E+00 0.  1.
        -24    2    1    2    0    0  0.22153112358E+02 -0.27479193738E+02 -0.64675291215E+03  0.65261282407E+03  0.79801643406E+02 0.  0.
         25    2    1    2    0    0 -0.24892136929E+01  0.18153135872E+01 -0.59556963823E+03  0.60857146298E+03  0.12508613041E+03 0.  0.
         24    2    1    2    0    0 -0.19663898665E+02  0.25663880151E+02 -0.21370464124E+02  0.10270915806E+03  0.95116616625E+02 0.  0.
        -11    1    5    5    0    0  0.29088489866E+01  0.85291276225E+01 -0.56703494368E+02  0.57415099878E+02  0.00000000000E+00 0.  1.
         12    1    5    5    0    0 -0.22572747651E+02  0.17134752528E+02  0.35333030244E+02  0.45294058186E+02  0.00000000000E+00 0. -1.
         13    1    3    3    0    0  0.20188245207E+02 -0.28588231935E+02 -0.10166687543E+03  0.10752211776E+03  0.00000000000E+00 0. -1.
        -14    1    3    3    0    0  0.19648671506E+01  0.11090381977E+01 -0.54508603673E+03  0.54509070631E+03  0.00000000000E+00 0.  1.
          5    1    4    4  501    0  0.50186187657E+02  0.36072764468E+02 -0.27800036999E+03  0.28481849638E+03  0.41800000000E+01 0. -1.
         -5    1    4    4    0  501 -0.52675401350E+02 -0.34257450880E+02 -0.31756926824E+03  0.32375296660E+03  0.41800000000E+01 0. -1.
</event>
<event>
11    1  0.6455215E-009  0.1395024E+03  0.7561462E-02  0.1108115E+00
         22   -1    0    0    0    0  0.00000000000E+00  0.00000000000E+00  0.95127542877E+03  0.95127542877E+03  0.00000000000E+00 0. -1.
         22   -1    0    0    0    0 -0.00000000000E+00 -0.00000000000E+00 -0.17394708122E+03  0.17394708122E+03  0.00000000000E+00 0.  1.
         24    2    1    2    0    0 -0.19374946108E+02  0.15391647680E+02 -0.13153508351E+03  0.15620510604E+03  0.80537355329E+02 0.  0.
         25    2    1    2    0    0  0.77446235289E+02 -0.13108146778E+00  0.17597012705E+03  0.22937223877E+03  0.12509277263E+03 0.  0.
        -24    2    1    2    0    0 -0.58071289181E+02 -0.15260566212E+02  0.73289330403E+03  0.73964516518E+03  0.79606631472E+02 0.  0.
        -11    1    3    3    0    0 -0.36412848417E+02  0.39525023281E+02 -0.73120718125E+02  0.90745591708E+02  0.00000000000E+00 0.  1.
         12    1    3    3    0    0  0.17037902309E+02 -0.24133375601E+02 -0.58414365388E+02  0.65459514333E+02  0.00000000000E+00 0. -1.
         11    1    5    5    0    0 -0.38591146946E+02 -0.28024303848E+01  0.68853894047E+03  0.68962526257E+03  0.00000000000E+00 0. -1.
        -12    1    5    5    0    0 -0.19480142235E+02 -0.12458135828E+02  0.44354363560E+02  0.50019902605E+02  0.00000000000E+00 0.  1.
          5    1    4    4  501    0 -0.37629908437E+00  0.27431536444E+02  0.13365640664E+03  0.13650691641E+03  0.41800000000E+01 0. -1.
         -5    1    4    4    0  501  0.77822534374E+02 -0.27562617911E+02  0.42313720407E+02  0.92865322360E+02  0.41800000000E+01 0. -1.
</event>
<event>
11    1  0.6455215E-009  0.1597396E+03  0.7561462E-02  0.1087322E+00
         22   -1    0    0    0    0  0.00000000000E+00  0.00000000000E+00  0.35480150832E+03  0.35480150832E+03  0.00000000000E+00 0.  1.
         22   -1    0    0    0    0 -0.00000000000E+00 -0.00000000000E+00 -0.18680433517E+03  0.18680433517E+03  0.00000000000E+00 0. -1.
        -24    2    1    2    0    0  0.40789999238E+00  0.11727506053E+03 -0.52657966103E+02  0.15200610571E+03  0.81113430292E+02 0.  0.
         25    2    1    2    0    0  0.22517311928E+02  0.44285342272E+02  0.82203529484E+02  0.15771878112E+03  0.12509825251E+03 0.  0.
         24    2    1    2    0    0 -0.22925211921E+02 -0.16156040280E+03  0.13845160977E+03  0.23188095668E+03  0.89289421137E+02 0.  0.
        -11    1    5    5    0    0 -0.16699685532E+02 -0.81362272597E+02  0.12536628631E+03  0.15038419013E+03  0.00000000000E+00 0.  1.
         12    1    5    5    0    0 -0.62255263884E+01 -0.80198130204E+02  0.13085323458E+02  0.81496766543E+02  0.00000000000E+00 0. -1.
         13    1    3    3    0    0  0.89798102940E+01  0.88324095500E+02 -0.73550973799E+02  0.11528889186E+03  0.00000000000E+00 0. -1.
        -14    1    3    3    0    0 -0.85719103016E+01  0.28950965027E+02  0.20893007696E+02  0.36717213849E+02  0.00000000000E+00 0.  1.
          5    1    4    4  501    0 -0.26807643366E+02 -0.22584944245E+02  0.63178868176E+02  0.72372448027E+02  0.41800000000E+01 0. -1.
         -5    1    4    4    0  501  0.49324955294E+02  0.66870286518E+02  0.19024661309E+02  0.85346333089E+02  0.41800000000E+01 0. -1.
</event>
<event>
11    1  0.6455215E-009  0.1583828E+03  0.7561462E-02  0.1088608E+00
         22   -1    0    0    0    0  0.00000000000E+00  0.00000000000E+00  0.11514554695E+03  0.11514554695E+03  0.00000000000E+00 0. -1.
         22   -1    0    0    0    0 -0.00000000000E+00 -0.00000000000E+00 -0.19067264565E+04  0.19067264565E+04  0.00000000000E+00 0. -1.
         24    2    1    2    0    0 -0.24223361391E+02 -0.91521632496E+02 -0.15730457273E+04  0.15778566988E+04  0.78714174221E+02 0.  0.
         25    2    1    2    0    0  0.42122020351E+01  0.12636354550E+03 -0.28370633216E+03  0.33484314189E+03  0.12508060795E+03 0.  0.
        -24    2    1    2    0    0  0.20011159356E+02 -0.34841913007E+02  0.65171149916E+02  0.10917216279E+03  0.77825940058E+02 0.  0.
        -13    1    3    3    0    0 -0.49749675686E+00  0.11321838191E+02 -0.55507067309E+02  0.56652149512E+02  0.00000000000E+00 0.  1.
         14    1    3    3    0    0 -0.23725864634E+02 -0.10284347069E+03 -0.15175386600E+04  0.15212045493E+04  0.00000000000E+00 0. -1.
         11    1    5    5    0    0  0.23914326087E+01 -0.89711544744E+01  0.75608851226E+02  0.76176761195E+02  0.00000000000E+00 0. -1.
        -12    1    5    5    0    0  0.17619726747E+02 -0.25870758532E+02 -0.10437701310E+02  0.32995401594E+02  0.00000000000E+00 0.  1.
          5    1    4    4  501    0  0.29186902021E+02  0.13518223528E+03 -0.27282873088E+03  0.30590701329E+03  0.41800000000E+01 0.  1.
         -5    1    4    4    0  501 -0.24974699986E+02 -0.88186897776E+01 -0.10877601273E+02  0.28936128598E+02  0.41800000000E+01 0.  1.
</event>
<event>
11    1  0.6455215E-009  0.1539804E+03  0.7561462E-02  0.1092880E+00
         22   -1    0    0    0    0  0.00000000000E+00  0.00000000000E+00  0.13990343361E+04  0.13990343361E+04  0.00000000000E+00 0.  1.
         22   -1    0    0    0    0 -0.00000000000E+00 -0.00000000000E+00 -0.10382845446E+04  0.10382845446E+04  0.00000000000E+00 0. -1.
        -24    2    1    2    0    0  0.72373510200E+02 -0.53233901004E+02 -0.10125612393E+04  0.10196788080E+04  0.79955205933E+02 0.  0.
         25    2    1    2    0    0 -0.79413743575E+02  0.34608543528E+02  0.25629490248E+03  0.29806329963E+03  0.12510139726E+03 0.  0.
         24    2    1    2    0    0  0.70402333746E+01  0.18625357476E+02  0.11170161283E+04  0.11195767731E+04  0.73011307211E+02 0.  0.
        -11    1    5    5    0    0  0.38882968606E+02  0.24319468184E+00  0.58887257225E+03  0.59015493791E+03  0.00000000000E+00 0.  1.
         12    1    5    5    0    0 -0.31842735232E+02  0.18382162794E+02  0.52814355609E+03  0.52942183515E+03  0.00000000000E+00 0. -1.
         11    1    3    3    0    0  0.84503980544E+02 -0.36482592070E+02 -0.64477780081E+03  0.65131429791E+03  0.00000000000E+00 0. -1.
        -12    1    3    3    0    0 -0.12130470344E+02 -0.16751308934E+02 -0.36778343850E+03  0.36836451010E+03  0.00000000000E+00 0.  1.
          5    1    4    4  501    0 -0.44314188458E+02 -0.38482249504E+02  0.16852016929E+03  0.17849692065E+03  0.41800000000E+01 0.  1.
         -5    1    4    4    0  501 -0.35099555117E+02  0.73090793032E+02  0.87774733193E+02  0.11956637898E+03  0.41800000000E+01 0.  1.
</event>
<event>
11    1  0.6455215E-009  0.1319901E+03  0.7561462E-02  0.1116848E+00
         22   -1    0    0    0    0  0.00000000000E+00  0.00000000000E+00  0.17991626871E+04  0.17991626871E+04  0.00000000000E+00 0.  1.
         22   -1    0    0    0    0 -0.00000000000E+00 -0.00000000000E+00 -0.24103699304E+03  0.24103699304E+03  0.00000000000E+00 0.  1.
        -24    2    1    2    0    0 -0.43010040469E+02 -0.46842265260E+01 -0.21910347504E+03  0.24159731772E+03  0.92147303788E+02 0.  0.
         25    2    1    2    0    0 -0.22945201147E+01 -0.26161053483E+02  0.43099916681E+03  0.44955749994E+03  0.12510794706E+03 0.  0.
         24    2    1    2    0    0  0.45304560584E+02  0.30845280009E+02  0.13462300023E+04  0.13490448624E+04  0.67697026618E+02 0.  0.
        -11    1    5    5    0    0  0.12815576879E+02 -0.11485104900E+01  0.96669331673E+03  0.96677894407E+03  0.00000000000E+00 0.  1.
         12    1    5    5    0    0  0.32488983705E+02  0.31993790499E+02  0.37953668553E+03  0.38226591838E+03  0.00000000000E+00 0. -1.
         13    1    3    3    0    0  0.17120561991E+00 -0.11303852871E+02  0.56494292139E+01  0.12638134813E+02  0.00000000000E+00 0. -1.
        -14    1    3    3    0    0 -0.43181246089E+02  0.66196263451E+01 -0.22475290426E+03  0.22895918291E+03  0.00000000000E+00 0.  1.
          5    1    4    4  501    0  0.33521768387E+02 -0.41169040397E+02  0.38731336647E+03  0.39095743386E+03  0.41800000000E+01 0.  1.
         -5    1    4    4    0  501 -0.35816288502E+02  0.15007986914E+02  0.43685800345E+02  0.58600066084E+02  0.41800000000E+01 0.  1.
</event>
<event>
11    1  0.6455215E-009  0.1363108E+03  0.7561462E-02  0.1111749E+00
         22   -1    0    0    0    0  0.00000000000E+00  0.00000000000E+00  0.19977515795E+03  0.19977515795E+03  0.00000000000E+00 0. -1.
         22   -1    0    0    0    0 -0.00000000000E+00 -0.00000000000E+00 -0.17536581652E+04  0.17536581652E+04  0.00000000000E+00 0.  1.
         24    2    1    2    0    0  0.29304140870E+02 -0.15893521451E+02 -0.16826828734E+04  0.16849843414E+04  0.81481541383E+02 0.  0.
         25    2    1    2    0    0 -0.11145390337E+02 -0.44600657949E+02  0.68870469776E+02  0.15001448146E+03  0.12509102536E+03 0.  0.
        -24    2    1    2    0    0 -0.18158750534E+02  0.60494179399E+02  0.59929396397E+02  0.11843450028E+03  0.80286439347E+02 0.  0.
        -13    1    3    3    0    0  0.15228823167E+02 -0.28422255182E+02 -0.15937903021E+04  0.15941164539E+04  0.00000000000E+00 0.  1.
         14    1    3    3    0    0  0.14075317703E+02  0.12528733731E+02 -0.88892571357E+02  0.90867887506E+02  0.00000000000E+00 0. -1.
         11    1    5    5    0    0 -0.67856877195E+01  0.16954366842E+02  0.69981306697E+02  0.72324818699E+02  0.00000000000E+00 0. -1.
        -12    1    5    5    0    0 -0.11373062814E+02  0.43539812557E+02 -0.10051910300E+02  0.46109681586E+02  0.00000000000E+00 0.  1.
          5    1    4    4  501    0 -0.21614049158E+01 -0.37173705550E+02 -0.31457944433E+02  0.48924745512E+02  0.41800000000E+01 0. -1.
         -5    1    4    4    0  501 -0.89839854211E+01 -0.74269523984E+01  0.10032841421E+03  0.10108973595E+03  0.41800000000E+01 0. -1.
</event>
<event>
11    1  0.6455215E-009  0.1838211E+03  0.7561462E-02  0.1066593E+00
         22   -1    0    0    0    0  0.00000000000E+00  0.00000000000E+00  0.19918443720E+03  0.19918443720E+03  0.00000000000E+00 0.  1.
         22   -1    0    0    0    0 -0.00000000000E+00 -0.00000000000E+00 -0.21286275150E+04  0.21286275150E+04  0.00000000000E+00 0.  1.
         24    2    1    2    0    0 -0.99876202061E+02  0.88236418685E+02 -0.19541840956E+04  0.19603723058E+04  0.80393882963E+02 0.  0.
         25    2    1    2    0    0  0.13605039427E+03 -0.98587035047E+02 -0.84944511605E+02  0.22603343860E+03  0.12508569883E+03 0.  0.
        -24    2    1    2    0    0 -0.36174192212E+02  0.10350616361E+02  0.10968552940E+03  0.14140620783E+03  0.80926465452E+02 0.  0.
        -13    1    3    3    0    0 -0.90549784006E+02  0.60249402657E+02 -0.10317828931E+04  0.10374994903E+04  0.00000000000E+00 0.  1.
         14    1    3    3    0    0 -0.93264180550E+01  0.27987016028E+02 -0.92240120250E+03  0.92287281546E+03  0.00000000000E+00 0. -1.
         13    1    5    5    0    0  0.18882495708E+01 -0.22938304238E+02  0.28286531007E+01  0.23189061346E+02  0.00000000000E+00 0. -1.
        -14    1    5    5    0    0 -0.38062441783E+02  0.33288920599E+02  0.10685687630E+03  0.11821714648E+03  0.00000000000E+00 0.  1.
          5    1    4    4  501    0  0.39489343322E+02 -0.96973336453E+02 -0.74989923719E+02  0.12885727484E+03  0.41800000000E+01 0. -1.
         -5    1    4    4    0  501  0.96561050951E+02 -0.16136985934E+01 -0.99545878863E+01  0.97176163764E+02  0.41800000000E+01 0. -1.
</event>
<event>
11    1  0.6455215E-009  0.1386528E+03  0.7561462E-02  0.1109072E+00
         22   -1    0    0    0    0  0.00000000000E+00  0.00000000000E+00  0.41308061956E+03  0.41308061956E+03  0.00000000000E+00 0. -1.
         22   -1    0    0    0    0 -0.00000000000E+00 -0.00000000000E+00 -0.20412018058E+04  0.20412018058E+04  0.00000000000E+00 0.  1.
         24    2    1    2    0    0 -0.47891979908E+02  0.49226096283E+02 -0.14989602212E+04  0.15027296617E+04  0.81227096592E+02 0.  0.
         25    2    1    2    0    0  0.36962721594E+00 -0.31158588382E+02 -0.52694517978E+03  0.54248265078E+03  0.12508081245E+03 0.  0.
        -24    2    1    2    0    0  0.47522352692E+02 -0.18067507901E+02  0.39778421478E+03  0.40907011281E+03  0.80754360984E+02 0.  0.
        -13    1    3    3    0    0 -0.13715325433E+02  0.43136316079E+02 -0.12982898675E+04  0.12990786858E+04  0.00000000000E+00 0.  1.
         14    1    3    3    0    0 -0.34176654475E+02  0.60897802043E+01 -0.20067035373E+03  0.20365097593E+03  0.00000000000E+00 0. -1.
         11    1    5    5    0    0  0.46557679590E+01 -0.21547628183E+02  0.31509456202E+03  0.31586478035E+03  0.00000000000E+00 0. -1.
        -12    1    5    5    0    0  0.42866584733E+02  0.34801202812E+01  0.82689652764E+02  0.93205332455E+02  0.00000000000E+00 0.  1.
          5    1    4    4  501    0 -0.42150945159E+02 -0.50663812818E+02 -0.42670418125E+03  0.43178403723E+03  0.41800000000E+01 0.  1.
         -5    1    4    4    0  501  0.42520572375E+02  0.19505224436E+02 -0.10024099853E+03  0.11069861355E+03  0.41800000000E+01 0.  1.
</event>
<event>
11    1  0.6455215E-009  0.1459904E+03  0.7561462E-02  0.1101048E+00
         22   -1    0    0    0    0  0.00000000000E+00  0.00000000000E+00  0.19364676774E+03  0.19364676774E+03  0.00000000000E+00 0.  1.
         22   -1    0    0    0    0 -0.00000000000E+00 -0.00000000000E+00 -0.53480190715E+03  0.53480190715E+03  0.00000000000E+00 0. -1.
        -24    2    1    2    0    0  0.52239873447E+02  0.53449991909E+02 -0.36726631670E+03  0.38274508688E+03  0.77610232137E+02 0.  0.
         25    2    1    2    0    0 -0.29338157419E+02 -0.78548249874E+02 -0.10732607640E+03  0.18492305142E+03  0.12508834172E+03 0.  0.
         24    2    1    2    0    0 -0.22901716028E+02  0.25098257965E+02  0.13343725369E+03  0.16078053659E+03  0.83008849669E+02 0.  0.
        -11    1    5    5    0    0  0.20831738505E+02 -0.18272899353E+02  0.34689441679E+02  0.44398395735E+02  0.00000000000E+00 0.  1.
         12    1    5    5    0    0 -0.43733454532E+02  0.43371157318E+02  0.98747812010E+02  0.11638214085E+03  0.00000000000E+00 0. -1.
         11    1    3    3    0    0  0.47730030365E+02  0.62247733700E+02 -0.36396566074E+03  0.37232235811E+03  0.00000000000E+00 0. -1.
        -12    1    3    3    0    0  0.45098430829E+01 -0.87977417912E+01 -0.33006559647E+01  0.10422728772E+02  0.00000000000E+00 0.  1.
          5    1    4    4  501    0 -0.34793485783E+02 -0.99039887098E+02 -0.12029932091E+03  0.15971501150E+03  0.41800000000E+01 0. -1.
         -5    1    4    4    0  501  0.54553283638E+01  0.20491637224E+02  0.12973244504E+02  0.25208039920E+02  0.41800000000E+01 0. -1.
</event>
<event>
11    1  0.6455215E-009  0.1441497E+03  0.7561462E-02  0.1103011E+00
         22   -1    0    0    0    0  0.00000000000E+00  0.00000000000E+00  0.79679724198E+03  0.79679724198E+03  0.00000000000E+00 0.  1.
         22   -1    0    0    0    0 -0.00000000000E+00 -0.00000000000E+00 -0.18723855670E+03  0.18723855670E+03  0.00000000000E+00 0.  1.
        -24    2    1    2    0    0  0.50077525499E+01 -0.24460344529E+02 -0.11973432369E+03  0.14629103337E+03  0.80258159297E+02 0.  0.
         25    2    1    2    0    0  0.66550384532E+02  0.14282244852E+02  0.51617848012E+02  0.15147495769E+03  0.12508926563E+03 0.  0.
         24    2    1    2    0    0 -0.71558137082E+02  0.10178099676E+02  0.67767516096E+03  0.68626980762E+03  0.80613053399E+02 0.  0.
        -13    1    5    5    0    0 -0.80538554039E+02  0.20273234032E+02  0.65189020511E+03  0.65715926701E+03  0.00000000000E+00 0.  1.
         14    1    5    5    0    0  0.89804169569E+01 -0.10095134356E+02  0.25784955851E+02  0.29110540610E+02  0.00000000000E+00 0. -1.
         11    1    3    3    0    0  0.19671118487E+01 -0.43902787983E+02 -0.27191035252E+02  0.51678590536E+02  0.00000000000E+00 0. -1.
        -12    1    3    3    0    0  0.30406407013E+01  0.19442443454E+02 -0.92543288440E+02  0.94612442832E+02  0.00000000000E+00 0.  1.
          5    1    4    4  501    0  0.51677825056E+02  0.64357749721E+02  0.75198993466E+01  0.82985172398E+02  0.41800000000E+01 0.  1.
         -5    1    4    4    0  501  0.14872559476E+02 -0.50075504869E+02  0.44097948666E+02  0.68489785295E+02  0.41800000000E+01 0.  1.
</event>
<event>
11    1  0.6455215E-009  0.1396325E+03  0.7561462E-02  0.1107969E+00
         22   -1    0    0    0    0  0.00000000000E+00  0.00000000000E+00  0.10070460680E+04  0.10070460680E+04  0.00000000000E+00 0. -1.
         22   -1    0    0    0    0 -0.00000000000E+00 -0.00000000000E+00 -0.34544259245E+03  0.34544259245E+03  0.00000000000E+00 0. -1.
         24    2    1    2    0    0  0.16793710019E+02  0.46083387927E+02 -0.28345228331E+03  0.29824413936E+03  0.78731584570E+02 0.  0.
         25    2    1    2    0    0  0.34960543349E+02 -0.79244123042E+02  0.59727825838E+02  0.16345146944E+03  0.12508836498E+03 0.  0.
        -24    2    1    2    0    0 -0.51754253368E+02  0.33160735115E+02  0.88532793300E+03  0.89079305162E+03  0.76997238753E+02 0.  0.
        -13    1    3    3    0    0 -0.28896758477E+02  0.35552316229E+02 -0.13487825550E+03  0.14244695029E+03  0.00000000000E+00 0.  1.
         14    1    3    3    0    0  0.45690468496E+02  0.10531071698E+02 -0.14857402781E+03  0.15579718907E+03  0.00000000000E+00 0. -1.
         13    1    5    5    0    0 -0.62738246140E+02  0.95372699229E-01  0.50786472464E+03  0.51172519497E+03  0.00000000000E+00 0. -1.
        -14    1    5    5    0    0  0.10983992772E+02  0.33065362416E+02  0.37746320835E+03  0.37906785666E+03  0.00000000000E+00 0.  1.
          5    1    4    4  501    0 -0.45519337477E+02 -0.22314990616E+02  0.34959513515E+02  0.61722029096E+02  0.41800000000E+01 0.  1.
         -5    1    4    4    0  501  0.80479880826E+02 -0.56929132426E+02  0.24768312323E+02  0.10172944034E+03  0.41800000000E+01 0.  1.
</event>
<event>
11    1  0.6455215E-009  0.1483684E+03  0.7561462E-02  0.1098558E+00
         22   -1    0    0    0    0  0.00000000000E+00  0.00000000000E+00  0.16082836190E+04  0.16082836190E+04  0.00000000000E+00 0.  1.
         22   -1    0    0    0    0 -0.00000000000E+00 -0.00000000000E+00 -0.67252438936E+03  0.67252438936E+03  0.00000000000E+00 0.  1.
        -24    2    1    2    0    0 -0.76202386555E+02  0.22761424319E+02 -0.62228233547E+03  0.63253693393E+03  0.80887462512E+02 0.  0.
         25    2    1    2    0    0  0.74053612982E+02 -0.53718607205E+02  0.93056718343E+02  0.18076828686E+03  0.12509194358E+03 0.  0.
         24    2    1    2    0    0  0.21487735733E+01  0.30957182886E+02  0.14649848468E+04  0.14675027876E+04  0.80130305524E+02 0.  0.
        -13    1    5    5    0    0  0.31870837791E+02 -0.11603235995E+02  0.54459082152E+03  0.54564599171E+03  0.00000000000E+00 0.  1.
         14    1    5    5    0    0 -0.29722064218E+02  0.42560418881E+02  0.92039402529E+03  0.92185679590E+03  0.00000000000E+00 0. -1.
         13    1    3    3    0    0 -0.23859898963E+02 -0.29352640010E+02 -0.16139816105E+03  0.16577164608E+03  0.00000000000E+00 0. -1.
        -14    1    3    3    0    0 -0.52342487592E+02  0.52114064329E+02 -0.46088417442E+03  0.46676528785E+03  0.00000000000E+00 0.  1.
          5    1    4    4  501    0  0.19058931392E+02 -0.25645340871E+02  0.11160301218E+03  0.11616208978E+03  0.41800000000E+01 0. -1.
         -5    1    4    4    0  501  0.54994681590E+02 -0.28073266334E+02 -0.18546293836E+02  0.64606197078E+02  0.41800000000E+01 0. -1.
</event>
<event>
11    1  0.6455215E-009  0.1403842E+03  0.7561462E-02  0.1107130E+00
         22   -1    0    0    0    0  0.00000000000E+00  0.00000000000E+00  0.14753024570E+03  0.14753024570E+03  0.00000000000E+00 0. -1.
         22   -1    0    0    0    0 -0.00000000000E+00 -0.00000000000E+00 -0.81615918608E+03  0.81615918608E+03  0.00000000000E+00 0. -1.
         24    2    1    2    0    0  0.30955315410E+02 -0.17996638968E+02 -0.43042073516E+03  0.43923612912E+03  0.79901547549E+02 0.  0.
         25    2    1    2    0    0  0.36347302466E+01  0.71583338305E+02 -0.34544752305E+03  0.37432473793E+03  0.12509049788E+03 0.  0.
        -24    2    1    2    0    0 -0.34590045656E+02 -0.53586699336E+02  0.10723931782E+03  0.15012856473E+03  0.83488376773E+02 0.  0.
        -11    1    3    3    0    0  0.58155503687E+02 -0.94111242694E+01 -0.30070128722E+03  0.30641784544E+03  0.00000000000E+00 0.  1.
         12    1    3    3    0    0 -0.27200188278E+02 -0.85855146990E+01 -0.12971944795E+03  0.13281828368E+03  0.00000000000E+00 0. -1.
         13    1    5    5    0    0 -0.14818157732E+02  0.10300757390E+02  0.72607313633E+02  0.74816478094E+02  0.00000000000E+00 0. -1.
        -14    1    5    5    0    0 -0.19771887924E+02 -0.63887456726E+02  0.34632004188E+02  0.75312086633E+02  0.00000000000E+00 0.  1.
          5    1    4    4  501    0  0.53293456777E+02  0.70260176340E+02 -0.26848132288E+03  0.28262409319E+03  0.41800000000E+01 0.  1.
         -5    1    4    4    0  501 -0.49658726530E+02  0.13231619643E+01 -0.76966200165E+02  0.91700644741E+02  0.41800000000E+01 0.  1.
</event>
<event>
11    1  0.6455215E-009  0.3838524E+03  0.7561462E-02  0.9698641E-01
         22   -1    0    0    0    0  0.00000000000E+00  0.00000000000E+00  0.17700971043E+04  0.17700971043E+04  0.00000000000E+00 0. -1.
         22   -1    0    0    0    0 -0.00000000000E+00 -0.00000000000E+00 -0.87641805785E+03  0.87641805785E+03  0.00000000000E+00 0. -1.
        -24    2    1    2    0    0 -0.19658857264E+03  0.29877384875E+03 -0.50091281156E+03  0.62069027668E+03  0.80186627245E+02 0.  0.
         25    2    1    2    0    0  0.21763581823E+03 -0.30406328157E+03 -0.19083934134E+03  0.43804867790E+03  0.12508861430E+03 0.  0.
         24    2    1    2    0    0 -0.21047245588E+02  0.52894328194E+01  0.15854311994E+04  0.15877762076E+04  0.83487919852E+02 0.  0.
        -11    1    5    5    0    0 -0.11672343494E+02  0.38635964929E+02  0.44707979575E+03  0.44889790060E+03  0.00000000000E+00 0.  1.
         12    1    5    5    0    0 -0.93749020939E+01 -0.33346532109E+02  0.11383514036E+04  0.11388783070E+04  0.00000000000E+00 0. -1.
         13    1    3    3    0    0 -0.68114613125E+02  0.91443897276E+02 -0.10130621469E+03  0.15252716481E+03  0.00000000000E+00 0. -1.
        -14    1    3    3    0    0 -0.12847395951E+03  0.20732995148E+03 -0.39960659688E+03  0.46816311187E+03  0.00000000000E+00 0.  1.
          5    1    4    4  501    0  0.40119565756E+02 -0.20463053157E+02  0.11961918836E+02  0.46785425115E+02  0.41800000000E+01 0.  1.
         -5    1    4    4    0  501  0.17751625247E+03 -0.28360022842E+03 -0.20280126018E+03  0.39126325278E+03  0.41800000000E+01 0.  1.
</event>
<event>
11    1  0.6455215E-009  0.1632937E+03  0.7561462E-02  0.1084020E+00
         22   -1    0    0    0    0  0.00000000000E+00  0.00000000000E+00  0.23547162667E+04  0.23547162667E+04  0.00000000000E+00 0. -1.
         22   -1    0    0    0    0 -0.00000000000E+00 -0.00000000000E+00 -0.16265143027E+03  0.16265143027E+03  0.00000000000E+00 0.  1.
        -24    2    1    2    0    0  0.54491242170E+02 -0.91094597115E+02 -0.12034137858E+03  0.17876481087E+03  0.78786351039E+02 0.  0.
         25    2    1    2    0    0 -0.57966207102E+02  0.64959149235E+02  0.46614789213E+03  0.49042931388E+03  0.12508909760E+03 0.  0.
         24    2    1    2    0    0  0.34749649312E+01  0.26135447880E+02  0.18462583229E+04  0.18481735722E+04  0.79878790746E+02 0.  0.
        -13    1    5    5    0    0 -0.15134856132E+02 -0.22992403145E+02  0.39123653850E+03  0.39220370157E+03  0.00000000000E+00 0.  1.
         14    1    5    5    0    0  0.18609821063E+02  0.49127851025E+02  0.14550217844E+04  0.14559698706E+04  0.00000000000E+00 0. -1.
         13    1    3    3    0    0  0.62592844093E+02 -0.30108979659E+02 -0.51691457799E+02  0.86581877995E+02  0.00000000000E+00 0. -1.
        -14    1    3    3    0    0 -0.81016019223E+01 -0.60985617456E+02 -0.68649920784E+02  0.92182932877E+02  0.00000000000E+00 0.  1.
          5    1    4    4  501    0 -0.31850080463E+02  0.20498623248E+02  0.41807718026E+03  0.41981022169E+03  0.41800000000E+01 0.  1.
         -5    1    4    4    0  501 -0.26116126639E+02  0.44460525988E+02  0.48070711870E+02  0.70619092188E+02  0.41800000000E+01 0.  1.
</event>
<event>
11    1  0.6455215E-009  0.2627309E+03  0.7561462E-02  0.1017328E+00
         22   -1    0    0    0    0  0.00000000000E+00  0.00000000000E+00  0.92473063866E+03  0.92473063866E+03  0.00000000000E+00 0. -1.
         22   -1    0    0    0    0 -0.00000000000E+00 -0.00000000000E+00 -0.35526162012E+03  0.35526162012E+03  0.00000000000E+00 0.  1.
        -24    2    1    2    0    0  0.22152381332E+03  0.47082067954E+02 -0.23672389576E+03  0.33760950026E+03  0.81562557906E+02 0.  0.
         25    2    1    2    0    0 -0.26444188172E+03 -0.87203862860E+01  0.26728982703E+03  0.39635493796E+03  0.12509129175E+03 0.  0.
         24    2    1    2    0    0  0.42918068393E+02 -0.38361681668E+02  0.53890308728E+03  0.54602782056E+03  0.66454978218E+02 0.  0.
        -13    1    5    5    0    0 -0.72534133895E+01  0.37527190330E+01  0.92489061258E+01  0.12338442789E+02  0.00000000000E+00 0.  1.
         14    1    5    5    0    0  0.50171481782E+02 -0.42114400701E+02  0.52965418115E+03  0.53368937777E+03  0.00000000000E+00 0. -1.
         13    1    3    3    0    0  0.28027389464E+02  0.33830218289E+02 -0.25280373051E+02  0.50686442874E+02  0.00000000000E+00 0. -1.
        -14    1    3    3    0    0  0.19349642386E+03  0.13251849665E+02 -0.21144352271E+03  0.28692305739E+03  0.00000000000E+00 0.  1.
          5    1    4    4  501    0 -0.16307324231E+03 -0.21653470899E+02  0.80032420742E+02  0.18298747479E+03  0.41800000000E+01 0.  1.
         -5    1    4    4    0  501 -0.10136863941E+03  0.12933084613E+02  0.18725740629E+03  0.21336746318E+03  0.41800000000E+01 0.  1.
</event>
<event>
11    1  0.6455215E-009  0.1382609E+03  0.7561462E-02  0.1109516E+00
         22   -1    0    0    0    0  0.00000000000E+00  0.00000000000E+00  0.49109458689E+03  0.49109458689E+03  0.00000000000E+00 0.  1.
         22   -1    0    0    0    0 -0.00000000000E+00 -0.00000000000E+00 -0.30497931457E+04  0.30497931457E+04  0.00000000000E+00 0. -1.
         24    2    1    2    0    0  0.54737208032E+01 -0.42731221120E+02 -0.30166407667E+04  0.30179724994E+04  0.78616617327E+02 0.  0.
         25    2    1    2    0    0 -0.57843344802E+01 -0.31356969686E+02  0.17842240970E+03  0.22022483873E+03  0.12509078797E+03 0.  0.
        -24    2    1    2    0    0  0.31061367696E+00  0.74088190806E+02  0.27951979820E+03  0.30269039452E+03  0.89448313860E+02 0.  0.
        -11    1    3    3    0    0 -0.15016821605E+02 -0.57734116151E+02 -0.16144538172E+04  0.16155555889E+04  0.00000000000E+00 0.  1.
         12    1    3    3    0    0  0.20490542408E+02  0.15002895030E+02 -0.14021869495E+04  0.14024169104E+04  0.00000000000E+00 0. -1.
         13    1    5    5    0    0 -0.24765666503E+02  0.83582905209E+02  0.18622886178E+03  0.20562254070E+03  0.00000000000E+00 0. -1.
        -14    1    5    5    0    0  0.25076280180E+02 -0.94947144029E+01  0.93290936415E+02  0.97067853827E+02  0.00000000000E+00 0.  1.
          5    1    4    4  501    0 -0.40907881399E+02 -0.25519057476E+02  0.11832634970E+02  0.49821287672E+02  0.41800000000E+01 0.  1.
         -5    1    4    4    0  501  0.35123546919E+02 -0.58379122097E+01  0.16658977473E+03  0.17040355106E+03  0.41800000000E+01 0.  1.
</event>
<event>
11    1  0.6455215E-009  0.1465202E+03  0.7561462E-02  0.1100488E+00
         22   -1    0    0    0    0  0.00000000000E+00  0.00000000000E+00  0.58930683630E+03  0.58930683630E+03  0.00000000000E+00 0.  1.
         22   -1    0    0    0    0 -0.00000000000E+00 -0.00000000000E+00 -0.52607420287E+03  0.52607420287E+03  0.00000000000E+00 0. -1.
        -24    2    1    2    0    0  0.19119385862E+02 -0.12054974063E+02 -0.49075308689E+03  0.49783281981E+03  0.80548438062E+02 0.  0.
         25    2    1    2    0    0  0.13625773318E+02 -0.62396832643E+02  0.19033806001E+03  0.23654665098E+03  0.12508682817E+03 0.  0.
         24    2    1    2    0    0 -0.32745159180E+02  0.74451806706E+02  0.36364766031E+03  0.38100156838E+03  0.79418242794E+02 0.  0.
        -11    1    5    5    0    0 -0.42063071075E+02  0.63015742939E+02  0.35676900687E+03  0.36472511577E+03  0.00000000000E+00 0.  1.
         12    1    5    5    0    0  0.93179118947E+01  0.11436063767E+02  0.68786534353E+01  0.16276452612E+02  0.00000000000E+00 0. -1.
         11    1    3    3    0    0  0.42054075867E+02  0.17791605177E+02 -0.29164442831E+03  0.29519749165E+03  0.00000000000E+00 0. -1.
        -12    1    3    3    0    0 -0.22934690005E+02 -0.29846579240E+02 -0.19910865858E+03  0.20263532816E+03  0.00000000000E+00 0.  1.
          5    1    4    4  501    0 -0.38658036488E+02 -0.83063334482E+01  0.98487507675E+01  0.40962290611E+02  0.41800000000E+01 0.  1.
         -5    1    4    4    0  501  0.52283809806E+02 -0.54090499195E+02  0.18048930924E+03  0.19558436037E+03  0.41800000000E+01 0.  1.
</event>
<event>
11    1  0.6455215E-009  0.2085082E+03  0.7561462E-02  0.1048665E+00
         22   -1    0    0    0    0  0.00000000000E+00  0.00000000000E+00  0.48517112328E+03  0.48517112328E+03  0.00000000000E+00 0. -1.
         22   -1    0    0    0    0 -0.00000000000E+00 -0.00000000000E+00 -0.12395623973E+03  0.12395623973E+03  0.00000000000E+00 0.  1.
        -24    2    1    2    0    0  0.14717109778E+02 -0.17734215671E+03  0.83978462299E+02  0.21254734208E+03  0.80356434890E+02 0.  0.
         25    2    1    2    0    0 -0.46774759467E+02  0.14478577595E+03  0.18714048163E+03  0.27170210490E+03  0.12509866066E+03 0.  0.
         24    2    1    2    0    0  0.32057649689E+02  0.32556380758E+02  0.90095939620E+02  0.12487791603E+03  0.73413927455E+02 0.  0.
        -13    1    5    5    0    0  0.12708877290E+02 -0.35600120278E+01 -0.10105858628E+02  0.16622804403E+02  0.00000000000E+00 0.  1.
         14    1    5    5    0    0  0.19348772399E+02  0.36116392786E+02  0.10020179825E+03  0.10825511163E+03  0.00000000000E+00 0. -1.
         13    1    3    3    0    0 -0.85376786685E+01 -0.10979895411E+03  0.88043016829E+02  0.14099742939E+03  0.00000000000E+00 0. -1.
        -14    1    3    3    0    0  0.23254788447E+02 -0.67543202599E+02 -0.40645545300E+01  0.71549912695E+02  0.00000000000E+00 0.  1.
          5    1    4    4  501    0 -0.21394489836E+02  0.55368051295E+02  0.16592202139E+03  0.17626949504E+03  0.41800000000E+01 0.  1.
         -5    1    4    4    0  501 -0.25380269631E+02  0.89417724657E+02  0.21218460246E+02  0.95432609859E+02  0.41800000000E+01 0.  1.
</event>
<event>
11    1  0.6455215E-009  0.1356784E+03  0.7561462E-02  0.1112482E+00
         22   -1    0    0    0    0  0.00000000000E+00  0.00000000000E+00  0.68514598121E+03  0.68514598121E+03  0.00000000000E+00 0. -1.
         22   -1    0    0    0    0 -0.00000000000E+00 -0.00000000000E+00 -0.31009222555E+03  0.31009222555E+03  0.00000000000E+00 0.  1.
         24    2    1    2    0    0 -0.15214769769E+02 -0.50921811254E+02 -0.26250099766E+03  0.28233639318E+03  0.89345089748E+02 0.  0.
         25    2    1    2    0    0  0.18145059742E+02  0.41355348318E+02  0.92969749666E+02  0.16226615864E+03  0.12508966328E+03 0.  0.
        -24    2    1    2    0    0 -0.29302899731E+01  0.95664629360E+01  0.54458500364E+03  0.55063565494E+03  0.80787960048E+02 0.  0.
        -13    1    3    3    0    0  0.12032272733E+02 -0.13343433045E+02 -0.21560827905E+03  0.21635561649E+03  0.00000000000E+00 0.  1.
         14    1    3    3    0    0 -0.27247042502E+02 -0.37578378209E+02 -0.46892718606E+02  0.65980776687E+02  0.00000000000E+00 0. -1.
         13    1    5    5    0    0 -0.38447902316E+02  0.19269232173E+02  0.34640630623E+03  0.34906571515E+03  0.00000000000E+00 0. -1.
        -14    1    5    5    0    0  0.35517612343E+02 -0.97027692371E+01  0.19817869742E+03  0.20156993979E+03  0.00000000000E+00 0.  1.
          5    1    4    4  501    0  0.41302789202E+02 -0.32224331421E+02  0.20707303206E+02  0.56485332056E+02  0.41800000000E+01 0.  1.
         -5    1    4    4    0  501 -0.23157729460E+02  0.73579679739E+02  0.72262446460E+02  0.10578082658E+03  0.41800000000E+01 0.  1.
</event>
<event>
11    1  0.6455215E-009  0.1609604E+03  0.7561462E-02  0.1086177E+00
         22   -1    0    0    0    0  0.00000000000E+00  0.00000000000E+00  0.36806563453E+03  0.36806563453E+03  0.00000000000E+00 0.  1.
         22   -1    0    0    0    0 -0.00000000000E+00 -0.00000000000E+00 -0.21998135121E+03  0.21998135121E+03  0.00000000000E+00 0. -1.
        -24    2    1    2    0    0 -0.91796726261E+01  0.35575531748E+02 -0.12956543916E+03  0.15651099128E+03  0.79740845974E+02 0.  0.
         25    2    1    2    0    0  0.45103996023E+02  0.66262887183E+02  0.32497845765E+02  0.15208207010E+03  0.12509078860E+03 0.  0.
         24    2    1    2    0    0 -0.35924323397E+02 -0.10183841893E+03  0.24515187672E+03  0.27945392436E+03  0.79582866237E+02 0.  0.
        -13    1    5    5    0    0  0.96888929208E+01 -0.83295346819E+02  0.17082128329E+03  0.19029424656E+03  0.00000000000E+00 0.  1.
         14    1    5    5    0    0 -0.45613216318E+02 -0.18543072112E+02  0.74330593430E+02  0.89159677802E+02  0.00000000000E+00 0. -1.
         11    1    3    3    0    0 -0.18691251046E+02 -0.20601935582E+02 -0.24860935005E+02  0.37307756630E+02  0.00000000000E+00 0. -1.
        -12    1    3    3    0    0  0.95115784201E+01  0.56177467330E+02 -0.10470450416E+03  0.11920323465E+03  0.00000000000E+00 0.  1.
          5    1    4    4  501    0 -0.41173756686E+02  0.93595680119E+01  0.22859369848E+02  0.48196503430E+02  0.41800000000E+01 0. -1.
         -5    1    4    4    0  501  0.86277752710E+02  0.56903319171E+02  0.96384759166E+01  0.10388556667E+03  0.41800000000E+01 0. -1.
</event>
<event>
11    1  0.6455215E-009  0.4128397E+03  0.7561462E-02  0.9612615E-01
         22   -1    0    0    0    0  0.00000000000E+00  0.00000000000E+00  0.67528608592E+03  0.67528608592E+03  0.00000000000E+00 0. -1.
         22   -1    0    0    0    0 -0.00000000000E+00 -0.00000000000E+00 -0.20808693995E+04  0.20808693995E+04  0.00000000000E+00 0. -1.
         24    2    1    2    0    0 -0.39466333062E+03 -0.18039660504E+02 -0.17569106955E+04  0.18025780366E+04  0.80422708543E+02 0.  0.
         25    2    1    2    0    0  0.38144572133E+03  0.50731831581E+02 -0.16020364818E+03  0.43518331109E+03  0.12507896827E+03 0.  0.
        -24    2    1    2    0    0  0.13217609295E+02 -0.32692171078E+02  0.51153103015E+03  0.51839413773E+03  0.76321713742E+02 0.  0.
        -11    1    3    3    0    0 -0.23634646804E+03 -0.38547233673E+00 -0.87298030434E+03  0.90440832222E+03  0.00000000000E+00 0.  1.
         12    1    3    3    0    0 -0.15831686258E+03 -0.17654188167E+02 -0.88393039120E+03  0.89816971438E+03  0.00000000000E+00 0. -1.
         11    1    5    5    0    0  0.25230107396E+02 -0.43940078759E+02  0.48142461815E+03  0.48408362067E+03  0.00000000000E+00 0. -1.
        -12    1    5    5    0    0 -0.12012498101E+02  0.11247907682E+02  0.30106411997E+02  0.34310517064E+02  0.00000000000E+00 0.  1.
          5    1    4    4  501    0  0.11898185957E+03 -0.41063001728E+02 -0.39050068830E+02  0.13185307465E+03  0.41800000000E+01 0.  1.
         -5    1    4    4    0  501  0.26246386176E+03  0.91794833310E+02 -0.12115357935E+03  0.30333023644E+03  0.41800000000E+01 0.  1.
</event>
<event>
11    1  0.8275277E-009  0.1797316E+03  0.7561462E-02  0.1069860E+00
         22   -1    0    0    0    0  0.00000000000E+00  0.00000000000E+00  0.13833717656E+04  0.13833717656E+04  0.00000000000E+00 0. -1.
         22   -1    0    0    0    0 -0.00000000000E+00 -0.00000000000E+00 -0.85574728937E+03  0.85574728937E+03  0.00000000000E+00 0. -1.
         24    2    1    2    0    0 -0.66623437229E+02 -0.50301808203E+02 -0.71225486273E+03  0.72138909154E+03  0.78270541209E+02 0.  0.
         25    2    1    2    0    0 -0.75199066564E+01  0.15579247409E+03 -0.60180775539E+02  0.20879893381E+03  0.12508966798E+03 0.  0.
        -24    2    1    2    0    0  0.74143343885E+02 -0.10549066589E+03  0.13000601145E+04  0.13089310296E+04  0.80737989650E+02 0.  0.
        -11    1    3    3    0    0 -0.46738852248E+02  0.12621709204E+02 -0.29319033556E+03  0.29716056387E+03  0.00000000000E+00 0.  1.
         12    1    3    3    0    0 -0.19884584981E+02 -0.62923517408E+02 -0.41906452717E+03  0.42422852768E+03  0.00000000000E+00 0. -1.
         13    1    5    5    0    0  0.30562390245E+02 -0.76300716617E+02  0.10612503707E+04  0.10644285831E+04  0.00000000000E+00 0. -1.
        -14    1    5    5    0    0  0.43580953640E+02 -0.29189949269E+02  0.23880974373E+03  0.24450244653E+03  0.00000000000E+00 0.  1.
          5    1    4    4  501    0 -0.63121612164E+02  0.10349335728E+03 -0.21732468640E+02  0.12322737324E+03  0.41800000000E+01 0.  1.
         -5    1    4    4    0  501  0.55601705508E+02  0.52299116815E+02 -0.38448306899E+02  0.85571560570E+02  0.41800000000E+01 0.  1.
</event>
<event>
11    1  0.6455215E-009  0.1446960E+03  0.7561462E-02  0.1102425E+00
         22   -1    0    0    0    0  0.00000000000E+00  0.00000000000E+00  0.64170794000E+02  0.64170794000E+02  0.00000000000E+00 0. -1.
         22   -1    0    0    0    0 -0.00000000000E+00 -0.00000000000E+00 -0.31673490417E+04  0.31673490417E+04  0.00000000000E+00 0.  1.
        -24    2    1    2    0    0  0.25890227354E+02  0.34488851544E+02 -0.24544692783E+04  0.24561269368E+04  0.79248385207E+02 0.  0.
         25    2    1    2    0    0  0.17640235903E+02  0.28342431776E+02 -0.64445838531E+03  0.65733358415E+03  0.12508540718E+03 0.  0.
         24    2    1    2    0    0 -0.43530463257E+02 -0.62831283321E+02 -0.42505840880E+01  0.11805931480E+03  0.89873594295E+02 0.  0.
        -11    1    5    5    0    0  0.80099039214E+01 -0.53713177441E+02 -0.27399989260E+02  0.60827817674E+02  0.00000000000E+00 0.  1.
         12    1    5    5    0    0 -0.51540367178E+02 -0.91181058799E+01  0.23149405172E+02  0.57231497128E+02  0.00000000000E+00 0. -1.
         13    1    3    3    0    0  0.57370327619E+01 -0.25752897723E+02 -0.81724341386E+03  0.81766920131E+03  0.00000000000E+00 0. -1.
        -14    1    3    3    0    0  0.20153194592E+02  0.60241749267E+02 -0.16372258645E+04  0.16384577355E+04  0.00000000000E+00 0.  1.
          5    1    4    4  501    0  0.19253476789E+02 -0.35740623158E+02 -0.85995854891E+02  0.95188486544E+02  0.41800000000E+01 0.  1.
         -5    1    4    4    0  501 -0.16132408858E+01  0.64083054934E+02 -0.55846253042E+03  0.56214509760E+03  0.41800000000E+01 0.  1.
</event>
<event>
11    1  0.6455215E-009  0.1290221E+03  0.7561462E-02  0.1120476E+00
         22   -1    0    0    0    0  0.00000000000E+00  0.00000000000E+00  0.15897363577E+04  0.15897363577E+04  0.00000000000E+00 0. -1.
         22   -1    0    0    0    0 -0.00000000000E+00 -0.00000000000E+00 -0.34125160003E+02  0.34125160003E+02  0.00000000000E+00 0. -1.
        -24    2    1    2    0    0  0.21120268848E+02  0.17311096775E+02  0.44082908961E+02  0.95104389111E+02  0.79723284791E+02 0.  0.
         25    2    1    2    0    0 -0.43732129073E+02  0.18778569585E+01  0.67293766832E+03  0.68586383640E+03  0.12509225066E+03 0.  0.
         24    2    1    2    0    0  0.22611860225E+02 -0.19188953734E+02  0.83859062044E+03  0.84289329221E+03  0.79720519363E+02 0.  0.
        -11    1    5    5    0    0 -0.10112630512E+02 -0.27954143966E+02  0.12451156578E+03  0.12801105216E+03  0.00000000000E+00 0.  1.
         12    1    5    5    0    0  0.32724490737E+02  0.87651902318E+01  0.71407905465E+03  0.71488224006E+03  0.00000000000E+00 0. -1.
         11    1    3    3    0    0  0.20706648217E+02  0.27571127108E+02 -0.13190500999E+02  0.36917768717E+02  0.00000000000E+00 0. -1.
        -12    1    3    3    0    0  0.41362063099E+00 -0.10260030333E+02  0.57273409960E+02  0.58186620394E+02  0.00000000000E+00 0.  1.
          5    1    4    4  501    0 -0.86507896883E+02  0.53308208396E+01  0.38080046694E+03  0.39056177731E+03  0.41800000000E+01 0.  1.
         -5    1    4    4    0  501  0.42775767810E+02 -0.34529638811E+01  0.29213720138E+03  0.29530205909E+03  0.41800000000E+01 0.  1.
</event>
<event>
11    1  0.6455215E-009  0.1453501E+03  0.7561462E-02  0.1101727E+00
         22   -1    0    0    0    0  0.00000000000E+00  0.00000000000E+00  0.20911701947E+04  0.20911701947E+04  0.00000000000E+00 0. -1.
         22   -1    0    0    0    0 -0.00000000000E+00 -0.00000000000E+00 -0.11127577242E+03  0.11127577242E+03  0.00000000000E+00 0.  1.
         24    2    1    2    0    0 -0.64972203279E+02 -0.38326003297E+02 -0.69782898785E+02  0.13032062808E+03  0.80147011245E+02 0.  0.
         25    2    1    2    0    0  0.11087735780E+02  0.73166901184E+02  0.54964080189E+03  0.56853259494E+03  0.12509183462E+03 0.  0.
        -24    2    1    2    0    0  0.53884467499E+02 -0.34840897886E+02  0.15000365192E+04  0.15035927441E+04  0.81019487007E+02 0.  0.
        -11    1    3    3    0    0 -0.81965035910E+02 -0.30295490540E+02 -0.42451166254E+02  0.97150323598E+02  0.00000000000E+00 0.  1.
         12    1    3    3    0    0  0.16992832631E+02 -0.80305127569E+01 -0.27331732531E+02  0.33170304478E+02  0.00000000000E+00 0. -1.
         11    1    5    5    0    0  0.61236333650E+02  0.32335010591E+01  0.10910817352E+04  0.10928035949E+04  0.00000000000E+00 0. -1.
        -12    1    5    5    0    0 -0.73518661508E+01 -0.38074398945E+02  0.40895478398E+03  0.41078914923E+03  0.00000000000E+00 0.  1.
          5    1    4    4  501    0  0.25830054210E+02  0.65324051422E+02  0.12424818389E+03  0.14279183098E+03  0.41800000000E+01 0. -1.
         -5    1    4    4    0  501 -0.14742318430E+02  0.78428497620E+01  0.42539261801E+03  0.42574076396E+03  0.41800000000E+01 0. -1.
</event>
<event>
11    1  0.6455215E-009  0.1826576E+03  0.7561462E-02  0.1067513E+00
         22   -1    0    0    0    0  0.00000000000E+00  0.00000000000E+00  0.51419024672E+03  0.51419024672E+03  0.00000000000E+00 0. -1.
         22   -1    0    0    0    0 -0.00000000000E+00 -0.00000000000E+00 -0.27673900042E+03  0.27673900042E+03  0.00000000000E+00 0. -1.
         24    2    1    2    0    0 -0.12944206272E+03  0.46779986587E+02 -0.18149557028E+03  0.24172205966E+03  0.80903011999E+02 0.  0.
         25    2    1    2    0    0  0.11983972124E+03 -0.23642095636E+00  0.68142876794E+02  0.18615128542E+03  0.12508890728E+03 0.  0.
        -24    2    1    2    0    0  0.96023414809E+01 -0.46543565631E+02  0.35080393978E+03  0.36305590205E+03  0.80546107195E+02 0.  0.
        -11    1    3    3    0    0 -0.84836684829E+02  0.19632173016E+02 -0.50406145142E+02  0.10061543012E+03  0.00000000000E+00 0.  1.
         12    1    3    3    0    0 -0.44605377894E+02  0.27147813571E+02 -0.13108942514E+03  0.14110662954E+03  0.00000000000E+00 0. -1.
         11    1    5    5    0    0  0.21532827373E+02 -0.42529828175E+02  0.34648364946E+03  0.34974757795E+03  0.00000000000E+00 0. -1.
        -12    1    5    5    0    0 -0.11930485892E+02 -0.40137374554E+01  0.43202903267E+01  0.13308324105E+02  0.00000000000E+00 0.  1.
          5    1    4    4  501    0  0.62990283720E+02 -0.40054872052E+01 -0.31977633259E+02  0.70879201461E+02  0.41800000000E+01 0. -1.
         -5    1    4    4    0  501  0.56849437521E+02  0.37690662488E+01  0.10012051005E+03  0.11527208396E+03  0.41800000000E+01 0. -1.
</event>
<event>
11    1  0.6455215E-009  0.2023740E+03  0.7561462E-02  0.1052857E+00
         22   -1    0    0    0    0  0.00000000000E+00  0.00000000000E+00  0.16075290670E+04  0.16075290670E+04  0.00000000000E+00 0.  1.
         22   -1    0    0    0    0 -0.00000000000E+00 -0.00000000000E+00 -0.24398753121E+03  0.24398753121E+03  0.00000000000E+00 0. -1.
        -24    2    1    2    0    0 -0.12575378753E+03  0.67036158470E+02 -0.89605944648E+02  0.18649936686E+03  0.80280302083E+02 0.  0.
         25    2    1    2    0    0  0.20406137503E+03 -0.58615258702E+02  0.42700500417E+02  0.25009544503E+03  0.12509038955E+03 0.  0.
         24    2    1    2    0    0 -0.78307587496E+02 -0.84208997682E+01  0.14104469800E+04  0.14149217863E+04  0.80249536552E+02 0.  0.
        -13    1    5    5    0    0 -0.10924258334E+02 -0.17468186419E+02  0.86615788084E+03  0.86640288059E+03  0.00000000000E+00 0.  1.
         14    1    5    5    0    0 -0.67383329163E+02  0.90472866509E+01  0.54428909920E+03  0.54851890574E+03  0.00000000000E+00 0. -1.
         13    1    3    3    0    0 -0.11303231325E+03  0.52358949532E+02 -0.36279441642E+02  0.12974575647E+03  0.00000000000E+00 0. -1.
        -14    1    3    3    0    0 -0.12721474280E+02  0.14677208938E+02 -0.53326503006E+02  0.56753610395E+02  0.00000000000E+00 0.  1.
          5    1    4    4  501    0  0.11786277929E+03 -0.92803592128E+02  0.46740672566E+02  0.15718239191E+03  0.41800000000E+01 0.  1.
         -5    1    4    4    0  501  0.86198595741E+02  0.34188333426E+02 -0.40401721489E+01  0.92913053126E+02  0.41800000000E+01 0.  1.
</event>
<event>
11    1  0.6455215E-009  0.2219837E+03  0.7561462E-02  0.1039982E+00
         22   -1    0    0    0    0  0.00000000000E+00  0.00000000000E+00  0.32415888621E+04  0.32415888621E+04  0.00000000000E+00 0.  1.
         22   -1    0    0    0    0 -0.00000000000E+00 -0.00000000000E+00 -0.56412276859E+02  0.56412276859E+02  0.00000000000E+00 0. -1.
         24    2    1    2    0    0  0.16784169126E+03 -0.78653179426E+02  0.16986110140E+03  0.26466879756E+03  0.82702011303E+02 0.  0.
         25    2    1    2    0    0 -0.15354629695E+03  0.74533241865E+02  0.13917076281E+04  0.14077035371E+04  0.12508979418E+03 0.  0.
        -24    2    1    2    0    0 -0.14295394309E+02  0.41199375609E+01  0.16236078557E+04  0.16256288043E+04  0.79656815021E+02 0.  0.
        -13    1    3    3    0    0 -0.89812066459E+01 -0.75593406538E+01  0.15344741877E+02  0.19320114058E+02  0.00000000000E+00 0.  1.
         14    1    3    3    0    0  0.17682289791E+03 -0.71093838772E+02  0.15451635952E+03  0.24534868350E+03  0.00000000000E+00 0. -1.
         13    1    5    5    0    0  0.15407780910E+02  0.20100391425E+02  0.19687755820E+03  0.19849986995E+03  0.00000000000E+00 0. -1.
        -14    1    5    5    0    0 -0.29703175219E+02 -0.15980453864E+02  0.14267302975E+04  0.14271289344E+04  0.00000000000E+00 0.  1.
          5    1    4    4  501    0 -0.40614943409E+02 -0.35335034408E+02  0.35329608004E+03  0.35739856023E+03  0.41800000000E+01 0.  1.
         -5    1    4    4    0  501 -0.11293135354E+03  0.10986827627E+03  0.10384115481E+04  0.10503049768E+04  0.41800000000E+01 0.  1.
</event>
<event>
11    1  0.6455215E-009  0.1271936E+03  0.7561462E-02  0.1122766E+00
         22   -1    0    0    0    0  0.00000000000E+00  0.00000000000E+00  0.45766348990E+03  0.45766348990E+03  0.00000000000E+00 0.  1.
         22   -1    0    0    0    0 -0.00000000000E+00 -0.00000000000E+00 -0.11393781325E+03  0.11393781325E+03  0.00000000000E+00 0. -1.
        -24    2    1    2    0    0  0.33508283888E+02  0.16304313035E+02 -0.61137788226E+02  0.10724437247E+03  0.79842911797E+02 0.  0.
         25    2    1    2    0    0 -0.31277004070E+02 -0.30604804305E+02  0.21978272358E+03  0.25664496313E+03  0.12508911417E+03 0.  0.
         24    2    1    2    0    0 -0.22312798175E+01  0.14300491270E+02  0.18508074129E+03  0.20771196755E+03  0.93165970217E+02 0.  0.
        -11    1    5    5    0    0 -0.42755310379E+02 -0.12833427569E+02  0.74427022454E+02  0.86787643707E+02  0.00000000000E+00 0.  1.
         12    1    5    5    0    0  0.40524030562E+02  0.27133918839E+02  0.11065371884E+03  0.12092432384E+03  0.00000000000E+00 0. -1.
         13    1    3    3    0    0  0.18452813877E+02 -0.16282116626E+01 -0.76847021652E+02  0.79048226736E+02  0.00000000000E+00 0. -1.
        -14    1    3    3    0    0  0.15055470011E+02  0.17932524698E+02  0.15709233427E+02  0.28196145732E+02  0.00000000000E+00 0.  1.
          5    1    4    4  501    0 -0.19162750584E+02 -0.52710271716E+02  0.22381871363E+03  0.23077667283E+03  0.41800000000E+01 0. -1.
         -5    1    4    4    0  501 -0.12114253486E+02  0.22105467411E+02 -0.40359900479E+01  0.25868290292E+02  0.41800000000E+01 0. -1.
</event>
<event>
11    1  0.6455215E-009  0.1749057E+03  0.7561462E-02  0.1073840E+00
         22   -1    0    0    0    0  0.00000000000E+00  0.00000000000E+00  0.45782198188E+03  0.45782198188E+03  0.00000000000E+00 0.  1.
         22   -1    0    0    0    0 -0.00000000000E+00 -0.00000000000E+00 -0.90923218660E+03  0.90923218660E+03  0.00000000000E+00 0.  1.
         24    2    1    2    0    0  0.63399045158E+02 -0.59250835926E+02 -0.78624433057E+03  0.79517051487E+03  0.81153557421E+02 0.  0.
         25    2    1    2    0    0 -0.15133529281E+03 -0.24009994390E+02 -0.93349476153E+01  0.19802517915E+03  0.12509188483E+03 0.  0.
        -24    2    1    2    0    0  0.87936247654E+02  0.83260830316E+02  0.34416907346E+03  0.37385847446E+03  0.81563829524E+02 0.  0.
        -13    1    3    3    0    0  0.20219887438E+02 -0.28343754787E+02 -0.61259674836E+03  0.61358535542E+03  0.00000000000E+00 0.  1.
         14    1    3    3    0    0  0.43179157720E+02 -0.30907081138E+02 -0.17364758221E+03  0.18158515945E+03  0.00000000000E+00 0. -1.
         11    1    5    5    0    0  0.75351576293E+01  0.52739664493E+02  0.80615910886E+02  0.96629063429E+02  0.00000000000E+00 0. -1.
        -12    1    5    5    0    0  0.80401090024E+02  0.30521165823E+02  0.26355316257E+03  0.27722941103E+03  0.00000000000E+00 0.  1.
          5    1    4    4  501    0 -0.78551329321E+02 -0.55787663828E+02  0.40037091102E+02  0.10441750733E+03  0.41800000000E+01 0. -1.
         -5    1    4    4    0  501 -0.72783963491E+02  0.31777669438E+02 -0.49372038717E+02  0.93607671819E+02  0.41800000000E+01 0. -1.
</event>
<event>
11    1  0.6455215E-009  0.1402819E+03  0.7561462E-02  0.1107244E+00
         22   -1    0    0    0    0  0.00000000000E+00  0.00000000000E+00  0.25873244751E+04  0.25873244751E+04  0.00000000000E+00 0.  1.
         22   -1    0    0    0    0 -0.00000000000E+00 -0.00000000000E+00 -0.20706410574E+02  0.20706410574E+02  0.00000000000E+00 0.  1.
        -24    2    1    2    0    0 -0.36500416684E+01 -0.52341918699E+01  0.18222068756E+03  0.20001185976E+03  0.82217063310E+02 0.  0.
         25    2    1    2    0    0 -0.54731099119E+02 -0.21310502131E+02  0.44690280746E+03  0.46778095277E+03  0.12508904726E+03 0.  0.
         24    2    1    2    0    0  0.58381140788E+02  0.26544694000E+02  0.19374945695E+04  0.19402380731E+04  0.80781156621E+02 0.  0.
        -13    1    5    5    0    0  0.41527810543E+02  0.37673161873E+02  0.18302379307E+04  0.18310965865E+04  0.00000000000E+00 0.  1.
         14    1    5    5    0    0  0.16853330244E+02 -0.11128467872E+02  0.10725663883E+03  0.10914148666E+03  0.00000000000E+00 0. -1.
         13    1    3    3    0    0  0.30998789385E+02  0.17079980384E+02  0.12206783408E+03  0.12709526659E+03  0.00000000000E+00 0. -1.
        -14    1    3    3    0    0 -0.34648831053E+02 -0.22314172253E+02  0.60152853481E+02  0.72916593163E+02  0.00000000000E+00 0.  1.
          5    1    4    4  501    0 -0.52803380640E+02 -0.15679674410E+02  0.62916549373E+02  0.83725825058E+02  0.41800000000E+01 0.  1.
         -5    1    4    4    0  501 -0.19277184791E+01 -0.56308277208E+01  0.38398625809E+03  0.38405512771E+03  0.41800000000E+01 0.  1.
</event>
<event>
11    1  0.6455215E-009  0.1438466E+03  0.7561462E-02  0.1103337E+00
         22   -1    0    0    0    0  0.00000000000E+00  0.00000000000E+00  0.98648912249E+02  0.98648912249E+02  0.00000000000E+00 0.  1.
         22   -1    0    0    0    0 -0.00000000000E+00 -0.00000000000E+00 -0.22941077937E+04  0.22941077937E+04  0.00000000000E+00 0.  1.
        -24    2    1    2    0    0 -0.29119122350E+02  0.45622237528E+02 -0.17123474299E+04  0.17152038773E+04  0.82833012427E+02 0.  0.
         25    2    1    2    0    0 -0.18781275279E+02  0.12232369198E+02 -0.52864454823E+03  0.54370456096E+03  0.12508886471E+03 0.  0.
         24    2    1    2    0    0  0.47900397629E+02 -0.57854606726E+02  0.45533096709E+02  0.13384826773E+03  0.10099748643E+03 0.  0.
        -11    1    5    5    0    0  0.12445662259E+02 -0.23967623288E+02  0.72860290192E+02  0.77704332968E+02  0.00000000000E+00 0.  1.
         12    1    5    5    0    0  0.35454735370E+02 -0.33886983439E+02 -0.27327193483E+02  0.56143934761E+02  0.00000000000E+00 0. -1.
         11    1    3    3    0    0 -0.32706952487E+01  0.44569259782E+01 -0.59783879126E+01  0.81426505892E+01  0.00000000000E+00 0. -1.
        -12    1    3    3    0    0 -0.25848427101E+02  0.41165311550E+02 -0.17063690420E+04  0.17070612267E+04  0.00000000000E+00 0.  1.
          5    1    4    4  501    0 -0.15635768296E+02  0.12774059472E+01 -0.53107552800E+03  0.53132362818E+03  0.41800000000E+01 0. -1.
         -5    1    4    4    0  501 -0.31455069836E+01  0.10954963251E+02  0.24309797665E+01  0.12380932785E+02  0.41800000000E+01 0. -1.
</event>
<event>
11    1  0.6455215E-009  0.2450163E+03  0.7561462E-02  0.1026588E+00
         22   -1    0    0    0    0  0.00000000000E+00  0.00000000000E+00  0.27145478688E+04  0.27145478688E+04  0.00000000000E+00 0. -1.
         22   -1    0    0    0    0 -0.00000000000E+00 -0.00000000000E+00 -0.46867695690E+03  0.46867695690E+03  0.00000000000E+00 0. -1.
        -24    2    1    2    0    0 -0.46865558889E+02  0.20440030063E+03 -0.29983369977E+03  0.37454923494E+03  0.80068835147E+02 0.  0.
         25    2    1    2    0    0  0.11622558992E+02 -0.21588164554E+03 -0.11378292601E+02  0.25003399240E+03  0.12509021966E+03 0.  0.
         24    2    1    2    0    0  0.35242999897E+02  0.11481344903E+02  0.25570829042E+04  0.25586415983E+04  0.81240133157E+02 0.  0.
        -13    1    5    5    0    0  0.10758706256E+01  0.13702711397E+02  0.70740134445E+02  0.72063086379E+02  0.00000000000E+00 0.  1.
         14    1    5    5    0    0  0.34167129271E+02 -0.22213664939E+01  0.24863427698E+04  0.24865785119E+04  0.00000000000E+00 0. -1.
         11    1    3    3    0    0 -0.50332129178E+02  0.20972089853E+03 -0.29814840692E+03  0.36797914487E+03  0.00000000000E+00 0. -1.
        -12    1    3    3    0    0  0.34665702894E+01 -0.53205978929E+01 -0.16852928498E+01  0.65700900678E+01  0.00000000000E+00 0.  1.
          5    1    4    4  501    0  0.31654206853E+00  0.15713684214E+02  0.63263256564E+01  0.17450354345E+02  0.41800000000E+01 0. -1.
         -5    1    4    4    0  501  0.11306016923E+02 -0.23159532975E+03 -0.17704618257E+02  0.23258363805E+03  0.41800000000E+01 0. -1.
</event>
<event>
11    1  0.6455215E-009  0.1325099E+03  0.7561462E-02  0.1116223E+00
         22   -1    0    0    0    0  0.00000000000E+00  0.00000000000E+00  0.10486058663E+03  0.10486058663E+03  0.00000000000E+00 0. -1.
         22   -1    0    0    0    0 -0.00000000000E+00 -0.00000000000E+00 -0.19985547273E+04  0.19985547273E+04  0.00000000000E+00 0. -1.
         24    2    1    2    0    0 -0.35046637599E+02  0.16512224614E+02 -0.11314745301E+04  0.11349415076E+04  0.79728872383E+02 0.  0.
         25    2    1    2    0    0  0.55031418512E+02 -0.24104658517E+02 -0.84102240183E+03  0.85239386656E+03  0.12508849583E+03 0.  0.
        -24    2    1    2    0    0 -0.19984780912E+02  0.75924339027E+01  0.78802791276E+02  0.11607993973E+03  0.82508399411E+02 0.  0.
        -13    1    3    3    0    0  0.77775280596E+01  0.37975973232E+02 -0.39017471950E+03  0.39209562127E+03  0.00000000000E+00 0.  1.
         14    1    3    3    0    0 -0.42824165659E+02 -0.21463748618E+02 -0.74129981061E+03  0.74284588636E+03  0.00000000000E+00 0. -1.
         13    1    5    5    0    0 -0.26522811007E+02 -0.30300541759E+02  0.62420944826E+02  0.74282950181E+02  0.00000000000E+00 0. -1.
        -14    1    5    5    0    0  0.65380300942E+01  0.37892975662E+02  0.16381846450E+02  0.41796989546E+02  0.00000000000E+00 0.  1.
          5    1    4    4  501    0  0.20981990220E+02  0.28255555423E+02 -0.66576866336E+02  0.75422621653E+02  0.41800000000E+01 0. -1.
         -5    1    4    4    0  501  0.34049428291E+02 -0.52360213940E+02 -0.77444553549E+03  0.77697124490E+03  0.41800000000E+01 0. -1.
</event>
<event>
11    1  0.6455215E-009  0.1399710E+03  0.7561462E-02  0.1107591E+00
         22   -1    0    0    0    0  0.00000000000E+00  0.00000000000E+00  0.24714485125E+03  0.24714485125E+03  0.00000000000E+00 0.  1.
         22   -1    0    0    0    0 -0.00000000000E+00 -0.00000000000E+00 -0.37532895806E+03  0.37532895806E+03  0.00000000000E+00 0.  1.
         24    2    1    2    0    0  0.40516400270E+02  0.42621167732E+02 -0.17740885596E+03  0.20327195759E+03  0.79921486084E+02 0.  0.
         25    2    1    2    0    0 -0.79663346091E+02 -0.85949408823E+02 -0.12821622002E+03  0.21405975559E+03  0.12509448550E+03 0.  0.
        -24    2    1    2    0    0  0.39146945821E+02  0.43328241091E+02  0.17744096917E+03  0.20514209614E+03  0.84783030289E+02 0.  0.
        -11    1    3    3    0    0  0.41467553639E+02  0.63486047231E+02 -0.11766617658E+03  0.13998344655E+03  0.00000000000E+00 0.  1.
         12    1    3    3    0    0 -0.95115336867E+00 -0.20864879499E+02 -0.59742679381E+02  0.63288511034E+02  0.00000000000E+00 0. -1.
         13    1    5    5    0    0 -0.17197344813E+02 -0.10466322148E+02  0.15394382965E+02  0.25343235682E+02  0.00000000000E+00 0. -1.
        -14    1    5    5    0    0  0.56344290634E+02  0.53794563239E+02  0.16204658620E+03  0.17979886045E+03  0.00000000000E+00 0.  1.
          5    1    4    4  501    0 -0.97021224598E+02 -0.34526596473E+02 -0.12132200569E+03  0.15919078287E+03  0.41800000000E+01 0. -1.
         -5    1    4    4    0  501  0.17357878507E+02 -0.51422812351E+02 -0.68942143269E+01  0.54868972721E+02  0.41800000000E+01 0. -1.
</event>
<event>
11    1  0.6455215E-009  0.1579226E+03  0.7561462E-02  0.1089048E+00
         22   -1    0    0    0    0  0.00000000000E+00  0.00000000000E+00  0.19607569212E+04  0.19607569212E+04  0.00000000000E+00 0. -1.
         22   -1    0    0    0    0 -0.00000000000E+00 -0.00000000000E+00 -0.33872628391E+03  0.33872628391E+03  0.00000000000E+00 0. -1.
         24    2    1    2    0    0 -0.98814261720E+02  0.16120541856E+02 -0.30773293412E+03  0.33342626823E+03  0.80308078122E+02 0.  0.
         25    2    1    2    0    0  0.23827216855E+02  0.28091366454E+02  0.24881076848E+03  0.28091698726E+03  0.12510273414E+03 0.  0.
        -24    2    1    2    0    0  0.74987044865E+02 -0.44211908310E+02  0.16809528029E+04  0.16851399496E+04  0.80725302203E+02 0.  0.
        -11    1    3    3    0    0 -0.41127370077E+02 -0.21134330617E+02 -0.56668902163E+02  0.73140173451E+02  0.00000000000E+00 0.  1.
         12    1    3    3    0    0 -0.57686891643E+02  0.37254872473E+02 -0.25106403196E+03  0.26028609477E+03  0.00000000000E+00 0. -1.
         11    1    5    5    0    0  0.51306542049E+02 -0.19040635763E+02  0.14951017352E+04  0.14961029729E+04  0.00000000000E+00 0. -1.
        -12    1    5    5    0    0  0.23680502817E+02 -0.25171272547E+02  0.18585106773E+03  0.18903697668E+03  0.00000000000E+00 0.  1.
          5    1    4    4  501    0  0.13948464484E+02  0.74721673523E+02  0.10750216640E+03  0.13172728016E+03  0.41800000000E+01 0. -1.
         -5    1    4    4    0  501  0.98787523706E+01 -0.46630307069E+02  0.14130860208E+03  0.14918970711E+03  0.41800000000E+01 0. -1.
</event>
<event>
11    1  0.6455215E-009  0.2897589E+03  0.7561462E-02  0.1004621E+00
         22   -1    0    0    0    0  0.00000000000E+00  0.00000000000E+00  0.22092065386E+04  0.22092065386E+04  0.00000000000E+00 0.  1.
         22   -1    0    0    0    0 -0.00000000000E+00 -0.00000000000E+00 -0.70602149518E+03  0.70602149518E+03  0.00000000000E+00 0.  1.
        -24    2    1    2    0    0 -0.54037952355E+02  0.84287858787E+01 -0.44790797526E+03  0.45808581207E+03  0.78929792824E+02 0.  0.
         25    2    1    2    0    0  0.26499906318E+03  0.14354052250E+03 -0.13512685441E+03  0.35317894293E+03  0.12509082246E+03 0.  0.
         24    2    1    2    0    0 -0.21096111083E+03 -0.15196930838E+03  0.20862198731E+04  0.21039632788E+04  0.82151436959E+02 0.  0.
        -13    1    5    5    0    0 -0.15221392095E+03 -0.13030277970E+03  0.13115806758E+04  0.13267975585E+04  0.00000000000E+00 0.  1.
         14    1    5    5    0    0 -0.58747189871E+02 -0.21666528677E+02  0.77463919730E+03  0.77716572028E+03  0.00000000000E+00 0. -1.
         11    1    3    3    0    0 -0.85606519870E+01  0.60532863130E+01 -0.34943985146E+03  0.34959710643E+03  0.00000000000E+00 0. -1.
        -12    1    3    3    0    0 -0.45477300368E+02  0.23754995657E+01 -0.98468123801E+02  0.10848870564E+03  0.00000000000E+00 0.  1.
          5    1    4    4  501    0  0.25612200614E+03  0.10002095035E+03 -0.89065488335E+02  0.28905502270E+03  0.41800000000E+01 0. -1.
         -5    1    4    4    0  501  0.88770570424E+01  0.43519572144E+02 -0.46061366071E+02  0.64123920230E+02  0.41800000000E+01 0. -1.
</event>
<event>
11    1  0.6455215E-009  0.1720994E+03  0.7561462E-02  0.1076219E+00
         22   -1    0    0    0    0  0.00000000000E+00  0.00000000000E+00  0.39334111827E+03  0.39334111827E+03  0.00000000000E+00 0. -1.
         22   -1    0    0    0    0 -0.00000000000E+00 -0.00000000000E+00 -0.14774697645E+04  0.14774697645E+04  0.00000000000E+00 0. -1.
         24    2    1    2    0    0 -0.77749758751E+02  0.94619612489E+02 -0.11036445581E+04  0.11122374900E+04  0.63584805041E+02 0.  0.
         25    2    1    2    0    0  0.57403491318E+02 -0.82992013449E+02 -0.34711802103E+03  0.38251908793E+03  0.12508835675E+03 0.  0.
        -24    2    1    2    0    0  0.20346267433E+02 -0.11627599040E+02  0.36663393288E+03  0.37605430488E+03  0.80294631333E+02 0.  0.
        -13    1    3    3    0    0 -0.19338622181E+02  0.42385429871E+02 -0.20712578661E+03  0.21230072645E+03  0.00000000000E+00 0.  1.
         14    1    3    3    0    0 -0.58411136569E+02  0.52234182618E+02 -0.89651877148E+03  0.89993676351E+03  0.00000000000E+00 0. -1.
         11    1    5    5    0    0  0.16190071152E+02  0.33507358608E+02  0.19608926655E+03  0.19958923303E+03  0.00000000000E+00 0. -1.
        -12    1    5    5    0    0  0.41561962811E+01 -0.45134957648E+02  0.17054466633E+03  0.17646507185E+03  0.00000000000E+00 0.  1.
          5    1    4    4  501    0  0.81734464315E+02 -0.75262831717E+02 -0.33678251919E+03  0.35466174607E+03  0.41800000000E+01 0. -1.
         -5    1    4    4    0  501 -0.24330972998E+02 -0.77291817325E+01 -0.10335501847E+02  0.27857341863E+02  0.41800000000E+01 0. -1.
</event>
<event>
11    1  0.6455215E-009  0.1311499E+03  0.7561462E-02  0.1117864E+00
         22   -1    0    0    0    0  0.00000000000E+00  0.00000000000E+00  0.31050497991E+03  0.31050497991E+03  0.00000000000E+00 0.  1.
         22   -1    0    0    0    0 -0.00000000000E+00 -0.00000000000E+00 -0.40906984284E+03  0.40906984284E+03  0.00000000000E+00 0. -1.
        -24    2    1    2    0    0  0.39975503204E+02 -0.36467305169E+01 -0.28708651420E+03  0.29995415862E+03  0.77087555048E+02 0.  0.
         25    2    1    2    0    0 -0.35845443722E+02 -0.14560123956E+02 -0.69762509985E+02  0.14836072459E+03  0.12508878349E+03 0.  0.
         24    2    1    2    0    0 -0.41300594818E+01  0.18206854473E+02  0.25828416124E+03  0.27125993954E+03  0.80763233643E+02 0.  0.
        -13    1    5    5    0    0 -0.16243047542E+02  0.61856573919E+01  0.25271010633E+03  0.25330711950E+03  0.00000000000E+00 0.  1.
         14    1    5    5    0    0  0.12112988061E+02  0.12021197081E+02  0.55740549145E+01  0.17952820035E+02  0.00000000000E+00 0. -1.
         11    1    3    3    0    0  0.36774112796E+02 -0.29477396138E+02 -0.25142526355E+03  0.25580444759E+03  0.00000000000E+00 0. -1.
        -12    1    3    3    0    0  0.32013904076E+01  0.25830665621E+02 -0.35661250648E+02  0.44149711038E+02  0.00000000000E+00 0.  1.
          5    1    4    4  501    0  0.79347242468E+01 -0.17233241193E+02  0.32019012437E+02  0.37451755745E+02  0.41800000000E+01 0.  1.
         -5    1    4    4    0  501 -0.43780167969E+02  0.26731172369E+01 -0.10178152242E+03  0.11090896884E+03  0.41800000000E+01 0.  1.
</event>
<event>
11    1  0.6455215E-009  0.2456180E+03  0.7561462E-02  0.1026260E+00
         22   -1    0    0    0    0  0.00000000000E+00  0.00000000000E+00  0.12198673992E+03  0.12198673992E+03  0.00000000000E+00 0. -1.
         22   -1    0    0    0    0 -0.00000000000E+00 -0.00000000000E+00 -0.12509066734E+04  0.12509066734E+04  0.00000000000E+00 0. -1.
        -24    2    1    2    0    0  0.12847417982E+02  0.37218111493E+02 -0.77391549895E+03  0.77880905656E+03  0.77769551135E+02 0.  0.
         25    2    1    2    0    0  0.59519822280E+02  0.17887183748E+03 -0.22913934559E+03  0.32200965992E+03  0.12509051881E+03 0.  0.
         24    2    1    2    0    0 -0.72367240262E+02 -0.21608994897E+03 -0.12586508891E+03  0.27207469681E+03  0.79061599586E+02 0.  0.
        -11    1    5    5    0    0 -0.62391847245E+02 -0.90795934472E+02 -0.87415591381E+02  0.14063473943E+03  0.00000000000E+00 0.  1.
         12    1    5    5    0    0 -0.99753930172E+01 -0.12529401450E+03 -0.38449497532E+02  0.13143995738E+03  0.00000000000E+00 0. -1.
         13    1    3    3    0    0  0.30908192149E+02  0.20752827476E+02 -0.69935634191E+03  0.70034654933E+03  0.00000000000E+00 0. -1.
        -14    1    3    3    0    0 -0.18060774167E+02  0.16465284017E+02 -0.74559157048E+02  0.78462507231E+02  0.00000000000E+00 0.  1.
          5    1    4    4  501    0 -0.11644469020E+02  0.13203731688E+03 -0.17998180690E+03  0.22356289925E+03  0.41800000000E+01 0. -1.
         -5    1    4    4    0  501  0.71164291299E+02  0.46834520601E+02 -0.49157538692E+02  0.98446760669E+02  0.41800000000E+01 0. -1.
</event>
<event>
11    1  0.6455215E-009  0.1449418E+03  0.7561462E-02  0.1102162E+00
         22   -1    0    0    0    0  0.00000000000E+00  0.00000000000E+00  0.11342280220E+04  0.11342280220E+04  0.00000000000E+00 0.  1.
         22   -1    0    0    0    0 -0.00000000000E+00 -0.00000000000E+00 -0.34082011582E+03  0.34082011582E+03  0.00000000000E+00 0. -1.
         24    2    1    2    0    0  0.47739701320E+02 -0.52577824740E+02 -0.30069990273E+03  0.32290071504E+03  0.93813290829E+02 0.  0.
         25    2    1    2    0    0 -0.94027376852E+02  0.12229855621E+03  0.38207491983E+03  0.43061178122E+03  0.12508867778E+03 0.  0.
        -24    2    1    2    0    0  0.46287675532E+02 -0.69720731474E+02  0.71203288911E+03  0.72153564160E+03  0.81359188971E+02 0.  0.
        -11    1    3    3    0    0  0.57758598464E+02  0.54594403507E+01 -0.16744069514E+03  0.17720679325E+03  0.00000000000E+00 0.  1.
         12    1    3    3    0    0 -0.10018897144E+02 -0.58037265091E+02 -0.13325920759E+03  0.14569392179E+03  0.00000000000E+00 0. -1.
         11    1    5    5    0    0  0.30953116201E+02 -0.69260602318E+01  0.77800383977E+02  0.84017649692E+02  0.00000000000E+00 0. -1.
        -12    1    5    5    0    0  0.15334559331E+02 -0.62794671242E+02  0.63423250513E+03  0.63751799191E+03  0.00000000000E+00 0.  1.
          5    1    4    4  501    0 -0.91016885048E+02  0.24361469529E+02  0.13407307807E+03  0.16392259522E+03  0.41800000000E+01 0.  1.
         -5    1    4    4    0  501 -0.30104918039E+01  0.97937086684E+02  0.24800184176E+03  0.26668918599E+03  0.41800000000E+01 0.  1.
</event>
<event>
11    1  0.6455215E-009  0.1901676E+03  0.7561462E-02  0.1061703E+00
         22   -1    0    0    0    0  0.00000000000E+00  0.00000000000E+00  0.11917701253E+03  0.11917701253E+03  0.00000000000E+00 0. -1.
         22   -1    0    0    0    0 -0.00000000000E+00 -0.00000000000E+00 -0.19353809561E+04  0.19353809561E+04  0.00000000000E+00 0.  1.
         24    2    1    2    0    0  0.67286911423E+02  0.42865307494E+01 -0.16304778769E+04  0.16338382139E+04  0.80145487119E+02 0.  0.
         25    2    1    2    0    0 -0.13271535746E+03 -0.11640087338E+03 -0.14711628522E+03  0.26163367319E+03  0.12508576313E+03 0.  0.
        -24    2    1    2    0    0  0.65428446040E+02  0.11211434263E+03 -0.38609781393E+02  0.15908608156E+03  0.83469507923E+02 0.  0.
        -13    1    3    3    0    0  0.67040276157E+02  0.32751035208E+02 -0.10388752981E+04  0.10415512057E+04  0.00000000000E+00 0.  1.
         14    1    3    3    0    0  0.24663526624E+00 -0.28464504459E+02 -0.59160257880E+03  0.59228700820E+03  0.00000000000E+00 0. -1.
         11    1    5    5    0    0  0.36911985657E+02  0.11927108373E+03 -0.33208785235E+02  0.12919330291E+03  0.00000000000E+00 0. -1.
        -12    1    5    5    0    0  0.28516460383E+02 -0.71567411039E+01 -0.54009961576E+01  0.29892778652E+02  0.00000000000E+00 0.  1.
          5    1    4    4  501    0 -0.10449268941E+02 -0.10375581453E+02 -0.87950080485E+02  0.89272218350E+02  0.41800000000E+01 0. -1.
         -5    1    4    4    0  501 -0.12226608852E+03 -0.10602529192E+03 -0.59166204740E+02  0.17236145484E+03  0.41800000000E+01 0. -1.
</event>
<event>
11    1  0.6455215E-009  0.1583232E+03  0.7561462E-02  0.1088665E+00
         22   -1    0    0    0    0  0.00000000000E+00  0.00000000000E+00  0.11646297670E+04  0.11646297670E+04  0.00000000000E+00 0.  1.
         22   -1    0    0    0    0 -0.00000000000E+00 -0.00000000000E+00 -0.16467173006E+03  0.16467173006E+03  0.00000000000E+00 0.  1.
         24    2    1    2    0    0  0.65683364478E+02  0.46502070589E+02 -0.36717106244E+02  0.12048665859E+03  0.81805513682E+02 0.  0.
         25    2    1    2    0    0 -0.87560158258E+02 -0.11456565308E+03  0.26011551251E+02  0.19265693206E+03  0.12509205607E+03 0.  0.
        -24    2    1    2    0    0  0.21876793780E+02  0.68063582491E+02  0.10106635919E+04  0.10161579064E+04  0.77619258830E+02 0.  0.
        -11    1    3    3    0    0  0.73104924910E+02  0.58517026360E+02 -0.45235334264E+02  0.10399426853E+03  0.00000000000E+00 0.  1.
         12    1    3    3    0    0 -0.74215604322E+01 -0.12014955771E+02  0.85182280194E+01  0.16492390064E+02  0.00000000000E+00 0. -1.
         13    1    5    5    0    0 -0.18570369606E+02 -0.68212005178E+01  0.23805118474E+03  0.23887183585E+03  0.00000000000E+00 0. -1.
        -14    1    5    5    0    0  0.40447163386E+02  0.74884783009E+02  0.77261240716E+03  0.77728607054E+03  0.00000000000E+00 0.  1.
          5    1    4    4  501    0  0.12482303062E+02  0.13769240805E+02 -0.15628614536E+02  0.24639924399E+02  0.41800000000E+01 0. -1.
         -5    1    4    4    0  501 -0.10004246132E+03 -0.12833489389E+03  0.41640165787E+02  0.16801700766E+03  0.41800000000E+01 0. -1.
</event>
<event>
11    1  0.6455215E-009  0.1314812E+03  0.7561462E-02  0.1117462E+00
         22   -1    0    0    0    0  0.00000000000E+00  0.00000000000E+00  0.39860095239E+03  0.39860095239E+03  0.00000000000E+00 0.  1.
         22   -1    0    0    0    0 -0.00000000000E+00 -0.00000000000E+00 -0.25691878985E+03  0.25691878985E+03  0.00000000000E+00 0.  1.
         24    2    1    2    0    0  0.37460369720E+02 -0.11024562097E+02 -0.48456005394E+02  0.10147191541E+03  0.80148268157E+02 0.  0.
         25    2    1    2    0    0 -0.43274394641E+02 -0.14134404462E+02 -0.15167636945E+03  0.20180624079E+03  0.12509030000E+03 0.  0.
        -24    2    1    2    0    0  0.58140249209E+01  0.25158966559E+02  0.34181453738E+03  0.35224158604E+03  0.81056649878E+02 0.  0.
        -11    1    3    3    0    0  0.53696003826E+02  0.16918235766E+00 -0.58444147638E+02  0.79366289082E+02  0.00000000000E+00 0.  1.
         12    1    3    3    0    0 -0.16235634106E+02 -0.11193744454E+02  0.99881422438E+01  0.22105626325E+02  0.00000000000E+00 0. -1.
         11    1    5    5    0    0 -0.27003867385E+02  0.12659564267E+02  0.49245748593E+02  0.57572712075E+02  0.00000000000E+00 0. -1.
        -12    1    5    5    0    0  0.32817892306E+02  0.12499402292E+02  0.29256878879E+03  0.29466887397E+03  0.00000000000E+00 0.  1.
          5    1    4    4  501    0 -0.80986993879E+02 -0.99119074048E+01 -0.56705849263E+02  0.99449307824E+02  0.41800000000E+01 0. -1.
         -5    1    4    4    0  501  0.37712599238E+02 -0.42224970573E+01 -0.94970520187E+02  0.10235693297E+03  0.41800000000E+01 0. -1.
</event>
<event>
11    1  0.6455215E-009  0.1345846E+03  0.7561462E-02  0.1113761E+00
         22   -1    0    0    0    0  0.00000000000E+00  0.00000000000E+00  0.18981738393E+04  0.18981738393E+04  0.00000000000E+00 0.  1.
         22   -1    0    0    0    0 -0.00000000000E+00 -0.00000000000E+00 -0.60013920748E+03  0.60013920748E+03  0.00000000000E+00 0. -1.
         24    2    1    2    0    0 -0.28495897738E+02  0.40772346484E+02 -0.57553838721E+03  0.58302162780E+03  0.78710754682E+02 0.  0.
         25    2    1    2    0    0  0.31170794044E+02 -0.31748431820E+02  0.20200182680E+03  0.24172830384E+03  0.12509297950E+03 0.  0.
        -24    2    1    2    0    0 -0.26748963063E+01 -0.90239146640E+01  0.16715711922E+04  0.16735631151E+04  0.81084299019E+02 0.  0.
        -11    1    3    3    0    0 -0.17239617096E+01 -0.76132222419E+01 -0.39204910320E+01  0.87351844178E+01  0.00000000000E+00 0.  1.
         12    1    3    3    0    0 -0.26771936029E+02  0.48385568726E+02 -0.57161789618E+03  0.57428644338E+03  0.00000000000E+00 0. -1.
         11    1    5    5    0    0  0.26447101777E+02  0.25278013910E+02  0.77806305344E+03  0.77892268057E+03  0.00000000000E+00 0. -1.
        -12    1    5    5    0    0 -0.29121998083E+02 -0.34301928574E+02  0.89350813878E+03  0.89464043456E+03  0.00000000000E+00 0.  1.
          5    1    4    4  501    0 -0.26794724351E+02  0.23755519017E+02  0.12622770763E+03  0.13127523952E+03  0.41800000000E+01 0.  1.
         -5    1    4    4    0  501  0.57965518395E+02 -0.55503950838E+02  0.75774119169E+02  0.11045306432E+03  0.41800000000E+01 0.  1.
</event>
<event>
11    1  0.6455215E-009  0.1625593E+03  0.7561462E-02  0.1084695E+00
         22   -1    0    0    0    0  0.00000000000E+00  0.00000000000E+00  0.24896257590E+03  0.24896257590E+03  0.00000000000E+00 0.  1.
         22   -1    0    0    0    0 -0.00000000000E+00 -0.00000000000E+00 -0.40903739296E+03  0.40903739296E+03  0.00000000000E+00 0. -1.
         24    2    1    2    0    0  0.65561053323E+02  0.88442094736E+02 -0.28174377922E+03  0.31291352814E+03  0.80094089247E+02 0.  0.
         25    2    1    2    0    0  0.24997817546E+01 -0.94731561310E+02 -0.30608235079E+02  0.15988654118E+03  0.12508606789E+03 0.  0.
        -24    2    1    2    0    0 -0.68060835078E+02  0.62894665739E+01  0.15227719724E+03  0.18519989953E+03  0.80242278928E+02 0.  0.
        -11    1    3    3    0    0 -0.17553199568E+02  0.74891521584E+01 -0.54866186947E+02  0.58090452617E+02  0.00000000000E+00 0.  1.
         12    1    3    3    0    0  0.83114252891E+02  0.80952942577E+02 -0.22687759227E+03  0.25482307552E+03  0.00000000000E+00 0. -1.
         11    1    5    5    0    0 -0.15801196135E+02  0.12120802665E+02 -0.40007059802E+01  0.20312491351E+02  0.00000000000E+00 0. -1.
        -12    1    5    5    0    0 -0.52259638943E+02 -0.58313360916E+01  0.15627790322E+03  0.16488740818E+03  0.00000000000E+00 0.  1.
          5    1    4    4  501    0 -0.36963027253E+02 -0.99607570127E+02  0.48626504862E+01  0.10643801567E+03  0.41800000000E+01 0. -1.
         -5    1    4    4    0  501  0.39462809008E+02  0.48760088172E+01 -0.35470885565E+02  0.53448525514E+02  0.41800000000E+01 0. -1.
</event>
<event>
11    1  0.6455215E-009  0.1586658E+03  0.7561462E-02  0.1088339E+00
         22   -1    0    0    0    0  0.00000000000E+00  0.00000000000E+00  0.22397714007E+03  0.22397714007E+03  0.00000000000E+00 0. -1.
         22   -1    0    0    0    0 -0.00000000000E+00 -0.00000000000E+00 -0.82074563513E+03  0.82074563513E+03  0.00000000000E+00 0. -1.
        -24    2    1    2    0    0 -0.94400492884E+02 -0.25071553102E+02 -0.74078599841E+03  0.75145779653E+03  0.79905498500E+02 0.  0.
         25    2    1    2    0    0  0.99866646294E+02 -0.17618343029E+01  0.52055590804E+02  0.16832682487E+03  0.12509070443E+03 0.  0.
         24    2    1    2    0    0 -0.54661534100E+01  0.26833387405E+02  0.91961912550E+02  0.12493815380E+03  0.80016494563E+02 0.  0.
        -13    1    5    5    0    0  0.12128509913E+02  0.45020903026E+02  0.24046591878E+02  0.52461614948E+02  0.00000000000E+00 0.  1.
         14    1    5    5    0    0 -0.17594663323E+02 -0.18187515621E+02  0.67915320672E+02  0.72476538852E+02  0.00000000000E+00 0. -1.
         13    1    3    3    0    0 -0.30548453557E+02 -0.27593367531E+02 -0.51954063550E+03  0.52116894946E+03  0.00000000000E+00 0. -1.
        -14    1    3    3    0    0 -0.63852039327E+02  0.25218144286E+01 -0.22124536291E+03  0.23028884707E+03  0.00000000000E+00 0.  1.
          5    1    4    4  501    0  0.10308409178E+03 -0.47257265081E+02  0.29370169976E+02  0.11721628882E+03  0.41800000000E+01 0.  1.
         -5    1    4    4    0  501 -0.32174454866E+01  0.45495430778E+02  0.22685420828E+02  0.51110536050E+02  0.41800000000E+01 0.  1.
</event>
<event>
11    1  0.6455215E-009  0.1575344E+03  0.7561462E-02  0.1089419E+00
         22   -1    0    0    0    0  0.00000000000E+00  0.00000000000E+00  0.13250643356E+04  0.13250643356E+04  0.00000000000E+00 0. -1.
         22   -1    0    0    0    0 -0.00000000000E+00 -0.00000000000E+00 -0.11180278974E+04  0.11180278974E+04  0.00000000000E+00 0.  1.
        -24    2    1    2    0    0 -0.32758844110E+02 -0.90719077110E+02 -0.10966643760E+04  0.11040868212E+04  0.83856201264E+02 0.  0.
         25    2    1    2    0    0 -0.10199811789E+02  0.46500177782E+02  0.28336232835E+03  0.31338009197E+03  0.12508625111E+03 0.  0.
         24    2    1    2    0    0  0.42958655898E+02  0.44218899327E+02  0.10203384858E+04  0.10256253198E+04  0.83761051941E+02 0.  0.
        -11    1    5    5    0    0  0.86275471698E-01  0.48410848111E+02  0.28961425596E+03  0.29363248272E+03  0.00000000000E+00 0.  1.
         12    1    5    5    0    0  0.42872380427E+02 -0.41919487837E+01  0.73072422989E+03  0.73199283711E+03  0.00000000000E+00 0. -1.
         13    1    3    3    0    0  0.22521832003E+02 -0.13073864363E+01 -0.21330408447E+03  0.21449376361E+03  0.00000000000E+00 0. -1.
        -14    1    3    3    0    0 -0.55280676113E+02 -0.89411690673E+02 -0.88336029151E+03  0.88959305764E+03  0.00000000000E+00 0.  1.
          5    1    4    4  501    0  0.35008822208E+02 -0.19356200720E+02  0.38093962285E+02  0.55397675955E+02  0.41800000000E+01 0.  1.
         -5    1    4    4    0  501 -0.45208633996E+02  0.65856378502E+02  0.24526836607E+03  0.25798241601E+03  0.41800000000E+01 0.  1.
</event>
<event>
11    1  0.6455215E-009  0.1573650E+03  0.7561462E-02  0.1089582E+00
         22   -1    0    0    0    0  0.00000000000E+00  0.00000000000E+00  0.30210264403E+04  0.30210264403E+04  0.00000000000E+00 0. -1.
         22   -1    0    0    0    0 -0.00000000000E+00 -0.00000000000E+00 -0.77325458492E+02  0.77325458492E+02  0.00000000000E+00 0. -1.
         24    2    1    2    0    0  0.54802300138E+02  0.69935072229E+02  0.17004719765E+02  0.12185480986E+03  0.81640846170E+02 0.  0.
         25    2    1    2    0    0 -0.60823021707E+02 -0.11380236158E+03  0.31058491963E+03  0.35882810529E+03  0.12507677392E+03 0.  0.
        -24    2    1    2    0    0  0.60207215690E+01  0.43867289351E+02  0.26161113424E+04  0.26176689837E+04  0.78687761856E+02 0.  0.
        -11    1    3    3    0    0  0.13450138743E+02 -0.12374761576E+02  0.23198513898E+02  0.29533235572E+02  0.00000000000E+00 0.  1.
         12    1    3    3    0    0  0.41352161394E+02  0.82309833805E+02 -0.61937941325E+01  0.92321574287E+02  0.00000000000E+00 0. -1.
         13    1    5    5    0    0  0.46090607921E+01  0.45748864650E+02  0.26142892203E+04  0.26146935441E+04  0.00000000000E+00 0. -1.
        -14    1    5    5    0    0  0.14116607770E+01 -0.18815752989E+01  0.18221221694E+01  0.29754396238E+01  0.00000000000E+00 0.  1.
          5    1    4    4  501    0 -0.70511741924E+02 -0.57124782579E+02  0.79686020907E+02  0.12084072518E+03  0.41800000000E+01 0. -1.
         -5    1    4    4    0  501  0.96887202166E+01 -0.56677579001E+02  0.23089889872E+03  0.23798738011E+03  0.41800000000E+01 0. -1.
</event>
<event>
11    1  0.6455215E-009  0.2167707E+03  0.7561462E-02  0.1043259E+00
         22   -1    0    0    0    0  0.00000000000E+00  0.00000000000E+00  0.35792770777E+03  0.35792770777E+03  0.00000000000E+00 0.  1.
         22   -1    0    0    0    0 -0.00000000000E+00 -0.00000000000E+00 -0.82820363926E+03  0.82820363926E+03  0.00000000000E+00 0.  1.
        -24    2    1    2    0    0 -0.14352067028E+03 -0.10298848713E+03 -0.72980278513E+03  0.75495919079E+03  0.78399383238E+02 0.  0.
         25    2    1    2    0    0  0.12986947490E+03  0.13085721100E+03  0.87130963090E+02  0.23922978263E+03  0.12509753790E+03 0.  0.
         24    2    1    2    0    0  0.13651195376E+02 -0.27868723870E+02  0.17239589055E+03  0.19194237361E+03  0.78476179847E+02 0.  0.
        -11    1    5    5    0    0 -0.79937725836E+01 -0.45412027479E+02  0.14763461540E+03  0.15466781276E+03  0.00000000000E+00 0.  1.
         12    1    5    5    0    0  0.21644967960E+02  0.17543303610E+02  0.24761275153E+02  0.37274560852E+02  0.00000000000E+00 0. -1.
         11    1    3    3    0    0 -0.63633180068E+02 -0.91037056357E+02 -0.37662700734E+03  0.39266376188E+03  0.00000000000E+00 0. -1.
        -12    1    3    3    0    0 -0.79887490210E+02 -0.11951430774E+02 -0.35317577780E+03  0.36229542891E+03  0.00000000000E+00 0.  1.
          5    1    4    4  501    0  0.62810120638E+02  0.13985513399E+03  0.46801069592E+02  0.16035081001E+03  0.41800000000E+01 0. -1.
         -5    1    4    4    0  501  0.67059354263E+02 -0.89979229844E+01  0.40329893498E+02  0.78878972622E+02  0.41800000000E+01 0. -1.
</event>
<event>
11    1  0.6455215E-009  0.1695390E+03  0.7561462E-02  0.1078434E+00
         22   -1    0    0    0    0  0.00000000000E+00  0.00000000000E+00  0.14000521213E+04  0.14000521213E+04  0.00000000000E+00 0. -1.
         22   -1    0    0    0    0 -0.00000000000E+00 -0.00000000000E+00 -0.40477205601E+03  0.40477205601E+03  0.00000000000E+00 0. -1.
         24    2    1    2    0    0 -0.51392587163E+02  0.26803675265E+02 -0.36150721021E+03  0.37483152353E+03  0.80321684357E+02 0.  0.
         25    2    1    2    0    0  0.75429875018E+02  0.86746035178E+02  0.19015883812E+03  0.25498433066E+03  0.12506831933E+03 0.  0.
        -24    2    1    2    0    0 -0.24037287855E+02 -0.11354971044E+03  0.11666284374E+04  0.11750083232E+04  0.78430354908E+02 0.  0.
        -11    1    3    3    0    0 -0.16201838876E+02  0.14773979100E+02 -0.15549048375E+02  0.26880158980E+02  0.00000000000E+00 0.  1.
         12    1    3    3    0    0 -0.35190748287E+02  0.12029696164E+02 -0.34595816183E+03  0.34795136455E+03  0.00000000000E+00 0. -1.
         11    1    5    5    0    0 -0.45094001062E+02 -0.59430834974E+02  0.83571519681E+03  0.83903836816E+03  0.00000000000E+00 0. -1.
        -12    1    5    5    0    0  0.21056713207E+02 -0.54118875469E+02  0.33091324060E+03  0.33596995499E+03  0.00000000000E+00 0.  1.
          5    1    4    4  501    0  0.74900616428E+01  0.11934867612E+02 -0.18188313551E+02  0.23384380218E+02  0.41800000000E+01 0. -1.
         -5    1    4    4    0  501  0.67939813375E+02  0.74811167566E+02  0.20834715167E+03  0.23159995044E+03  0.41800000000E+01 0. -1.
</event>
<event>
11    1  0.6455215E-009  0.2988624E+03  0.7561462E-02  0.1000674E+00
         22   -1    0    0    0    0  0.00000000000E+00  0.00000000000E+00  0.15829281305E+04  0.15829281305E+04  0.00000000000E+00 0. -1.
         22   -1    0    0    0    0 -0.00000000000E+00 -0.00000000000E+00 -0.46049692553E+03  0.46049692553E+03  0.00000000000E+00 0. -1.
        -24    2    1    2    0    0  0.19586263183E+03  0.18929663246E+03 -0.31946131614E+03  0.42722132097E+03  0.79165263684E+02 0.  0.
         25    2    1    2    0    0 -0.97490862852E+02 -0.27509412813E+03  0.22247097391E+03  0.38771446289E+03  0.12509165774E+03 0.  0.
         24    2    1    2    0    0 -0.98371768980E+02  0.85797495661E+02  0.12194215472E+04  0.12284892721E+04  0.71824556101E+02 0.  0.
        -11    1    5    5    0    0 -0.36298802816E+02  0.99968321808E+00  0.17094028443E+03  0.17475463740E+03  0.00000000000E+00 0.  1.
         12    1    5    5    0    0 -0.62072966163E+02  0.84797812443E+02  0.10484812627E+04  0.10537346347E+04  0.00000000000E+00 0. -1.
         13    1    3    3    0    0  0.17697837238E+03  0.15223607583E+03 -0.30297181326E+03  0.38247756366E+03  0.00000000000E+00 0. -1.
        -14    1    3    3    0    0  0.18884259455E+02  0.37060556636E+02 -0.16489502879E+02  0.44743757313E+02  0.00000000000E+00 0.  1.
          5    1    4    4  501    0 -0.24959825185E+02  0.39170581073E+01  0.38754836448E+01  0.25900347313E+02  0.41800000000E+01 0.  1.
         -5    1    4    4    0  501 -0.72531037667E+02 -0.27901118623E+03  0.21859549027E+03  0.36181411558E+03  0.41800000000E+01 0.  1.
</event>
<event>
11    1  0.6455215E-009  0.1347102E+03  0.7561462E-02  0.1113613E+00
         22   -1    0    0    0    0  0.00000000000E+00  0.00000000000E+00  0.14831552808E+04  0.14831552808E+04  0.00000000000E+00 0. -1.
         22   -1    0    0    0    0 -0.00000000000E+00 -0.00000000000E+00 -0.13742608625E+04  0.13742608625E+04  0.00000000000E+00 0.  1.
         24    2    1    2    0    0  0.37996409430E+02 -0.31068853401E+02 -0.11673793004E+04  0.11712271323E+04  0.81176128337E+02 0.  0.
         25    2    1    2    0    0 -0.24821944489E+02  0.66105238574E+02 -0.17825013654E+03  0.22892575897E+03  0.12509140838E+03 0.  0.
        -24    2    1    2    0    0 -0.13174464942E+02 -0.35036385173E+02  0.14545238553E+04  0.14572632520E+04  0.81088996132E+02 0.  0.
        -13    1    3    3    0    0  0.39222163287E+02 -0.35039755293E+02 -0.11654659101E+04  0.11666520261E+04  0.00000000000E+00 0.  1.
         14    1    3    3    0    0 -0.12257538570E+01  0.39709018912E+01 -0.19133902988E+01  0.45751062046E+01  0.00000000000E+00 0. -1.
         13    1    5    5    0    0 -0.32299071375E+02 -0.39561100370E+02  0.51334730569E+03  0.51588154351E+03  0.00000000000E+00 0. -1.
        -14    1    5    5    0    0  0.19124606433E+02  0.45247151971E+01  0.94117654956E+03  0.94138170848E+03  0.00000000000E+00 0.  1.
          5    1    4    4  501    0  0.49359562318E+02  0.99955330363E+01 -0.61827721036E+02  0.79852467472E+02  0.41800000000E+01 0.  1.
         -5    1    4    4    0  501 -0.74181506807E+02  0.56109705538E+02 -0.11642241550E+03  0.14907329150E+03  0.41800000000E+01 0.  1.
</event>
<event>
11    1  0.6455215E-009  0.1396540E+03  0.7561462E-02  0.1107945E+00
         22   -1    0    0    0    0  0.00000000000E+00  0.00000000000E+00  0.17468637947E+04  0.17468637947E+04  0.00000000000E+00 0.  1.
         22   -1    0    0    0    0 -0.00000000000E+00 -0.00000000000E+00 -0.67841558856E+03  0.67841558856E+03  0.00000000000E+00 0. -1.
        -24    2    1    2    0    0 -0.20320384594E+02  0.27527825199E+02 -0.65545872475E+03  0.66122326524E+03  0.80120955155E+02 0.  0.
         25    2    1    2    0    0  0.61535297512E+01  0.35771941380E+02  0.21361434935E+03  0.25019231554E+03  0.12509039447E+03 0.  0.
         24    2    1    2    0    0  0.14166854843E+02 -0.63299766579E+02  0.15102925815E+04  0.15138638024E+04  0.81193413232E+02 0.  0.
        -13    1    5    5    0    0 -0.12306640573E+02 -0.34397915130E+01  0.89653485909E+03  0.89662591929E+03  0.00000000000E+00 0.  1.
         14    1    5    5    0    0  0.26473495416E+02 -0.59859975066E+02  0.61375772242E+03  0.61723788316E+03  0.00000000000E+00 0. -1.
         13    1    3    3    0    0 -0.80840682060E+01 -0.20158076291E+02 -0.42549277245E+03  0.42604671059E+03  0.00000000000E+00 0. -1.
        -14    1    3    3    0    0 -0.12236316388E+02  0.47685901490E+02 -0.22996595230E+03  0.23517655465E+03  0.00000000000E+00 0.  1.
          5    1    4    4  501    0  0.11599618399E+02  0.79092832850E+02  0.17207356232E+03  0.18978148120E+03  0.41800000000E+01 0. -1.
         -5    1    4    4    0  501 -0.54460886478E+01 -0.43320891470E+02  0.41540787030E+02  0.60410834346E+02  0.41800000000E+01 0. -1.
</event>
<event>
11    1  0.6455215E-009  0.1721103E+03  0.7561462E-02  0.1076210E+00
         22   -1    0    0    0    0  0.00000000000E+00  0.00000000000E+00  0.42961441156E+03  0.42961441156E+03  0.00000000000E+00 0. -1.
         22   -1    0    0    0    0 -0.00000000000E+00 -0.00000000000E+00 -0.21978557557E+04  0.21978557557E+04  0.00000000000E+00 0. -1.
         24    2    1    2    0    0  0.84817552633E+02 -0.14541997529E+02 -0.20160127988E+04  0.20194145606E+04  0.79511482076E+02 0.  0.
         25    2    1    2    0    0 -0.12412766087E+02 -0.84701051075E+02 -0.13181564583E+03  0.20087860745E+03  0.12509398718E+03 0.  0.
        -24    2    1    2    0    0 -0.72404786546E+02  0.99243048604E+02  0.37958710045E+03  0.40717699923E+03  0.81333302273E+02 0.  0.
        -13    1    3    3    0    0  0.14713478739E+02  0.27732523209E+02 -0.35492878596E+03  0.35631449929E+03  0.00000000000E+00 0.  1.
         14    1    3    3    0    0  0.70104073895E+02 -0.42274520738E+02 -0.16610840128E+04  0.16631000613E+04  0.00000000000E+00 0. -1.
         13    1    5    5    0    0 -0.43411978707E+02  0.60926927788E+02  0.32903689540E+03  0.33743439208E+03  0.00000000000E+00 0. -1.
        -14    1    5    5    0    0 -0.28992807839E+02  0.38316120816E+02  0.50550205058E+02  0.69742607150E+02  0.00000000000E+00 0.  1.
          5    1    4    4  501    0 -0.12662690453E+02 -0.11615131883E+03 -0.85948328555E+02  0.14510706453E+03  0.41800000000E+01 0. -1.
         -5    1    4    4    0  501  0.24992436646E+00  0.31450267760E+02 -0.45867317279E+02  0.55771542912E+02  0.41800000000E+01 0. -1.
</event>
<event>
11    1  0.6455215E-009  0.1817975E+03  0.7561462E-02  0.1068198E+00
         22   -1    0    0    0    0  0.00000000000E+00  0.00000000000E+00  0.10816908966E+04  0.10816908966E+04  0.00000000000E+00 0. -1.
         22   -1    0    0    0    0 -0.00000000000E+00 -0.00000000000E+00 -0.38462255678E+03  0.38462255678E+03  0.00000000000E+00 0.  1.
         24    2    1    2    0    0 -0.10253635841E+03  0.90576725168E+02 -0.25981459401E+03  0.30309636613E+03  0.75139443470E+02 0.  0.
         25    2    1    2    0    0  0.78322371846E+02 -0.85723987409E+02 -0.28875239867E+02  0.17310648630E+03  0.12509628361E+03 0.  0.
        -24    2    1    2    0    0  0.24213986565E+02 -0.48527377594E+01  0.98575817370E+03  0.99011060096E+03  0.89386569984E+02 0.  0.
        -13    1    3    3    0    0 -0.84923804906E+02  0.30912789147E+02 -0.18423232717E+03  0.20520527173E+03  0.00000000000E+00 0.  1.
         14    1    3    3    0    0 -0.17612553505E+02  0.59663936022E+02 -0.75582266844E+02  0.97891094405E+02  0.00000000000E+00 0. -1.
         13    1    5    5    0    0  0.77196275779E+01 -0.45841295276E+01  0.95634509852E+03  0.95638724080E+03  0.00000000000E+00 0. -1.
        -14    1    5    5    0    0  0.16494358987E+02 -0.26860823180E+00  0.29413075183E+02  0.33723360161E+02  0.00000000000E+00 0.  1.
          5    1    4    4  501    0  0.89526896424E+02 -0.90702248869E+02  0.14036027723E+02  0.12828267852E+03  0.41800000000E+01 0.  1.
         -5    1    4    4    0  501 -0.11204524578E+02  0.49782614604E+01 -0.42911267591E+02  0.44823807786E+02  0.41800000000E+01 0.  1.
</event>
<event>
11    1  0.6455215E-009  0.1567295E+03  0.7561462E-02  0.1090194E+00
         22   -1    0    0    0    0  0.00000000000E+00  0.00000000000E+00  0.10618643078E+04  0.10618643078E+04  0.00000000000E+00 0. -1.
         22   -1    0    0    0    0 -0.00000000000E+00 -0.00000000000E+00 -0.20501232177E+03  0.20501232177E+03  0.00000000000E+00 0. -1.
        -24    2    1    2    0    0  0.24031541473E+02 -0.30504882669E+01 -0.17596423805E+03  0.19476312540E+03  0.79890183872E+02 0.  0.
         25    2    1    2    0    0  0.12443609066E+02  0.92854677217E+02  0.66260125476E+03  0.68078215240E+03  0.12508829570E+03 0.  0.
         24    2    1    2    0    0 -0.36475150539E+02 -0.89804188951E+02  0.37021496929E+03  0.39133135174E+03  0.81767196428E+02 0.  0.
        -13    1    5    5    0    0 -0.97763012016E+00 -0.38893230876E+02  0.41803231425E+02  0.57106473593E+02  0.00000000000E+00 0.  1.
         14    1    5    5    0    0 -0.35497520419E+02 -0.50910958074E+02  0.32841173786E+03  0.33422487815E+03  0.00000000000E+00 0. -1.
         13    1    3    3    0    0  0.27383934771E+02 -0.17136738404E+02 -0.17730288911E+03  0.18022170283E+03  0.00000000000E+00 0. -1.
        -14    1    3    3    0    0 -0.33523932975E+01  0.14086250137E+02  0.13386510529E+01  0.14541422571E+02  0.00000000000E+00 0.  1.
          5    1    4    4  501    0 -0.42798249505E+02  0.65049052291E+02  0.51230073433E+03  0.51820129695E+03  0.41800000000E+01 0. -1.
         -5    1    4    4    0  501  0.55241858571E+02  0.27805624926E+02  0.15030052043E+03  0.16258085545E+03  0.41800000000E+01 0. -1.
</event>
<event>
11    1  0.6455215E-009  0.1511887E+03  0.7561462E-02  0.1095670E+00
         22   -1    0    0    0    0  0.00000000000E+00  0.00000000000E+00  0.41500070196E+03  0.41500070196E+03  0.00000000000E+00 0. -1.
         22   -1    0    0    0    0 -0.00000000000E+00 -0.00000000000E+00 -0.47051899445E+03  0.47051899445E+03  0.00000000000E+00 0.  1.
        -24    2    1    2    0    0  0.14057247148E+02 -0.83721978649E+02 -0.38275392545E+03  0.40010426773E+03  0.79849118373E+02 0.  0.
         25    2    1    2    0    0 -0.56670817056E+02  0.75750051812E+02  0.12401252231E+02  0.15732451680E+03  0.12509021015E+03 0.  0.
         24    2    1    2    0    0  0.42613569908E+02  0.79719268371E+01  0.31483438072E+03  0.32809091187E+03  0.81507614436E+02 0.  0.
        -11    1    5    5    0    0 -0.21068590628E+02 -0.11877574482E+02  0.11157031653E+03  0.11416171783E+03  0.00000000000E+00 0.  1.
         12    1    5    5    0    0  0.63682160536E+02  0.19849501319E+02  0.20326406419E+03  0.21392919405E+03  0.00000000000E+00 0. -1.
         13    1    3    3    0    0  0.87535176842E+00 -0.71946670944E+02 -0.14675690001E+03  0.16344625233E+03  0.00000000000E+00 0. -1.
        -14    1    3    3    0    0  0.13181895380E+02 -0.11775307705E+02 -0.23599702544E+03  0.23665801541E+03  0.00000000000E+00 0.  1.
          5    1    4    4  501    0 -0.65377323804E+02  0.77240443774E+02 -0.36348002674E+02  0.10760543816E+03  0.41800000000E+01 0.  1.
         -5    1    4    4    0  501  0.87065067477E+01 -0.14903919621E+01  0.48749254905E+02  0.49719078649E+02  0.41800000000E+01 0.  1.
</event>
<event>
11    1  0.6455215E-009  0.1840714E+03  0.7561462E-02  0.1066396E+00
         22   -1    0    0    0    0  0.00000000000E+00  0.00000000000E+00  0.36548176310E+03  0.36548176310E+03  0.00000000000E+00 0.  1.
         22   -1    0    0    0    0 -0.00000000000E+00 -0.00000000000E+00 -0.14139924470E+04  0.14139924470E+04  0.00000000000E+00 0. -1.
         24    2    1    2    0    0 -0.13005043896E+03 -0.64873819098E+01 -0.94494771648E+03  0.95723479622E+03  0.80106587764E+02 0.  0.
         25    2    1    2    0    0  0.15313036823E+03 -0.56832266578E+02 -0.43140461159E+03  0.47794929745E+03  0.12508707303E+03 0.  0.
        -24    2    1    2    0    0 -0.23079929275E+02  0.63319648488E+02  0.32784164421E+03  0.34429011638E+03  0.80706130737E+02 0.  0.
        -11    1    3    3    0    0 -0.28450678651E+02  0.16396338804E+02 -0.87027371486E+02  0.93016366461E+02  0.00000000000E+00 0.  1.
         12    1    3    3    0    0 -0.10159976031E+03 -0.22883720714E+02 -0.85792034500E+03  0.86421842976E+03  0.00000000000E+00 0. -1.
         11    1    5    5    0    0 -0.63850855448E+01 -0.18353495689E+02  0.95222506573E+02  0.97185111409E+02  0.00000000000E+00 0. -1.
        -12    1    5    5    0    0 -0.16694843730E+02  0.81673144177E+02  0.23261913764E+03  0.24710500497E+03  0.00000000000E+00 0.  1.
          5    1    4    4  501    0  0.11740317076E+03 -0.78100692933E+02 -0.21230481397E+03  0.25490003761E+03  0.41800000000E+01 0.  1.
         -5    1    4    4    0  501  0.35727197471E+02  0.21268426354E+02 -0.21909979762E+03  0.22304925984E+03  0.41800000000E+01 0.  1.
</event>
<event>
11    1  0.6455215E-009  0.1481760E+03  0.7561462E-02  0.1098757E+00
         22   -1    0    0    0    0  0.00000000000E+00  0.00000000000E+00  0.89768143658E+03  0.89768143658E+03  0.00000000000E+00 0.  1.
         22   -1    0    0    0    0 -0.00000000000E+00 -0.00000000000E+00 -0.41671165958E+03  0.41671165958E+03  0.00000000000E+00 0.  1.
        -24    2    1    2    0    0  0.18693691561E+02  0.22480038182E+02 -0.37879221085E+03  0.38856256229E+03  0.81501653902E+02 0.  0.
         25    2    1    2    0    0 -0.90346635580E+02  0.88223659276E+01  0.18155972792E+03  0.23843871804E+03  0.12509491899E+03 0.  0.
         24    2    1    2    0    0  0.71652944019E+02 -0.31302404110E+02  0.67820225993E+03  0.68739181582E+03  0.80219811781E+02 0.  0.
        -13    1    5    5    0    0  0.41732010619E+02 -0.39096122088E+02  0.19527535296E+03  0.20347611886E+03  0.00000000000E+00 0.  1.
         14    1    5    5    0    0  0.29920933399E+02  0.77937179780E+01  0.48292690697E+03  0.48391569697E+03  0.00000000000E+00 0. -1.
         11    1    3    3    0    0 -0.16214847372E+02 -0.13982088610E+02 -0.34602380017E+02  0.40690843933E+02  0.00000000000E+00 0. -1.
        -12    1    3    3    0    0  0.34908538933E+02  0.36462126792E+02 -0.34418983084E+03  0.34787171836E+03  0.00000000000E+00 0.  1.
          5    1    4    4  501    0 -0.51699051570E+02  0.54499647716E+02  0.41149103958E+02  0.85753861085E+02  0.41800000000E+01 0. -1.
         -5    1    4    4    0  501 -0.38647584010E+02 -0.45677281789E+02  0.14041062397E+03  0.15268485696E+03  0.41800000000E+01 0. -1.
</event>
<event>
11    1  0.6455215E-009  0.1324785E+03  0.7561462E-02  0.1116261E+00
         22   -1    0    0    0    0  0.00000000000E+00  0.00000000000E+00  0.61969221051E+03  0.61969221051E+03  0.00000000000E+00 0. -1.
         22   -1    0    0    0    0 -0.00000000000E+00 -0.00000000000E+00 -0.16598030484E+03  0.16598030484E+03  0.00000000000E+00 0. -1.
        -24    2    1    2    0    0  0.39754580374E+02  0.17073963239E+02 -0.13059652891E+03  0.15580217460E+03  0.73122618708E+02 0.  0.
         25    2    1    2    0    0 -0.38937612836E+02 -0.37490147543E+02  0.24197317819E+03  0.27770690852E+03  0.12509380168E+03 0.  0.
         24    2    1    2    0    0 -0.81696753711E+00  0.20416184303E+02  0.34233525639E+03  0.35216343223E+03  0.80051028807E+02 0.  0.
        -11    1    5    5    0    0 -0.38192843887E+02  0.23113766405E+02  0.20524035719E+03  0.21003938617E+03  0.00000000000E+00 0.  1.
         12    1    5    5    0    0  0.37375876350E+02 -0.26975821020E+01  0.13709489920E+03  0.14212404606E+03  0.00000000000E+00 0. -1.
         11    1    3    3    0    0 -0.90030150551E+01 -0.10761955948E+01 -0.88266128961E+02  0.88730614777E+02  0.00000000000E+00 0. -1.
        -12    1    3    3    0    0  0.48757595429E+02  0.18150158834E+02 -0.42330399947E+02  0.67071559825E+02  0.00000000000E+00 0.  1.
          5    1    4    4  501    0 -0.35496823805E+02  0.34538082423E+02  0.41944907582E+02  0.65036538267E+02  0.41800000000E+01 0.  1.
         -5    1    4    4    0  501 -0.34407890315E+01 -0.72028229965E+02  0.20002827061E+03  0.21267037025E+03  0.41800000000E+01 0.  1.
</event>
<event>
11    1  0.6455215E-009  0.2347265E+03  0.7561462E-02  0.1032366E+00
         22   -1    0    0    0    0  0.00000000000E+00  0.00000000000E+00  0.94914190779E+03  0.94914190779E+03  0.00000000000E+00 0. -1.
         22   -1    0    0    0    0 -0.00000000000E+00 -0.00000000000E+00 -0.20090500262E+04  0.20090500262E+04  0.00000000000E+00 0. -1.
        -24    2    1    2    0    0  0.28567780406E+02  0.61622358025E+02 -0.19345713538E+04  0.19374296857E+04  0.80336983722E+02 0.  0.
         25    2    1    2    0    0  0.70808028226E+01  0.14874799539E+03  0.11062743619E+03  0.22374557470E+03  0.12509016213E+03 0.  0.
         24    2    1    2    0    0 -0.35648583228E+02 -0.21037035341E+03  0.76403579922E+03  0.79701667359E+03  0.77190468351E+02 0.  0.
        -11    1    5    5    0    0 -0.59130619864E+02 -0.12618992020E+03  0.45526072594E+03  0.47611201912E+03  0.00000000000E+00 0.  1.
         12    1    5    5    0    0  0.23482036635E+02 -0.84180433213E+02  0.30877507328E+03  0.32090465447E+03  0.00000000000E+00 0. -1.
         11    1    3    3    0    0  0.14976224453E+02  0.78732267780E+02 -0.16845079501E+04  0.16864133808E+04  0.00000000000E+00 0. -1.
        -12    1    3    3    0    0  0.13591555952E+02 -0.17109909756E+02 -0.25006340372E+03  0.25101630482E+03  0.00000000000E+00 0.  1.
          5    1    4    4  501    0 -0.19040456320E+02  0.51459018415E+02 -0.20163569927E+02  0.58605558656E+02  0.41800000000E+01 0. -1.
         -5    1    4    4    0  501  0.26121259143E+02  0.97288976970E+02  0.13079100611E+03  0.16514001604E+03  0.41800000000E+01 0. -1.
</event>
<event>
11    1  0.6455215E-009  0.1255704E+03  0.7561462E-02  0.1124835E+00
         22   -1    0    0    0    0  0.00000000000E+00  0.00000000000E+00  0.17507076574E+04  0.17507076574E+04  0.00000000000E+00 0. -1.
         22   -1    0    0    0    0 -0.00000000000E+00 -0.00000000000E+00 -0.14304898318E+03  0.14304898318E+03  0.00000000000E+00 0.  1.
        -24    2    1    2    0    0 -0.13484076987E+02 -0.60159772068E+01 -0.31091540968E+02  0.96179173372E+02  0.89809449151E+02 0.  0.
         25    2    1    2    0    0 -0.24629926241E+02  0.18970618964E+02 -0.25139042831E+02  0.13132303915E+03  0.12508897428E+03 0.  0.
         24    2    1    2    0    0  0.38114003228E+02 -0.12954641757E+02  0.16638892580E+04  0.16662544280E+04  0.79093970131E+02 0.  0.
        -13    1    5    5    0    0  0.18706677521E+02 -0.43840567199E+02  0.66855578132E+03  0.67025276415E+03  0.00000000000E+00 0.  1.
         14    1    5    5    0    0  0.19407325707E+02  0.30885925442E+02  0.99533347668E+03  0.99600166390E+03  0.00000000000E+00 0. -1.
         13    1    3    3    0    0 -0.33975886605E+02  0.10562115376E+01  0.20862577040E+02  0.39883876117E+02  0.00000000000E+00 0. -1.
        -14    1    3    3    0    0  0.20491809618E+02 -0.70721887445E+01 -0.51954118007E+02  0.56295297255E+02  0.00000000000E+00 0.  1.
          5    1    4    4  501    0  0.27905037816E+01  0.64850492665E+02 -0.39139168088E+02  0.75912582546E+02  0.41800000000E+01 0.  1.
         -5    1    4    4    0  501 -0.27420430023E+02 -0.45879873701E+02  0.14000125257E+02  0.55410456600E+02  0.41800000000E+01 0.  1.
</event>
<event>
11    1  0.6455215E-009  0.2142387E+03  0.7561462E-02  0.1044888E+00
         22   -1    0    0    0    0  0.00000000000E+00  0.00000000000E+00  0.11602178504E+04  0.11602178504E+04  0.00000000000E+00 0. -1.
         22   -1    0    0    0    0 -0.00000000000E+00 -0.00000000000E+00 -0.63936658591E+03  0.63936658591E+03  0.00000000000E+00 0. -1.
        -24    2    1    2    0    0  0.11836384320E+03 -0.10866589697E+03 -0.38098831816E+03  0.42226215713E+03  0.85644347323E+02 0.  0.
         25    2    1    2    0    0 -0.14055836284E+03  0.16712197485E+03 -0.16807003739E+03  0.30262675985E+03  0.12509600500E+03 0.  0.
         24    2    1    2    0    0  0.22194519642E+02 -0.58456077876E+02  0.10699096201E+04  0.10746955194E+04  0.79712950348E+02 0.  0.
        -13    1    5    5    0    0  0.31617477159E+02 -0.14285071876E+02  0.16249605150E+03  0.16615864375E+03  0.00000000000E+00 0.  1.
         14    1    5    5    0    0 -0.94229575166E+01 -0.44171006000E+02  0.90741356857E+03  0.90853687560E+03  0.00000000000E+00 0. -1.
         13    1    3    3    0    0  0.93149288653E+02 -0.12156491354E+03 -0.33320633958E+03  0.36671689751E+03  0.00000000000E+00 0. -1.
        -14    1    3    3    0    0  0.25214554543E+02  0.12899016573E+02 -0.47781978576E+02  0.55545259618E+02  0.00000000000E+00 0.  1.
          5    1    4    4  501    0 -0.30111226945E+02  0.13605440360E+02  0.17511655983E+02  0.37628772114E+02  0.41800000000E+01 0.  1.
         -5    1    4    4    0  501 -0.11044713589E+03  0.15351653449E+03 -0.18558169337E+03  0.26499798774E+03  0.41800000000E+01 0.  1.
</event>
<event>
11    1  0.6455215E-009  0.1669996E+03  0.7561462E-02  0.1080673E+00
         22   -1    0    0    0    0  0.00000000000E+00  0.00000000000E+00  0.19620912649E+03  0.19620912649E+03  0.00000000000E+00 0. -1.
         22   -1    0    0    0    0 -0.00000000000E+00 -0.00000000000E+00 -0.37183797132E+03  0.37183797132E+03  0.00000000000E+00 0. -1.
        -24    2    1    2    0    0  0.50395789046E+02 -0.27860945830E+02 -0.21548047830E+03  0.23770939284E+03  0.82206758003E+02 0.  0.
         25    2    1    2    0    0 -0.12906326492E+03  0.79435021325E+02 -0.99795185369E+01  0.19676772624E+03  0.12510275112E+03 0.  0.
         24    2    1    2    0    0  0.78667475869E+02 -0.51574075495E+02  0.49831152004E+02  0.13356997873E+03  0.80680471519E+02 0.  0.
        -11    1    5    5    0    0  0.25498019511E+02 -0.52742708588E+02 -0.29300631943E+01  0.58656010592E+02  0.00000000000E+00 0.  1.
         12    1    5    5    0    0  0.53169456358E+02  0.11686330933E+01  0.52761215198E+02  0.74913968136E+02  0.00000000000E+00 0. -1.
         11    1    3    3    0    0  0.54537094094E+02 -0.37043044848E+02 -0.88640042676E+02  0.11046962917E+03  0.00000000000E+00 0. -1.
        -12    1    3    3    0    0 -0.41413050485E+01  0.91820990173E+01 -0.12684043562E+03  0.12723976367E+03  0.00000000000E+00 0.  1.
          5    1    4    4  501    0 -0.29906173380E+02  0.18342184174E+02 -0.60250858463E+02  0.69845925236E+02  0.41800000000E+01 0. -1.
         -5    1    4    4    0  501 -0.99157091535E+02  0.61092837151E+02  0.50271339926E+02  0.12692180101E+03  0.41800000000E+01 0. -1.
</event>
<event>
11    1  0.6455215E-009  0.1632167E+03  0.7561462E-02  0.1084090E+00
         22   -1    0    0    0    0  0.00000000000E+00  0.00000000000E+00  0.43675148250E+03  0.43675148250E+03  0.00000000000E+00 0.  1.
         22   -1    0    0    0    0 -0.00000000000E+00 -0.00000000000E+00 -0.15828232846E+04  0.15828232846E+04  0.00000000000E+00 0.  1.
        -24    2    1    2    0    0 -0.78532738799E+02  0.70007758876E+02 -0.14608860287E+04  0.14668000634E+04  0.79031384459E+02 0.  0.
         25    2    1    2    0    0  0.11342534779E+03 -0.17454761004E+02 -0.47571696426E+02  0.17629255156E+03  0.12508404868E+03 0.  0.
         24    2    1    2    0    0 -0.34892608988E+02 -0.52552997872E+02  0.36238592306E+03  0.37648215212E+03  0.80224322262E+02 0.  0.
        -11    1    5    5    0    0 -0.34343261645E+02 -0.68511068339E+02  0.34254907350E+03  0.35101722729E+03  0.00000000000E+00 0.  1.
         12    1    5    5    0    0 -0.54934734344E+00  0.15958070467E+02  0.19836849570E+02  0.25464924826E+02  0.00000000000E+00 0. -1.
         11    1    3    3    0    0 -0.53619049124E+02  0.26560025707E+02 -0.37362873597E+03  0.37838983831E+03  0.00000000000E+00 0. -1.
        -12    1    3    3    0    0 -0.24913689674E+02  0.43447733169E+02 -0.10872572928E+04  0.10884102251E+04  0.00000000000E+00 0.  1.
          5    1    4    4  501    0  0.72600218769E+02  0.42658134601E+02 -0.58603306545E+02  0.10267584015E+03  0.41800000000E+01 0. -1.
         -5    1    4    4    0  501  0.40825129018E+02 -0.60112895604E+02  0.11031610118E+02  0.73616711412E+02  0.41800000000E+01 0. -1.
</event>
<event>
11    1  0.6455215E-009  0.1931858E+03  0.7561462E-02  0.1059450E+00
         22   -1    0    0    0    0  0.00000000000E+00  0.00000000000E+00  0.11259757824E+04  0.11259757824E+04  0.00000000000E+00 0.  1.
         22   -1    0    0    0    0 -0.00000000000E+00 -0.00000000000E+00 -0.33935797073E+03  0.33935797073E+03  0.00000000000E+00 0.  1.
         24    2    1    2    0    0 -0.14690861353E+03  0.27038635018E+02 -0.29752748879E+03  0.34237989056E+03  0.79925930468E+02 0.  0.
         25    2    1    2    0    0  0.10878963629E+03  0.10425534949E+02  0.41816621280E+03  0.44995248696E+03  0.12510148781E+03 0.  0.
        -24    2    1    2    0    0  0.38118977241E+02 -0.37464169967E+02  0.66597908771E+03  0.67300137566E+03  0.80907885381E+02 0.  0.
        -13    1    3    3    0    0 -0.11990542824E+03  0.40537344742E+02 -0.28046374062E+03  0.30770196269E+03  0.00000000000E+00 0.  1.
         14    1    3    3    0    0 -0.27003185285E+02 -0.13498709724E+02 -0.17063748174E+02  0.34677927872E+02  0.00000000000E+00 0. -1.
         11    1    5    5    0    0  0.44833696253E+02  0.99212010333E+01  0.41213607870E+03  0.41468619210E+03  0.00000000000E+00 0. -1.
        -12    1    5    5    0    0 -0.67147190122E+01 -0.47385371000E+02  0.25384300900E+03  0.25831518356E+03  0.00000000000E+00 0.  1.
          5    1    4    4  501    0  0.92171221662E+02  0.36477328053E+02  0.40345318950E+03  0.41547331813E+03  0.41800000000E+01 0. -1.
         -5    1    4    4    0  501  0.16618414625E+02 -0.26051793104E+02  0.14713023307E+02  0.34479168833E+02  0.41800000000E+01 0. -1.
</event>
<event>
11    1  0.6455215E-009  0.1743304E+03  0.7561462E-02  0.1074323E+00
         22   -1    0    0    0    0  0.00000000000E+00  0.00000000000E+00  0.98876085200E+03  0.98876085200E+03  0.00000000000E+00 0. -1.
         22   -1    0    0    0    0 -0.00000000000E+00 -0.00000000000E+00 -0.11137243774E+03  0.11137243774E+03  0.00000000000E+00 0. -1.
        -24    2    1    2    0    0 -0.13681527973E+03 -0.78519799485E+02  0.38990836153E+02  0.18103777055E+03  0.79816097271E+02 0.  0.
         25    2    1    2    0    0  0.61818943424E+02  0.38687739591E+02  0.11138671705E+03  0.18267970735E+03  0.12508617741E+03 0.  0.
         24    2    1    2    0    0  0.74996336310E+02  0.39832059894E+02  0.72701086106E+03  0.73641581184E+03  0.80946972587E+02 0.  0.
        -13    1    5    5    0    0  0.14114542245E+02 -0.66103690184E+01  0.20422390840E+02  0.25690296397E+02  0.00000000000E+00 0.  1.
         14    1    5    5    0    0  0.60881794065E+02  0.46442428912E+02  0.70658847022E+03  0.71072551544E+03  0.00000000000E+00 0. -1.
         13    1    3    3    0    0 -0.59501544777E+01 -0.47919896325E+01 -0.18649032753E+02  0.20153260916E+02  0.00000000000E+00 0. -1.
        -14    1    3    3    0    0 -0.13086512526E+03 -0.73727809852E+02  0.57639868906E+02  0.16088450964E+03  0.00000000000E+00 0.  1.
          5    1    4    4  501    0  0.86271309763E+02  0.42459453439E+01  0.11038129436E+03  0.14022221466E+03  0.41800000000E+01 0. -1.
         -5    1    4    4    0  501 -0.24452366339E+02  0.34441794247E+02  0.10054226966E+01  0.42457492688E+02  0.41800000000E+01 0. -1.
</event>
<event>
11    1  0.6455215E-009  0.1343433E+03  0.7561462E-02  0.1114045E+00
         22   -1    0    0    0    0  0.00000000000E+00  0.00000000000E+00  0.45650552228E+03  0.45650552228E+03  0.00000000000E+00 0.  1.
         22   -1    0    0    0    0 -0.00000000000E+00 -0.00000000000E+00 -0.40207936119E+03  0.40207936119E+03  0.00000000000E+00 0. -1.
        -24    2    1    2    0    0  0.36230415035E+02  0.20083481787E+02 -0.22916478574E+03  0.24673813121E+03  0.81530467639E+02 0.  0.
         25    2    1    2    0    0 -0.70019108131E+02 -0.35791863879E+02 -0.12511252016E+03  0.19360363193E+03  0.12508193544E+03 0.  0.
         24    2    1    2    0    0  0.33788693096E+02  0.15708382092E+02  0.40870346699E+03  0.41824312033E+03  0.80624777357E+02 0.  0.
        -11    1    5    5    0    0 -0.75992380737E+01 -0.12681625003E+02  0.27552643507E+03  0.27592279437E+03  0.00000000000E+00 0.  1.
         12    1    5    5    0    0  0.41387931170E+02  0.28390007095E+02  0.13317703192E+03  0.14232032596E+03  0.00000000000E+00 0. -1.
         13    1    3    3    0    0  0.47338928418E+02 -0.13557356329E+02 -0.17669299233E+03  0.18342625110E+03  0.00000000000E+00 0. -1.
        -14    1    3    3    0    0 -0.11108513383E+02  0.33640838116E+02 -0.52471793411E+02  0.63311880105E+02  0.00000000000E+00 0.  1.
          5    1    4    4  501    0 -0.56223466776E+02 -0.29302285665E+02  0.38694770846E+01  0.63656479752E+02  0.41800000000E+01 0.  1.
         -5    1    4    4    0  501 -0.13795641355E+02 -0.64895782148E+01 -0.12898199725E+03  0.12994715218E+03  0.41800000000E+01 0.  1.
</event>
<event>
11    1  0.6455215E-009  0.2082676E+03  0.7561462E-02  0.1048826E+00
         22   -1    0    0    0    0  0.00000000000E+00  0.00000000000E+00  0.50387286263E+03  0.50387286263E+03  0.00000000000E+00 0. -1.
         22   -1    0    0    0    0 -0.00000000000E+00 -0.00000000000E+00 -0.70759235777E+03  0.70759235777E+03  0.00000000000E+00 0. -1.
         24    2    1    2    0    0 -0.22613282970E+02  0.63160494568E+02 -0.57489540857E+03  0.58422975333E+03  0.79492548333E+02 0.  0.
         25    2    1    2    0    0  0.95736440536E+02 -0.19998275189E+03  0.46625699088E+02  0.25880464778E+03  0.12508925931E+03 0.  0.
        -24    2    1    2    0    0 -0.73123157565E+02  0.13682225733E+03  0.32455021434E+03  0.36843081929E+03  0.79631028522E+02 0.  0.
        -13    1    3    3    0    0  0.10431349786E+02  0.21977111786E+02 -0.40591077539E+02  0.47322743756E+02  0.00000000000E+00 0.  1.
         14    1    3    3    0    0 -0.33044632756E+02  0.41183382782E+02 -0.53430433103E+03  0.53690700957E+03  0.00000000000E+00 0. -1.
         11    1    5    5    0    0 -0.29645325147E+02  0.77479408841E+02  0.25120778528E+03  0.26455104513E+03  0.00000000000E+00 0. -1.
        -12    1    5    5    0    0 -0.43477832418E+02  0.59342848486E+02  0.73342429060E+02  0.10387977416E+03  0.00000000000E+00 0.  1.
          5    1    4    4  501    0 -0.10619004764E+02 -0.50480869293E+02  0.54443714442E+02  0.75117720073E+02  0.41800000000E+01 0. -1.
         -5    1    4    4    0  501  0.10635544530E+03 -0.14950188260E+03 -0.78180153531E+01  0.18368692771E+03  0.41800000000E+01 0. -1.
</event>
<event>
11    1  0.6455215E-009  0.1357407E+03  0.7561462E-02  0.1112410E+00
         22   -1    0    0    0    0  0.00000000000E+00  0.00000000000E+00  0.15052858962E+03  0.15052858962E+03  0.00000000000E+00 0. -1.
         22   -1    0    0    0    0 -0.00000000000E+00 -0.00000000000E+00 -0.64000314691E+03  0.64000314691E+03  0.00000000000E+00 0. -1.
        -24    2    1    2    0    0  0.56391088424E+02 -0.26512427887E+02 -0.39562451968E+03  0.40837096190E+03  0.79782318007E+02 0.  0.
         25    2    1    2    0    0 -0.27642071039E+02 -0.13064012920E+01 -0.20366388656E+03  0.24060805739E+03  0.12508983899E+03 0.  0.
         24    2    1    2    0    0 -0.28749017385E+02  0.27818829179E+02  0.10981384895E+03  0.14155271723E+03  0.79860485078E+02 0.  0.
        -11    1    5    5    0    0 -0.22363576132E+02  0.22213265658E+02  0.11065263854E+00  0.31520960528E+02  0.00000000000E+00 0.  1.
         12    1    5    5    0    0 -0.63854412534E+01  0.56055635209E+01  0.10970319631E+03  0.11003175670E+03  0.00000000000E+00 0. -1.
         11    1    3    3    0    0  0.59776348940E+02 -0.20583510005E+02 -0.39648129336E+03  0.40149011042E+03  0.00000000000E+00 0. -1.
        -12    1    3    3    0    0 -0.33852605157E+01 -0.59289178819E+01  0.85677368229E+00  0.68808514845E+01  0.00000000000E+00 0.  1.
          5    1    4    4  501    0 -0.73118670105E+02 -0.39891441098E+01 -0.78922453204E+02  0.10774265269E+03  0.41800000000E+01 0.  1.
         -5    1    4    4    0  501  0.45476599066E+02  0.26827428178E+01 -0.12474143335E+03  0.13286540470E+03  0.41800000000E+01 0.  1.
</event>
<event>
11    1  0.6455215E-009  0.1845708E+03  0.7561462E-02  0.1066004E+00
         22   -1    0    0    0    0  0.00000000000E+00  0.00000000000E+00  0.43703854987E+03  0.43703854987E+03  0.00000000000E+00 0.  1.
         22   -1    0    0    0    0 -0.00000000000E+00 -0.00000000000E+00 -0.10506600954E+04  0.10506600954E+04  0.00000000000E+00 0. -1.
         24    2    1    2    0    0 -0.61653359037E+02 -0.12231117660E+03 -0.92970442733E+03  0.94317445905E+03  0.80415032199E+02 0.  0.
         25    2    1    2    0    0  0.68205903798E+02  0.10269847785E+03 -0.38440844015E+02  0.17979378944E+03  0.12509630517E+03 0.  0.
        -24    2    1    2    0    0 -0.65525447614E+01  0.19612698748E+02  0.35452372578E+03  0.36473039683E+03  0.83148039267E+02 0.  0.
        -13    1    3    3    0    0 -0.78608531169E+01 -0.10042036859E+03 -0.58102396893E+03  0.58969050858E+03  0.00000000000E+00 0.  1.
         14    1    3    3    0    0 -0.53792505920E+02 -0.21890808010E+02 -0.34868045841E+03  0.35348395047E+03  0.00000000000E+00 0. -1.
         11    1    5    5    0    0 -0.38096215059E+02  0.12498996116E+02  0.93808465826E+02  0.10201752186E+03  0.00000000000E+00 0. -1.
        -12    1    5    5    0    0  0.31543670298E+02  0.71137026317E+01  0.26071525995E+03  0.26271287497E+03  0.00000000000E+00 0.  1.
          5    1    4    4  501    0  0.45639483570E+02  0.11498967400E+03  0.10632529064E+02  0.12424214527E+03  0.41800000000E+01 0.  1.
         -5    1    4    4    0  501  0.22566420228E+02 -0.12291196152E+02 -0.49073373079E+02  0.55551644171E+02  0.41800000000E+01 0.  1.
</event>
<event>
11    1  0.6455215E-009  0.1676223E+03  0.7561462E-02  0.1080120E+00
         22   -1    0    0    0    0  0.00000000000E+00  0.00000000000E+00  0.51910944490E+03  0.51910944490E+03  0.00000000000E+00 0.  1.
         22   -1    0    0    0    0 -0.00000000000E+00 -0.00000000000E+00 -0.59721317296E+03  0.59721317296E+03  0.00000000000E+00 0. -1.
        -24    2    1    2    0    0 -0.70873666402E+01 -0.60256154802E+02 -0.54517296968E+03  0.55433704940E+03  0.79968509494E+02 0.  0.
         25    2    1    2    0    0  0.45427880770E+02  0.13928792389E+03  0.30276056472E+03  0.35885405640E+03  0.12508979236E+03 0.  0.
         24    2    1    2    0    0 -0.38340514130E+02 -0.79031769086E+02  0.16430867690E+03  0.20313151205E+03  0.80926227735E+02 0.  0.
        -13    1    5    5    0    0 -0.21459110239E+02 -0.16066685226E+02  0.12315607453E+03  0.12603987655E+03  0.00000000000E+00 0.  1.
         14    1    5    5    0    0 -0.16881403891E+02 -0.62965083859E+02  0.41152602367E+02  0.77091635502E+02  0.00000000000E+00 0. -1.
         13    1    3    3    0    0  0.20351887252E+02 -0.66593887280E+02 -0.43920344157E+03  0.44468933901E+03  0.00000000000E+00 0. -1.
        -14    1    3    3    0    0 -0.27439253892E+02  0.63377324773E+01 -0.10596952811E+03  0.10964771040E+03  0.00000000000E+00 0.  1.
          5    1    4    4  501    0  0.81663554183E+01  0.43074839184E+02  0.22583488224E+03  0.23008910789E+03  0.41800000000E+01 0.  1.
         -5    1    4    4    0  501  0.37261525352E+02  0.96213084705E+02  0.76925682476E+02  0.12876494851E+03  0.41800000000E+01 0.  1.
</event>
<event>
11    1  0.6455215E-009  0.1276135E+03  0.7561462E-02  0.1122236E+00
         22   -1    0    0    0    0  0.00000000000E+00  0.00000000000E+00  0.77275110074E+02  0.77275110074E+02  0.00000000000E+00 0. -1.
         22   -1    0    0    0    0 -0.00000000000E+00 -0.00000000000E+00 -0.10101654404E+04  0.10101654404E+04  0.00000000000E+00 0. -1.
         24    2    1    2    0    0 -0.15498658285E+02 -0.18701101372E+02 -0.70301315501E+03  0.70773298016E+03  0.77900805419E+02 0.  0.
         25    2    1    2    0    0  0.28669914560E+02  0.16541114690E+02 -0.26548145456E+03  0.29533576162E+03  0.12508891598E+03 0.  0.
        -24    2    1    2    0    0 -0.13171256274E+02  0.21599866815E+01  0.35604279248E+02  0.84371808691E+02  0.75317925268E+02 0.  0.
        -13    1    3    3    0    0 -0.66721622661E+01  0.24047933330E+02 -0.97318350829E+02  0.10046731934E+03  0.00000000000E+00 0.  1.
         14    1    3    3    0    0 -0.88264960193E+01 -0.42749034702E+02 -0.60569480418E+03  0.60726566082E+03  0.00000000000E+00 0. -1.
         11    1    5    5    0    0 -0.42977285031E+02 -0.96895473631E+01  0.24616660863E+02  0.50466962944E+02  0.00000000000E+00 0. -1.
        -12    1    5    5    0    0  0.29806028757E+02  0.11849534045E+02  0.10987618385E+02  0.33904845747E+02  0.00000000000E+00 0.  1.
          5    1    4    4  501    0 -0.30172120415E+02  0.37127540625E+02 -0.43730750401E+02  0.64951228271E+02  0.41800000000E+01 0.  1.
         -5    1    4    4    0  501  0.58842034975E+02 -0.20586425935E+02 -0.22175070416E+03  0.23038453335E+03  0.41800000000E+01 0.  1.
</event>
<event>
11    1  0.6455215E-009  0.1437664E+03  0.7561462E-02  0.1103424E+00
         22   -1    0    0    0    0  0.00000000000E+00  0.00000000000E+00  0.14274506204E+03  0.14274506204E+03  0.00000000000E+00 0.  1.
         22   -1    0    0    0    0 -0.00000000000E+00 -0.00000000000E+00 -0.17240217084E+04  0.17240217084E+04  0.00000000000E+00 0. -1.
         24    2    1    2    0    0 -0.36864868187E+02 -0.56856632611E+02 -0.12230192002E+04  0.12275282375E+04  0.80361151238E+02 0.  0.
         25    2    1    2    0    0  0.34014304278E+02  0.81917444249E+02 -0.47248806075E+03  0.49674962009E+03  0.12509107459E+03 0.  0.
        -24    2    1    2    0    0  0.28505639086E+01 -0.25060811638E+02  0.11423061459E+03  0.14248891284E+03  0.81352854751E+02 0.  0.
        -11    1    3    3    0    0 -0.13348875015E+02 -0.27483602243E+02 -0.11873501458E+03  0.12260319957E+03  0.00000000000E+00 0.  1.
         12    1    3    3    0    0 -0.23515993172E+02 -0.29373030368E+02 -0.11042841857E+04  0.11049250380E+04  0.00000000000E+00 0. -1.
         11    1    5    5    0    0  0.41506392901E+02 -0.75843346516E+01  0.65094082081E+02  0.77572819374E+02  0.00000000000E+00 0. -1.
        -12    1    5    5    0    0 -0.38655828992E+02 -0.17476476987E+02  0.49136532512E+02  0.64916093461E+02  0.00000000000E+00 0.  1.
          5    1    4    4  501    0  0.38506735412E+01  0.10903933576E+03 -0.29289214315E+03  0.31258228412E+03  0.41800000000E+01 0.  1.
         -5    1    4    4    0  501  0.30163630737E+02 -0.27121891512E+02 -0.17959591760E+03  0.18416733597E+03  0.41800000000E+01 0.  1.
</event>
<event>
11    1  0.6455215E-009  0.1358043E+03  0.7561462E-02  0.1112336E+00
         22   -1    0    0    0    0  0.00000000000E+00  0.00000000000E+00  0.17488133401E+04  0.17488133401E+04  0.00000000000E+00 0.  1.
         22   -1    0    0    0    0 -0.00000000000E+00 -0.00000000000E+00 -0.39513399343E+02  0.39513399343E+02  0.00000000000E+00 0. -1.
         24    2    1    2    0    0 -0.91322752749E+01 -0.33667710875E+02  0.51615015061E+02  0.10219254092E+03  0.81007977589E+02 0.  0.
         25    2    1    2    0    0  0.48750708708E+02 -0.44822280168E+01  0.35446229351E+03  0.37905881641E+03  0.12508136075E+03 0.  0.
        -24    2    1    2    0    0 -0.39618433433E+02  0.38149938892E+02  0.13032226322E+04  0.13070753821E+04  0.83855753430E+02 0.  0.
        -13    1    3    3    0    0 -0.14564349051E+02 -0.83110045186E+01  0.68976333574E+02  0.70985404505E+02  0.00000000000E+00 0.  1.
         14    1    3    3    0    0  0.54320737763E+01 -0.25356706357E+02 -0.17361318514E+02  0.31207136416E+02  0.00000000000E+00 0. -1.
         11    1    5    5    0    0  0.21696187181E+02  0.44947422335E+01  0.13911681921E+03  0.14087021201E+03  0.00000000000E+00 0. -1.
        -12    1    5    5    0    0 -0.61314620615E+02  0.33655196659E+02  0.11641058130E+04  0.11662051701E+04  0.00000000000E+00 0.  1.
          5    1    4    4  501    0  0.67398682669E+02 -0.22837537767E+02  0.34275586490E+03  0.35009026105E+03  0.41800000000E+01 0. -1.
         -5    1    4    4    0  501 -0.18647973960E+02  0.18355309750E+02  0.11706428610E+02  0.28968555360E+02  0.41800000000E+01 0. -1.
</event>
<event>
11    1  0.6455215E-009  0.2259064E+03  0.7561462E-02  0.1037579E+00
         22   -1    0    0    0    0  0.00000000000E+00  0.00000000000E+00  0.67663705874E+03  0.67663705874E+03  0.00000000000E+00 0.  1.
         22   -1    0    0    0    0 -0.00000000000E+00 -0.00000000000E+00 -0.70029077866E+03  0.70029077866E+03  0.00000000000E+00 0.  1.
        -24    2    1    2    0    0  0.43591611453E+02  0.40937248780E+02 -0.49693572853E+03  0.50686446041E+03  0.79939827424E+02 0.  0.
         25    2    1    2    0    0  0.14321639898E+03 -0.81077372424E+02 -0.12176077647E+03  0.23991190116E+03  0.12509019297E+03 0.  0.
         24    2    1    2    0    0 -0.18680801043E+03  0.40140123644E+02  0.59504278508E+03  0.63015147583E+03  0.80662904321E+02 0.  0.
        -11    1    5    5    0    0 -0.15711376397E+03  0.83632618883E+01  0.52143580550E+03  0.54465583467E+03  0.00000000000E+00 0.  1.
         12    1    5    5    0    0 -0.29694246459E+02  0.31776861756E+02  0.73606979577E+02  0.85495641165E+02  0.00000000000E+00 0. -1.
         11    1    3    3    0    0  0.38658621392E+01  0.47254707106E+02 -0.14310819059E+03  0.15075777409E+03  0.00000000000E+00 0. -1.
        -12    1    3    3    0    0  0.39725749313E+02 -0.63174583259E+01 -0.35382753793E+03  0.35610668632E+03  0.00000000000E+00 0.  1.
          5    1    4    4  501    0  0.15603443515E+02  0.58856288290E+01  0.22654003705E+02  0.28439134306E+02  0.41800000000E+01 0. -1.
         -5    1    4    4    0  501  0.12761295546E+03 -0.86963001253E+02 -0.14441478018E+03  0.21147276686E+03  0.41800000000E+01 0. -1.
</event>
<event>
11    1  0.6455215E-009  0.1687797E+03  0.7561462E-02  0.1079099E+00
         22   -1    0    0    0    0  0.00000000000E+00  0.00000000000E+00  0.39207184267E+04  0.39207184267E+04  0.00000000000E+00 0. -1.
         22   -1    0    0    0    0 -0.00000000000E+00 -0.00000000000E+00 -0.10001566836E+03  0.10001566836E+03  0.00000000000E+00 0. -1.
         24    2    1    2    0    0 -0.11174157871E+03  0.50185402048E+01 -0.15741201314E+02  0.14024068949E+03  0.83116180214E+02 0.  0.
         25    2    1    2    0    0  0.12077207998E+03 -0.19270724451E+02  0.33344007145E+03  0.37654480541E+03  0.12508578302E+03 0.  0.
        -24    2    1    2    0    0 -0.90305012700E+01  0.14252184246E+02  0.35030038882E+04  0.35039486002E+04  0.79591940537E+02 0.  0.
        -13    1    3    3    0    0 -0.60073409665E+02  0.24982321507E+02  0.26834456930E+02  0.70377688335E+02  0.00000000000E+00 0.  1.
         14    1    3    3    0    0 -0.51668169042E+02 -0.19963781302E+02 -0.42575658245E+02  0.69863001160E+02  0.00000000000E+00 0. -1.
         13    1    5    5    0    0  0.24151543593E+02  0.97818139369E+01  0.28235742690E+04  0.28236945007E+04  0.00000000000E+00 0. -1.
        -14    1    5    5    0    0 -0.33182044863E+02  0.44703703091E+01  0.67942961926E+03  0.68025409947E+03  0.00000000000E+00 0.  1.
          5    1    4    4  501    0  0.63813670998E+01  0.39834265160E+02  0.44632832709E+02  0.60307981914E+02  0.41800000000E+01 0.  1.
         -5    1    4    4    0  501  0.11439071288E+03 -0.59104989610E+02  0.28880723874E+03  0.31623682350E+03  0.41800000000E+01 0.  1.
</event>
<event>
11    1  0.6455215E-009  0.1569578E+03  0.7561462E-02  0.1089974E+00
         22   -1    0    0    0    0  0.00000000000E+00  0.00000000000E+00  0.32489738581E+03  0.32489738581E+03  0.00000000000E+00 0.  1.
         22   -1    0    0    0    0 -0.00000000000E+00 -0.00000000000E+00 -0.58741686768E+03  0.58741686768E+03  0.00000000000E+00 0.  1.
         24    2    1    2    0    0 -0.19236587625E+02 -0.93199140484E+02 -0.53111534614E+03  0.54515436770E+03  0.77805190257E+02 0.  0.
         25    2    1    2    0    0 -0.89002399510E+01  0.90207568871E+02  0.12246783302E+03  0.19713502862E+03  0.12508888692E+03 0.  0.
        -24    2    1    2    0    0  0.28136827576E+02  0.29915716125E+01  0.14612803124E+03  0.17002485718E+03  0.82185278342E+02 0.  0.
        -11    1    3    3    0    0  0.11294210754E+02 -0.74341528136E+02 -0.23169858284E+03  0.24359485892E+03  0.00000000000E+00 0.  1.
         12    1    3    3    0    0 -0.30530798379E+02 -0.18857612348E+02 -0.29941676330E+03  0.30155950878E+03  0.00000000000E+00 0. -1.
         11    1    5    5    0    0  0.36286160275E+01  0.41193420913E+02  0.64228217107E+02  0.76389322902E+02  0.00000000000E+00 0. -1.
        -12    1    5    5    0    0  0.24508211549E+02 -0.38201849300E+02  0.81899814137E+02  0.93635534275E+02  0.00000000000E+00 0.  1.
          5    1    4    4  501    0 -0.66601419093E+02  0.44196677295E+02  0.71727479962E+02  0.10747743526E+03  0.41800000000E+01 0.  1.
         -5    1    4    4    0  501  0.57701179142E+02  0.46010891577E+02  0.50740353061E+02  0.89657593358E+02  0.41800000000E+01 0.  1.
</event>
<event>
11    1  0.6455215E-009  0.1511117E+03  0.7561462E-02  0.1095748E+00
         22   -1    0    0    0    0  0.00000000000E+00  0.00000000000E+00  0.48160623692E+03  0.48160623692E+03  0.00000000000E+00 0. -1.
         22   -1    0    0    0    0 -0.00000000000E+00 -0.00000000000E+00 -0.96520265389E+03  0.96520265389E+03  0.00000000000E+00 0.  1.
        -24    2    1    2    0    0  0.27382245442E+02  0.77848162473E+02 -0.81573007631E+03  0.82255606647E+03  0.66127160264E+02 0.  0.
         25    2    1    2    0    0  0.84764446568E+01 -0.13437920026E+03 -0.78957562710E+02  0.20002707932E+03  0.12508763399E+03 0.  0.
         24    2    1    2    0    0 -0.35858690099E+02  0.56531037784E+02  0.41109122205E+03  0.42422574501E+03  0.80559828692E+02 0.  0.
        -11    1    5    5    0    0  0.10502527156E+02 -0.77174040757E+01  0.13300391005E+02  0.18621541376E+02  0.00000000000E+00 0.  1.
         12    1    5    5    0    0 -0.46361217255E+02  0.64248441859E+02  0.39779083104E+03  0.40560420364E+03  0.00000000000E+00 0. -1.
         13    1    3    3    0    0  0.35425806152E+02  0.46595684013E+02 -0.29065605553E+03  0.29649129519E+03  0.00000000000E+00 0. -1.
        -14    1    3    3    0    0 -0.80435607094E+01  0.31252478459E+02 -0.52507402079E+03  0.52606477128E+03  0.00000000000E+00 0.  1.
          5    1    4    4  501    0  0.42277467638E+02 -0.10719094699E+03 -0.99081011266E+02  0.15202566421E+03  0.41800000000E+01 0.  1.
         -5    1    4    4    0  501 -0.33801022981E+02 -0.27188253271E+02  0.20123448556E+02  0.48001415107E+02  0.41800000000E+01 0.  1.
</event>
<event>
11    1  0.6455215E-009  0.1346167E+03  0.7561462E-02  0.1113723E+00
         22   -1    0    0    0    0  0.00000000000E+00  0.00000000000E+00  0.43024574210E+03  0.43024574210E+03  0.00000000000E+00 0. -1.
         22   -1    0    0    0    0 -0.00000000000E+00 -0.00000000000E+00 -0.62023566443E+03  0.62023566443E+03  0.00000000000E+00 0. -1.
         24    2    1    2    0    0 -0.48411550734E+02 -0.11392790024E+02 -0.57752562910E+03  0.58590305145E+03  0.85282234501E+02 0.  0.
         25    2    1    2    0    0  0.54743575513E+02 -0.69492445796E+01  0.34270624371E+03  0.36896962202E+03  0.12508341790E+03 0.  0.
        -24    2    1    2    0    0 -0.63320247784E+01  0.18342034603E+02  0.44829463062E+02  0.95608733063E+02  0.82187738187E+02 0.  0.
        -13    1    3    3    0    0 -0.31012713269E+02 -0.31732472317E+02 -0.12598938397E+03  0.13357418559E+03  0.00000000000E+00 0.  1.
         14    1    3    3    0    0 -0.17398837466E+02  0.20339682294E+02 -0.45153624513E+03  0.45232886586E+03  0.00000000000E+00 0. -1.
         13    1    5    5    0    0 -0.25439603790E+02  0.12680169957E+02  0.62699222146E+02  0.68841503534E+02  0.00000000000E+00 0. -1.
        -14    1    5    5    0    0  0.19107579011E+02  0.56618646463E+01 -0.17869759084E+02  0.26767229529E+02  0.00000000000E+00 0.  1.
          5    1    4    4  501    0  0.67271920857E+02  0.36556329534E+02  0.28699071317E+03  0.29705726453E+03  0.41800000000E+01 0.  1.
         -5    1    4    4    0  501 -0.12528345344E+02 -0.43505574114E+02  0.55715530548E+02  0.71912357494E+02  0.41800000000E+01 0.  1.
</event>
<event>
11    1  0.6455215E-009  0.1436713E+03  0.7561462E-02  0.1103527E+00
         22   -1    0    0    0    0  0.00000000000E+00  0.00000000000E+00  0.16067885822E+04  0.16067885822E+04  0.00000000000E+00 0. -1.
         22   -1    0    0    0    0 -0.00000000000E+00 -0.00000000000E+00 -0.10966248771E+04  0.10966248771E+04  0.00000000000E+00 0.  1.
         24    2    1    2    0    0 -0.63360313584E+02  0.30740250512E+02 -0.78308441182E+03  0.79059722750E+03  0.82844962170E+02 0.  0.
         25    2    1    2    0    0  0.93703660921E+02  0.44166623893E+02 -0.28677296922E+03  0.32957490897E+03  0.12509923266E+03 0.  0.
        -24    2    1    2    0    0 -0.30343347336E+02 -0.74906874404E+02  0.15800210861E+04  0.15832413229E+04  0.60454075636E+02 0.  0.
        -11    1    3    3    0    0 -0.46962230561E+02  0.20067923150E+02 -0.75287720194E+03  0.75460735078E+03  0.00000000000E+00 0.  1.
         12    1    3    3    0    0 -0.16398083023E+02  0.10672327361E+02 -0.30207209880E+02  0.35989876727E+02  0.00000000000E+00 0. -1.
         13    1    5    5    0    0 -0.74928435418E+01 -0.75661963530E+02  0.13321767951E+04  0.13343447414E+04  0.00000000000E+00 0. -1.
        -14    1    5    5    0    0 -0.22850503795E+02  0.75508912529E+00  0.24784429101E+03  0.24889658147E+03  0.00000000000E+00 0.  1.
          5    1    4    4  501    0 -0.57642101505E+01  0.42455253004E+02 -0.17349839555E+03  0.17875916840E+03  0.41800000000E+01 0.  1.
         -5    1    4    4    0  501  0.99467871071E+02  0.17113708884E+01 -0.11327457366E+03  0.15081574057E+03  0.41800000000E+01 0.  1.
</event>
<event>
11    1  0.6455215E-009  0.1526097E+03  0.7561462E-02  0.1094242E+00
         22   -1    0    0    0    0  0.00000000000E+00  0.00000000000E+00  0.50766290475E+03  0.50766290475E+03  0.00000000000E+00 0.  1.
         22   -1    0    0    0    0 -0.00000000000E+00 -0.00000000000E+00 -0.76444397887E+03  0.76444397887E+03  0.00000000000E+00 0.  1.
        -24    2    1    2    0    0  0.59874615949E+02 -0.68497600946E+02 -0.70750292986E+03  0.71771766416E+03  0.79255023245E+02 0.  0.
         25    2    1    2    0    0 -0.38797171813E+02 -0.95158659511E+01  0.54768147406E+02  0.14227931355E+03  0.12509228932E+03 0.  0.
         24    2    1    2    0    0 -0.21077444135E+02  0.78013466897E+02  0.39595370833E+03  0.41210990591E+03  0.80776702936E+02 0.  0.
        -13    1    5    5    0    0 -0.29472970057E+02  0.57938246181E+02  0.37897534950E+03  0.38450983325E+03  0.00000000000E+00 0.  1.
         14    1    5    5    0    0  0.83955259215E+01  0.20075220716E+02  0.16978358831E+02  0.27600072661E+02  0.00000000000E+00 0. -1.
         11    1    3    3    0    0  0.43159087151E+02  0.56061511364E+01 -0.21152927605E+03  0.21596011289E+03  0.00000000000E+00 0. -1.
        -12    1    3    3    0    0  0.16715528798E+02 -0.74103752082E+02 -0.49597365381E+03  0.50175755127E+03  0.00000000000E+00 0.  1.
          5    1    4    4  501    0 -0.82437243272E+02 -0.20174106008E+02  0.44859850891E+02  0.96087315778E+02  0.41800000000E+01 0. -1.
         -5    1    4    4    0  501  0.43640071459E+02  0.10658240057E+02  0.99082965150E+01  0.46191997769E+02  0.41800000000E+01 0. -1.
</event>
<event>
11    1  0.6455215E-009  0.2972255E+03  0.7561462E-02  0.1001372E+00
         22   -1    0    0    0    0  0.00000000000E+00  0.00000000000E+00  0.90031982141E+03  0.90031982141E+03  0.00000000000E+00 0.  1.
         22   -1    0    0    0    0 -0.00000000000E+00 -0.00000000000E+00 -0.83479988025E+03  0.83479988025E+03  0.00000000000E+00 0.  1.
         24    2    1    2    0    0 -0.24068565257E+03 -0.10730426825E+03 -0.59968702802E+03  0.65991225666E+03  0.80099098480E+02 0.  0.
         25    2    1    2    0    0  0.26008383377E+03  0.14186829326E+03 -0.74448152009E+02  0.33009113139E+03  0.12508962572E+03 0.  0.
        -24    2    1    2    0    0 -0.19398181192E+02 -0.34564025012E+02  0.73965512118E+03  0.74511631362E+03  0.80855805426E+02 0.  0.
        -11    1    3    3    0    0 -0.17976186014E+03 -0.99271733592E+02 -0.52144639813E+03  0.56042443699E+03  0.00000000000E+00 0.  1.
         12    1    3    3    0    0 -0.60923792434E+02 -0.80325346610E+01 -0.78240629883E+02  0.99487819667E+02  0.00000000000E+00 0. -1.
         11    1    5    5    0    0 -0.10889849105E+01 -0.21425377235E+02  0.42598860173E+02  0.47695865291E+02  0.00000000000E+00 0. -1.
        -12    1    5    5    0    0 -0.18309196282E+02 -0.13138647777E+02  0.69705626101E+03  0.69742044833E+03  0.00000000000E+00 0.  1.
          5    1    4    4  501    0  0.19713954550E+03  0.39568275420E+02 -0.53307994670E+02  0.20805975948E+03  0.41800000000E+01 0.  1.
         -5    1    4    4    0  501  0.62944288262E+02  0.10230001784E+03 -0.21140157339E+02  0.12203137190E+03  0.41800000000E+01 0.  1.
</event>
<event>
11    1  0.6455215E-009  0.1671233E+03  0.7561462E-02  0.1080563E+00
         22   -1    0    0    0    0  0.00000000000E+00  0.00000000000E+00  0.21934843283E+03  0.21934843283E+03  0.00000000000E+00 0. -1.
         22   -1    0    0    0    0 -0.00000000000E+00 -0.00000000000E+00 -0.18520593108E+04  0.18520593108E+04  0.00000000000E+00 0.  1.
         24    2    1    2    0    0  0.15876671062E+02 -0.20813234928E+02 -0.15956779522E+04  0.15977783800E+04  0.77603898159E+02 0.  0.
         25    2    1    2    0    0 -0.10244268867E+03 -0.48434655673E+02 -0.19926935109E+03  0.26114453574E+03  0.12509106255E+03 0.  0.
        -24    2    1    2    0    0  0.86566017610E+02  0.69247890601E+02  0.16223642541E+03  0.21248482782E+03  0.80871494151E+02 0.  0.
        -13    1    3    3    0    0 -0.15872959935E+02  0.89465579645E+01 -0.11113609669E+04  0.11115103196E+04  0.00000000000E+00 0.  1.
         14    1    3    3    0    0  0.31749630997E+02 -0.29759792893E+02 -0.48431698531E+03  0.48626806044E+03  0.00000000000E+00 0. -1.
         11    1    5    5    0    0  0.96201746683E+02  0.75293639793E+02  0.15927605063E+03  0.20073058702E+03  0.00000000000E+00 0. -1.
        -12    1    5    5    0    0 -0.96357290729E+01 -0.60457491914E+01  0.29603747746E+01  0.11754240803E+02  0.00000000000E+00 0.  1.
          5    1    4    4  501    0 -0.57157948516E+02 -0.64461853704E+02 -0.40641041060E+02  0.95349505924E+02  0.41800000000E+01 0.  1.
         -5    1    4    4    0  501 -0.45284740156E+02  0.16027198031E+02 -0.15862831003E+03  0.16579502982E+03  0.41800000000E+01 0.  1.
</event>
<event>
11    1  0.6455215E-009  0.2220804E+03  0.7561462E-02  0.1039922E+00
         22   -1    0    0    0    0  0.00000000000E+00  0.00000000000E+00  0.66498124635E+03  0.66498124635E+03  0.00000000000E+00 0. -1.
         22   -1    0    0    0    0 -0.00000000000E+00 -0.00000000000E+00 -0.10713999521E+04  0.10713999521E+04  0.00000000000E+00 0. -1.
         24    2    1    2    0    0  0.24167085935E+02  0.18897444067E+03 -0.89852682071E+03  0.92179041012E+03  0.77792836335E+02 0.  0.
         25    2    1    2    0    0 -0.69908978492E+02 -0.13672937753E+03 -0.93788380464E+02  0.21915563778E+03  0.12510293883E+03 0.  0.
        -24    2    1    2    0    0  0.45741892557E+02 -0.52245063138E+02  0.58589649541E+03  0.59543515056E+03  0.80289774139E+02 0.  0.
        -11    1    3    3    0    0  0.12531733455E+02  0.21530570747E+02 -0.27304661803E+03  0.27418071675E+03  0.00000000000E+00 0.  1.
         12    1    3    3    0    0  0.11635352481E+02  0.16744386992E+03 -0.62548020268E+03  0.64760969337E+03  0.00000000000E+00 0. -1.
         13    1    5    5    0    0 -0.50858403411E+01 -0.39809307838E+02  0.40892694917E+03  0.41089158731E+03  0.00000000000E+00 0. -1.
        -14    1    5    5    0    0  0.50827732898E+02 -0.12435755299E+02  0.17696954624E+03  0.18454356325E+03  0.00000000000E+00 0.  1.
          5    1    4    4  501    0  0.21499673826E+02  0.10470723398E+02 -0.67039183372E+01  0.25185053984E+02  0.41800000000E+01 0. -1.
         -5    1    4    4    0  501 -0.91408652319E+02 -0.14720010093E+03 -0.87084462127E+02  0.19397058379E+03  0.41800000000E+01 0. -1.
</event>
<event>
11    1  0.6455215E-009  0.1290969E+03  0.7561462E-02  0.1120384E+00
         22   -1    0    0    0    0  0.00000000000E+00  0.00000000000E+00  0.89715145693E+02  0.89715145693E+02  0.00000000000E+00 0. -1.
         22   -1    0    0    0    0 -0.00000000000E+00 -0.00000000000E+00 -0.83822569320E+03  0.83822569320E+03  0.00000000000E+00 0. -1.
         24    2    1    2    0    0  0.32071511368E+02  0.28946886933E+02 -0.41542696351E+03  0.42492283812E+03  0.78187928993E+02 0.  0.
         25    2    1    2    0    0 -0.93565961847E+01 -0.17356047810E+01 -0.38173730660E+03  0.40181774391E+03  0.12507425736E+03 0.  0.
        -24    2    1    2    0    0 -0.22714915183E+02 -0.27211282152E+02  0.48653722594E+02  0.10120025687E+03  0.81350390416E+02 0.  0.
        -11    1    3    3    0    0  0.21314086491E+02  0.39024788318E+02 -0.10349744101E+03  0.11264521598E+03  0.00000000000E+00 0.  1.
         12    1    3    3    0    0  0.10757424877E+02 -0.10077901385E+02 -0.31192952249E+03  0.31227762214E+03  0.00000000000E+00 0. -1.
         13    1    5    5    0    0 -0.41183617677E+02 -0.27207923325E+02  0.61385073301E+02  0.78768576734E+02  0.00000000000E+00 0. -1.
        -14    1    5    5    0    0  0.18468702493E+02 -0.33588275041E-02 -0.12731350706E+02  0.22431680140E+02  0.00000000000E+00 0.  1.
          5    1    4    4  501    0 -0.47528288707E+02  0.62476243130E+01 -0.34413694697E+03  0.34748479349E+03  0.41800000000E+01 0.  1.
         -5    1    4    4    0  501  0.38171692522E+02 -0.79832290941E+01 -0.37600359625E+02  0.54332950414E+02  0.41800000000E+01 0.  1.
</event>
<event>
11    1  0.6455215E-009  0.1425256E+03  0.7561462E-02  0.1104770E+00
         22   -1    0    0    0    0  0.00000000000E+00  0.00000000000E+00  0.12350820831E+04  0.12350820831E+04  0.00000000000E+00 0.  1.
         22   -1    0    0    0    0 -0.00000000000E+00 -0.00000000000E+00 -0.13895004418E+04  0.13895004418E+04  0.00000000000E+00 0. -1.
         24    2    1    2    0    0 -0.30771632474E+02  0.28478227798E+01 -0.90772465371E+03  0.91208726458E+03  0.83571094303E+02 0.  0.
         25    2    1    2    0    0  0.83867673744E+02 -0.45637269660E+02 -0.46438417781E+03  0.49032255636E+03  0.12508795943E+03 0.  0.
        -24    2    1    2    0    0 -0.53096041270E+02  0.42789446881E+02  0.12176904728E+04  0.12221727039E+04  0.79283694443E+02 0.  0.
        -11    1    3    3    0    0  0.11037104009E+02 -0.26600954371E+02 -0.15677302612E+03  0.15939639318E+03  0.00000000000E+00 0.  1.
         12    1    3    3    0    0 -0.41808736483E+02  0.29448777151E+02 -0.75095162758E+03  0.75269087140E+03  0.00000000000E+00 0. -1.
         13    1    5    5    0    0 -0.14779843598E+02  0.49159651861E+01  0.35638460810E+02  0.38893577611E+02  0.00000000000E+00 0. -1.
        -14    1    5    5    0    0 -0.38316197672E+02  0.37873481695E+02  0.11820520120E+04  0.11832791263E+04  0.00000000000E+00 0.  1.
          5    1    4    4  501    0 -0.24521139726E+02 -0.41804089851E+02 -0.15483063976E+03  0.16229253720E+03  0.41800000000E+01 0.  1.
         -5    1    4    4    0  501  0.10838881347E+03 -0.38331798099E+01 -0.30955353805E+03  0.32803001916E+03  0.41800000000E+01 0.  1.
</event>
<event>
11    1  0.6455215E-009  0.1288344E+03  0.7561462E-02  0.1120709E+00
         22   -1    0    0    0    0  0.00000000000E+00  0.00000000000E+00  0.24358095277E+03  0.24358095277E+03  0.00000000000E+00 0. -1.
         22   -1    0    0    0    0 -0.00000000000E+00 -0.00000000000E+00 -0.68000996756E+03  0.68000996756E+03  0.00000000000E+00 0. -1.
         24    2    1    2    0    0 -0.12204844629E+02  0.78925444657E+01 -0.52474792617E+03  0.53118516431E+03  0.81154434709E+02 0.  0.
         25    2    1    2    0    0  0.38926748538E+02 -0.21285075995E+02 -0.11173008317E+03  0.17350066878E+03  0.12510205582E+03 0.  0.
        -24    2    1    2    0    0 -0.26721903909E+02  0.13392531529E+02  0.20004899456E+03  0.21890508724E+03  0.83704342469E+02 0.  0.
        -13    1    3    3    0    0  0.34841935803E+02  0.71240119989E+00 -0.22469928553E+03  0.22738565681E+03  0.00000000000E+00 0.  1.
         14    1    3    3    0    0 -0.47046780432E+02  0.71801432658E+01 -0.30004864064E+03  0.30379950750E+03  0.00000000000E+00 0. -1.
         13    1    5    5    0    0 -0.48161956790E+02 -0.54489034877E+00  0.18022193890E+03  0.18654709392E+03  0.00000000000E+00 0. -1.
        -14    1    5    5    0    0  0.21440052881E+02  0.13937421878E+02  0.19827055656E+02  0.32357993326E+02  0.00000000000E+00 0.  1.
          5    1    4    4  501    0  0.71951311302E+02  0.36890258652E+01 -0.23412477945E+02  0.75869734634E+02  0.41800000000E+01 0.  1.
         -5    1    4    4    0  501 -0.33024562764E+02 -0.24974101860E+02 -0.88317605229E+02  0.97630934149E+02  0.41800000000E+01 0.  1.
</event>
<event>
11    1  0.6455215E-009  0.1778925E+03  0.7561462E-02  0.1071360E+00
         22   -1    0    0    0    0  0.00000000000E+00  0.00000000000E+00  0.60341096026E+03  0.60341096026E+03  0.00000000000E+00 0.  1.
         22   -1    0    0    0    0 -0.00000000000E+00 -0.00000000000E+00 -0.36933578261E+03  0.36933578261E+03  0.00000000000E+00 0. -1.
        -24    2    1    2    0    0  0.12610957508E+03 -0.29979622516E+02 -0.31953379209E+03  0.35407780077E+03  0.80416677478E+02 0.  0.
         25    2    1    2    0    0 -0.43176948242E+02  0.72537194066E+02  0.35342252020E+03  0.38429263986E+03  0.12508981528E+03 0.  0.
         24    2    1    2    0    0 -0.82932626839E+02 -0.42557571550E+02  0.20018644954E+03  0.23437630223E+03  0.78540874561E+02 0.  0.
        -13    1    5    5    0    0 -0.97869098471E+02 -0.34744703914E+02  0.15943636896E+03  0.19027745697E+03  0.00000000000E+00 0.  1.
         14    1    5    5    0    0  0.14936471632E+02 -0.78128676366E+01  0.40750080587E+02  0.44098845261E+02  0.00000000000E+00 0. -1.
         11    1    3    3    0    0  0.11839848489E+03 -0.15848991717E+02 -0.31568006697E+03  0.33752525305E+03  0.00000000000E+00 0. -1.
        -12    1    3    3    0    0  0.77110901958E+01 -0.14130630799E+02 -0.38537251186E+01  0.16552547721E+02  0.00000000000E+00 0.  1.
          5    1    4    4  501    0 -0.38258744026E+02 -0.59435186292E+00  0.20974520907E+02  0.43834777014E+02  0.41800000000E+01 0.  1.
         -5    1    4    4    0  501 -0.49182042160E+01  0.73131545929E+02  0.33244799929E+03  0.34045786285E+03  0.41800000000E+01 0.  1.
</event>
<event>
11    1  0.6455215E-009  0.1823707E+03  0.7561462E-02  0.1067741E+00
         22   -1    0    0    0    0  0.00000000000E+00  0.00000000000E+00  0.42515142212E+03  0.42515142212E+03  0.00000000000E+00 0.  1.
         22   -1    0    0    0    0 -0.00000000000E+00 -0.00000000000E+00 -0.26919483838E+04  0.26919483838E+04  0.00000000000E+00 0.  1.
         24    2    1    2    0    0 -0.72111077505E+02  0.11734066902E+03 -0.22502563154E+04  0.22559704639E+04  0.82343238587E+02 0.  0.
         25    2    1    2    0    0  0.34409926567E+02 -0.10187578237E+03 -0.41815198508E+03  0.44951304656E+03  0.12509267893E+03 0.  0.
        -24    2    1    2    0    0  0.37701150937E+02 -0.15464886655E+02  0.40161133872E+03  0.41161629552E+03  0.80472155763E+02 0.  0.
        -13    1    3    3    0    0 -0.51742808946E+02  0.11369053194E+03 -0.21486860397E+04  0.21523137672E+04  0.00000000000E+00 0.  1.
         14    1    3    3    0    0 -0.20368268559E+02  0.36501370789E+01 -0.10157027567E+03  0.10365669667E+03  0.00000000000E+00 0. -1.
         13    1    5    5    0    0 -0.20508702805E+02 -0.23754249753E+02  0.14409207422E+03  0.14746998720E+03  0.00000000000E+00 0. -1.
        -14    1    5    5    0    0  0.58209853742E+02  0.82893630974E+01  0.25751926449E+03  0.26414630832E+03  0.00000000000E+00 0.  1.
          5    1    4    4  501    0 -0.42980616787E+02 -0.92312999444E+01 -0.11415826593E+03  0.12240152123E+03  0.41800000000E+01 0. -1.
         -5    1    4    4    0  501  0.77390543354E+02 -0.92644482423E+02 -0.30399371914E+03  0.32711152533E+03  0.41800000000E+01 0. -1.
</event>
<event>
11    1  0.6455215E-009  0.1701083E+03  0.7561462E-02  0.1077937E+00
         22   -1    0    0    0    0  0.00000000000E+00  0.00000000000E+00  0.81663067332E+02  0.81663067332E+02  0.00000000000E+00 0. -1.
         22   -1    0    0    0    0 -0.00000000000E+00 -0.00000000000E+00 -0.23039695467E+04  0.23039695467E+04  0.00000000000E+00 0. -1.
         24    2    1    2    0    0  0.80458111457E+01  0.25161939245E+02 -0.19920006910E+04  0.19938251616E+04  0.81081219565E+02 0.  0.
         25    2    1    2    0    0  0.10204664027E+03  0.27603287313E+02 -0.15470611206E+03  0.22529738961E+03  0.12509785928E+03 0.  0.
        -24    2    1    2    0    0 -0.11009245141E+03 -0.52765226557E+02 -0.75599676315E+02  0.16651006274E+03  0.84295746897E+02 0.  0.
        -11    1    3    3    0    0  0.35303904785E+01 -0.24259010388E+02 -0.27029797626E+03  0.27140736765E+03  0.00000000000E+00 0.  1.
         12    1    3    3    0    0  0.45154206673E+01  0.49420949633E+02 -0.17217027147E+04  0.17224177940E+04  0.00000000000E+00 0. -1.
         13    1    5    5    0    0 -0.12866556141E+02 -0.45283646083E+02 -0.77387879491E+01  0.47707920814E+02  0.00000000000E+00 0. -1.
        -14    1    5    5    0    0 -0.97225895270E+02 -0.74815804744E+01 -0.67860888366E+02  0.11880214193E+03  0.00000000000E+00 0.  1.
          5    1    4    4  501    0  0.73263109399E+02 -0.40839642990E+02 -0.11047341387E+03  0.13877033981E+03  0.41800000000E+01 0. -1.
         -5    1    4    4    0  501  0.28783530867E+02  0.68442930303E+02 -0.44232698184E+02  0.86527049796E+02  0.41800000000E+01 0. -1.
</event>
<event>
11    1  0.6455215E-009  0.1413678E+03  0.7561462E-02  0.1106041E+00
         22   -1    0    0    0    0  0.00000000000E+00  0.00000000000E+00  0.31529005746E+03  0.31529005746E+03  0.00000000000E+00 0. -1.
         22   -1    0    0    0    0 -0.00000000000E+00 -0.00000000000E+00 -0.16597841310E+04  0.16597841310E+04  0.00000000000E+00 0. -1.
        -24    2    1    2    0    0  0.22540532685E+02 -0.13498721495E+02 -0.14388819790E+04  0.14414143041E+04  0.81262263819E+02 0.  0.
         25    2    1    2    0    0  0.25702651288E+02  0.58731103173E+02 -0.18752473536E+03  0.23435792452E+03  0.12509253235E+03 0.  0.
         24    2    1    2    0    0 -0.48243183973E+02 -0.45232381678E+02  0.28191264084E+03  0.29930195980E+03  0.75720227972E+02 0.  0.
        -11    1    5    5    0    0  0.77141711431E+01  0.15841906663E+02  0.54137891732E+02  0.56933169281E+02  0.00000000000E+00 0.  1.
         12    1    5    5    0    0 -0.55957355116E+02 -0.61074288340E+02  0.22777474911E+03  0.24236879052E+03  0.00000000000E+00 0. -1.
         11    1    3    3    0    0 -0.27697059815E+02 -0.10958266062E+02 -0.80034970284E+03  0.80090377547E+03  0.00000000000E+00 0. -1.
        -12    1    3    3    0    0  0.50237592500E+02 -0.25404554331E+01 -0.63853227613E+03  0.64051052862E+03  0.00000000000E+00 0.  1.
          5    1    4    4  501    0  0.13562569564E+02 -0.92068062224E+01  0.13584088237E+02  0.21695815892E+02  0.41800000000E+01 0.  1.
         -5    1    4    4    0  501  0.12140081724E+02  0.67937909395E+02 -0.20110882359E+03  0.21266210862E+03  0.41800000000E+01 0.  1.
</event>
<event>
11    1  0.6455215E-009  0.1848727E+03  0.7561462E-02  0.1065768E+00
         22   -1    0    0    0    0  0.00000000000E+00  0.00000000000E+00  0.39546991423E+03  0.39546991423E+03  0.00000000000E+00 0.  1.
         22   -1    0    0    0    0 -0.00000000000E+00 -0.00000000000E+00 -0.62155327444E+03  0.62155327444E+03  0.00000000000E+00 0. -1.
        -24    2    1    2    0    0 -0.12689738654E+03 -0.66589607620E+02 -0.32108727563E+03  0.36026882401E+03  0.78482255482E+02 0.  0.
         25    2    1    2    0    0  0.14180861164E+03 -0.28436569409E+02 -0.23537705760E+03  0.30326357774E+03  0.12509243592E+03 0.  0.
         24    2    1    2    0    0 -0.14911225100E+02  0.95026177029E+02  0.33038097302E+03  0.35349078693E+03  0.80943376239E+02 0.  0.
        -13    1    5    5    0    0  0.17820910112E+00  0.59364069260E+02  0.29540340593E+03  0.30130930406E+03  0.00000000000E+00 0.  1.
         14    1    5    5    0    0 -0.15089434201E+02  0.35662107769E+02  0.34977567085E+02  0.52181482867E+02  0.00000000000E+00 0. -1.
         13    1    3    3    0    0 -0.10717338605E+03 -0.51915873617E+02 -0.17220389504E+03  0.20936946787E+03  0.00000000000E+00 0. -1.
        -14    1    3    3    0    0 -0.19724000490E+02 -0.14673734003E+02 -0.14888338059E+03  0.15089935613E+03  0.00000000000E+00 0.  1.
          5    1    4    4  501    0  0.32172904110E+02 -0.62972413759E+02 -0.12595067204E+03  0.14450489556E+03  0.41800000000E+01 0. -1.
         -5    1    4    4    0  501  0.10963570753E+03  0.34535844350E+02 -0.10942638556E+03  0.15875868218E+03  0.41800000000E+01 0. -1.
</event>
<event>
11    1  0.6455215E-009  0.1329896E+03  0.7561462E-02  0.1115649E+00
         22   -1    0    0    0    0  0.00000000000E+00  0.00000000000E+00  0.14573820409E+03  0.14573820409E+03  0.00000000000E+00 0. -1.
         22   -1    0    0    0    0 -0.00000000000E+00 -0.00000000000E+00 -0.22093571118E+03  0.22093571118E+03  0.00000000000E+00 0. -1.
        -24    2    1    2    0    0 -0.24048076779E+02  0.24692013766E+01 -0.10526877508E+03  0.13483266451E+03  0.80708893300E+02 0.  0.
         25    2    1    2    0    0 -0.71495684751E+00  0.41718814125E+02  0.26064457259E+02  0.13441707812E+03  0.12509046464E+03 0.  0.
         24    2    1    2    0    0  0.24763033627E+02 -0.44188015502E+02  0.40068107323E+01  0.97424172639E+02  0.83124162154E+02 0.  0.
        -11    1    5    5    0    0  0.49201627113E+02 -0.47388643799E+02 -0.10055001559E+02  0.69047713417E+02  0.00000000000E+00 0.  1.
         12    1    5    5    0    0 -0.24438593486E+02  0.32006282972E+01  0.14061812292E+02  0.28376459223E+02  0.00000000000E+00 0. -1.
         11    1    3    3    0    0  0.40481244270E+01 -0.32069291240E+02 -0.18337405887E+02  0.37162981671E+02  0.00000000000E+00 0. -1.
        -12    1    3    3    0    0 -0.28096201206E+02  0.34538492617E+02 -0.86931369197E+02  0.97669682834E+02  0.00000000000E+00 0.  1.
          5    1    4    4  501    0  0.41021400422E+02  0.45737709802E+02 -0.26506606991E+02  0.67043016077E+02  0.41800000000E+01 0. -1.
         -5    1    4    4    0  501 -0.41736357269E+02 -0.40188956766E+01  0.52571064250E+02  0.67374062048E+02  0.41800000000E+01 0. -1.
</event>
<event>
11    1  0.6455215E-009  0.1612267E+03  0.7561462E-02  0.1085929E+00
         22   -1    0    0    0    0  0.00000000000E+00  0.00000000000E+00  0.15932622556E+04  0.15932622556E+04  0.00000000000E+00 0.  1.
         22   -1    0    0    0    0 -0.00000000000E+00 -0.00000000000E+00 -0.12655632779E+03  0.12655632779E+03  0.00000000000E+00 0.  1.
        -24    2    1    2    0    0  0.10219838754E+03  0.52611894715E+01 -0.78415606355E+02  0.15168222798E+03  0.79914331837E+02 0.  0.
         25    2    1    2    0    0 -0.90284895292E+02  0.54501601098E+02  0.80660950501E+03  0.82303553172E+03  0.12508719389E+03 0.  0.
         24    2    1    2    0    0 -0.11913492252E+02 -0.59762790569E+02  0.73851202918E+03  0.74510082371E+03  0.77856906084E+02 0.  0.
        -13    1    5    5    0    0 -0.47802192100E+01  0.88138616063E+00  0.45773077061E+03  0.45775657909E+03  0.00000000000E+00 0.  1.
         14    1    5    5    0    0 -0.71332730419E+01 -0.60644176730E+02  0.28078125857E+03  0.28734424462E+03  0.00000000000E+00 0. -1.
         13    1    3    3    0    0  0.15150204384E+02  0.11222931940E+02  0.14824801761E+02  0.23984529211E+02  0.00000000000E+00 0. -1.
        -14    1    3    3    0    0  0.87048183159E+02 -0.59617424688E+01 -0.93240408116E+02  0.12769769877E+03  0.00000000000E+00 0.  1.
          5    1    4    4  501    0 -0.83874323117E+02 -0.20938906688E+02  0.37919769417E+03  0.38894948715E+03  0.41800000000E+01 0. -1.
         -5    1    4    4    0  501 -0.64105721742E+01  0.75440507785E+02  0.42741181084E+03  0.43408604457E+03  0.41800000000E+01 0. -1.
</event>
<event>
11    1  0.6455215E-009  0.1293274E+03  0.7561462E-02  0.1120098E+00
         22   -1    0    0    0    0  0.00000000000E+00  0.00000000000E+00  0.15430485243E+03  0.15430485243E+03  0.00000000000E+00 0. -1.
         22   -1    0    0    0    0 -0.00000000000E+00 -0.00000000000E+00 -0.89809191501E+03  0.89809191501E+03  0.00000000000E+00 0.  1.
         24    2    1    2    0    0 -0.20309957218E+02 -0.23302037200E+02 -0.65676835553E+03  0.66269593668E+03  0.82859835652E+02 0.  0.
         25    2    1    2    0    0  0.36905704636E+02  0.28104239743E+02 -0.20615099090E+03  0.24555591379E+03  0.12509035304E+03 0.  0.
        -24    2    1    2    0    0 -0.16595747419E+02 -0.48022025429E+01  0.11913228386E+03  0.14414491696E+03  0.79289192503E+02 0.  0.
        -11    1    3    3    0    0  0.11444647542E+02 -0.23472358672E+02 -0.56473113864E+03  0.56533458282E+03  0.00000000000E+00 0.  1.
         12    1    3    3    0    0 -0.31754604760E+02  0.17032147168E+00 -0.92037216892E+02  0.97361353863E+02  0.00000000000E+00 0. -1.
         11    1    5    5    0    0 -0.16856682536E+02  0.68585584428E+01  0.12812878188E+03  0.12941472991E+03  0.00000000000E+00 0. -1.
        -12    1    5    5    0    0  0.26093511710E+00 -0.11660760986E+02 -0.89964980283E+01  0.14730187055E+02  0.00000000000E+00 0.  1.
          5    1    4    4  501    0  0.75696395831E+02 -0.12141660402E+02 -0.10768160774E+03  0.13225038867E+03  0.41800000000E+01 0.  1.
         -5    1    4    4    0  501 -0.38790691195E+02  0.40245900145E+02 -0.98469383168E+02  0.11330552512E+03  0.41800000000E+01 0.  1.
</event>
<event>
11    1  0.6455215E-009  0.2153791E+03  0.7561462E-02  0.1044151E+00
         22   -1    0    0    0    0  0.00000000000E+00  0.00000000000E+00  0.87268895908E+02  0.87268895908E+02  0.00000000000E+00 0. -1.
         22   -1    0    0    0    0 -0.00000000000E+00 -0.00000000000E+00 -0.23752055144E+04  0.23752055144E+04  0.00000000000E+00 0. -1.
         24    2    1    2    0    0 -0.15735035120E+03 -0.86021171696E+02 -0.19854163198E+04  0.19952465147E+04  0.83498003797E+02 0.  0.
         25    2    1    2    0    0  0.13456279125E+03  0.72526356749E+02 -0.32569522074E+03  0.38091025952E+03  0.12509209319E+03 0.  0.
        -24    2    1    2    0    0  0.22787559943E+02  0.13494814947E+02  0.23174922026E+02  0.86317636078E+02  0.78817982521E+02 0.  0.
        -11    1    3    3    0    0 -0.16138303795E+02 -0.30911194487E+02 -0.17160352004E+03  0.17511057902E+03  0.00000000000E+00 0.  1.
         12    1    3    3    0    0 -0.14121204740E+03 -0.55109977209E+02 -0.18138127998E+04  0.18201359357E+04  0.00000000000E+00 0. -1.
         13    1    5    5    0    0  0.98565340890E+01 -0.19504588414E+02  0.41138459752E+02  0.46582755438E+02  0.00000000000E+00 0. -1.
        -14    1    5    5    0    0  0.12931025854E+02  0.32999403361E+02 -0.17963537726E+02  0.39734880640E+02  0.00000000000E+00 0.  1.
          5    1    4    4  501    0  0.47340832322E+01  0.48217099740E+01 -0.15819583927E+03  0.15839525370E+03  0.41800000000E+01 0.  1.
         -5    1    4    4    0  501  0.12982870802E+03  0.67704646775E+02 -0.16749938147E+03  0.22251500582E+03  0.41800000000E+01 0.  1.
</event>
<event>
11    1  0.6455215E-009  0.1465041E+03  0.7561462E-02  0.1100505E+00
         22   -1    0    0    0    0  0.00000000000E+00  0.00000000000E+00  0.10434025692E+03  0.10434025692E+03  0.00000000000E+00 0.  1.
         22   -1    0    0    0    0 -0.00000000000E+00 -0.00000000000E+00 -0.70910852522E+03  0.70910852522E+03  0.00000000000E+00 0. -1.
         24    2    1    2    0    0 -0.76840870060E+02  0.16540344363E+02 -0.56381129301E+03  0.57498861764E+03  0.80935986987E+02 0.  0.
         25    2    1    2    0    0  0.47805830557E+02 -0.39368821669E+02 -0.48435776605E+02  0.14774215935E+03  0.12508564922E+03 0.  0.
        -24    2    1    2    0    0  0.29035039503E+02  0.22828477306E+02  0.74788013135E+01  0.90718005143E+02  0.82520610111E+02 0.  0.
        -11    1    3    3    0    0  0.10038177945E+02  0.14601428151E+02 -0.36602482432E+02  0.40665814153E+02  0.00000000000E+00 0.  1.
         12    1    3    3    0    0 -0.86879048005E+02  0.19389162118E+01 -0.52720881057E+03  0.53432280349E+03  0.00000000000E+00 0. -1.
         11    1    5    5    0    0  0.10180253814E+01 -0.14717622011E+02 -0.28203678108E+02  0.31829109824E+02  0.00000000000E+00 0. -1.
        -12    1    5    5    0    0  0.28017014122E+02  0.37546099317E+02  0.35682479422E+02  0.58888895320E+02  0.00000000000E+00 0.  1.
          5    1    4    4  501    0  0.11461104413E+02  0.34745127228E+02 -0.53485397138E+02  0.64936437286E+02  0.41800000000E+01 0. -1.
         -5    1    4    4    0  501  0.36344726144E+02 -0.74113948898E+02  0.50496205324E+01  0.82805722068E+02  0.41800000000E+01 0. -1.
</event>
<event>
11    1  0.6455215E-009  0.1436245E+03  0.7561462E-02  0.1103577E+00
         22   -1    0    0    0    0  0.00000000000E+00  0.00000000000E+00  0.12089685634E+04  0.12089685634E+04  0.00000000000E+00 0. -1.
         22   -1    0    0    0    0 -0.00000000000E+00 -0.00000000000E+00 -0.48718555105E+03  0.48718555105E+03  0.00000000000E+00 0.  1.
        -24    2    1    2    0    0 -0.39267356781E+02  0.53152717174E+02 -0.14165282913E+03  0.17436566891E+03  0.77270472013E+02 0.  0.
         25    2    1    2    0    0  0.10826834522E+03 -0.66177392304E+02 -0.30245298447E+03  0.35103563596E+03  0.12508688208E+03 0.  0.
         24    2    1    2    0    0 -0.69000988436E+02  0.13024675130E+02  0.11658888259E+04  0.11707528095E+04  0.80216008758E+02 0.  0.
        -13    1    5    5    0    0 -0.54543982194E+02  0.35567979974E+02  0.48675888328E+03  0.49109503932E+03  0.00000000000E+00 0.  1.
         14    1    5    5    0    0 -0.14457006242E+02 -0.22543304843E+02  0.67912994263E+03  0.67965777021E+03  0.00000000000E+00 0. -1.
         11    1    3    3    0    0 -0.24029123350E+02  0.72309342836E+01 -0.44381253005E+00  0.25097453041E+02  0.00000000000E+00 0. -1.
        -12    1    3    3    0    0 -0.15238233430E+02  0.45921782890E+02 -0.14120901660E+03  0.14926821587E+03  0.00000000000E+00 0.  1.
          5    1    4    4  501    0  0.41519692635E+02 -0.93610753514E+02 -0.14272918799E+03  0.17571554158E+03  0.41800000000E+01 0.  1.
         -5    1    4    4    0  501  0.66748652581E+02  0.27433361210E+02 -0.15972379649E+03  0.17532009438E+03  0.41800000000E+01 0.  1.
</event>
<event>
11    1  0.6455215E-009  0.2473878E+03  0.7561462E-02  0.1025300E+00
         22   -1    0    0    0    0  0.00000000000E+00  0.00000000000E+00  0.89197921370E+03  0.89197921370E+03  0.00000000000E+00 0.  1.
         22   -1    0    0    0    0 -0.00000000000E+00 -0.00000000000E+00 -0.90959194546E+03  0.90959194546E+03  0.00000000000E+00 0. -1.
        -24    2    1    2    0    0  0.25631018937E+02 -0.19800772827E+02 -0.82455756296E+03  0.82895835755E+03  0.78916184466E+02 0.  0.
         25    2    1    2    0    0 -0.14041594709E+03 -0.16082228409E+03  0.18183895892E+03  0.30707247616E+03  0.12509058070E+03 0.  0.
         24    2    1    2    0    0  0.11478492815E+03  0.18062305691E+03  0.62510587228E+03  0.66554032545E+03  0.79914359257E+02 0.  0.
        -13    1    5    5    0    0  0.15090369805E+02  0.58950378307E+02  0.27606673427E+03  0.28269366483E+03  0.00000000000E+00 0.  1.
         14    1    5    5    0    0  0.99694558344E+02  0.12167267861E+03  0.34903913801E+03  0.38284666062E+03  0.00000000000E+00 0. -1.
         13    1    3    3    0    0  0.39279307700E+02  0.18530113605E+02 -0.49416228780E+03  0.49606712833E+03  0.00000000000E+00 0. -1.
        -14    1    3    3    0    0 -0.13648288763E+02 -0.38330886432E+02 -0.33039527516E+03  0.33289122921E+03  0.00000000000E+00 0.  1.
          5    1    4    4  501    0 -0.15186650181E+03 -0.10825386747E+03  0.16874227103E+03  0.25154276103E+03  0.41800000000E+01 0.  1.
         -5    1    4    4    0  501  0.11450554723E+02 -0.52568416617E+02  0.13096687891E+02  0.55529715133E+02  0.41800000000E+01 0.  1.
</event>
<event>
11    1  0.6455215E-009  0.1730101E+03  0.7561462E-02  0.1075441E+00
         22   -1    0    0    0    0  0.00000000000E+00  0.00000000000E+00  0.28016906594E+03  0.28016906594E+03  0.00000000000E+00 0.  1.
         22   -1    0    0    0    0 -0.00000000000E+00 -0.00000000000E+00 -0.83819474304E+03  0.83819474304E+03  0.00000000000E+00 0. -1.
        -24    2    1    2    0    0 -0.74719057730E+02 -0.86658085749E+02 -0.63217228780E+03  0.64737162285E+03  0.79722363216E+02 0.  0.
         25    2    1    2    0    0  0.14589666615E+03  0.82160073024E+02 -0.12609541586E+03  0.24410064241E+03  0.12509578303E+03 0.  0.
         24    2    1    2    0    0 -0.71177608416E+02  0.44980127244E+01  0.20024202655E+03  0.22689154373E+03  0.79349980213E+02 0.  0.
        -11    1    5    5    0    0 -0.74870644667E+02 -0.14634344916E+02  0.10565265598E+03  0.13031600515E+03  0.00000000000E+00 0.  1.
         12    1    5    5    0    0  0.36930362507E+01  0.19132357640E+02  0.94589370574E+02  0.96575538576E+02  0.00000000000E+00 0. -1.
         13    1    3    3    0    0 -0.81063191278E+02 -0.52770458314E+02 -0.35065647464E+03  0.36375256076E+03  0.00000000000E+00 0. -1.
        -14    1    3    3    0    0  0.63441335476E+01 -0.33887627435E+02 -0.28151581315E+03  0.28361906209E+03  0.00000000000E+00 0.  1.
          5    1    4    4  501    0  0.14489044210E+03  0.98043222781E+02 -0.74943621256E+02  0.19036736199E+03  0.41800000000E+01 0.  1.
         -5    1    4    4    0  501  0.10062240470E+01 -0.15883149757E+02 -0.51151794602E+02  0.53733280414E+02  0.41800000000E+01 0.  1.
</event>
<event>
11    1  0.6455215E-009  0.1445982E+03  0.7561462E-02  0.1102530E+00
         22   -1    0    0    0    0  0.00000000000E+00  0.00000000000E+00  0.53620345324E+03  0.53620345324E+03  0.00000000000E+00 0.  1.
         22   -1    0    0    0    0 -0.00000000000E+00 -0.00000000000E+00 -0.91249179665E+03  0.91249179665E+03  0.00000000000E+00 0.  1.
         24    2    1    2    0    0  0.34354775227E+01 -0.73186423401E+02 -0.88229115207E+03  0.88874812924E+03  0.77894191866E+02 0.  0.
         25    2    1    2    0    0  0.14037394585E+02  0.27107896651E+02  0.18366534247E+03  0.22430292513E+03  0.12508779993E+03 0.  0.
        -24    2    1    2    0    0 -0.17472872108E+02  0.46078526751E+02  0.32233746620E+03  0.33564419552E+03  0.79542768248E+02 0.  0.
        -13    1    3    3    0    0  0.11047398307E+01 -0.35026749531E+02 -0.75565002771E+03  0.75646219866E+03  0.00000000000E+00 0.  1.
         14    1    3    3    0    0  0.23307376921E+01 -0.38159673870E+02 -0.12664112437E+03  0.13228593058E+03  0.00000000000E+00 0. -1.
         11    1    5    5    0    0  0.68559788054E+01  0.33251276502E+02  0.42208607658E+02  0.54168426180E+02  0.00000000000E+00 0. -1.
        -12    1    5    5    0    0 -0.24328850913E+02  0.12827250249E+02  0.28012885854E+03  0.28147576934E+03  0.00000000000E+00 0.  1.
          5    1    4    4  501    0  0.68907970030E+02  0.25830670929E+02  0.10617558109E+03  0.12925269171E+03  0.41800000000E+01 0.  1.
         -5    1    4    4    0  501 -0.54870575445E+02  0.12772257215E+01  0.77489761380E+02  0.95050233424E+02  0.41800000000E+01 0.  1.
</event>
<event>
11    1  0.6455215E-009  0.1607993E+03  0.7561462E-02  0.1086328E+00
         22   -1    0    0    0    0  0.00000000000E+00  0.00000000000E+00  0.16185694082E+03  0.16185694082E+03  0.00000000000E+00 0.  1.
         22   -1    0    0    0    0 -0.00000000000E+00 -0.00000000000E+00 -0.23837411292E+04  0.23837411292E+04  0.00000000000E+00 0.  1.
        -24    2    1    2    0    0 -0.18959577158E+02 -0.23844271656E+01 -0.21126206749E+04  0.21142525020E+04  0.80823109946E+02 0.  0.
         25    2    1    2    0    0  0.50696313576E+02 -0.93060346564E+02 -0.21093384425E+03  0.26715447337E+03  0.12509229265E+03 0.  0.
         24    2    1    2    0    0 -0.31736736418E+02  0.95444773730E+02  0.10167033074E+03  0.16419109468E+03  0.80653171971E+02 0.  0.
        -11    1    5    5    0    0 -0.16532079403E+02  0.67500192060E+02  0.11106885835E+03  0.13101861270E+03  0.00000000000E+00 0.  1.
         12    1    5    5    0    0 -0.15204657015E+02  0.27944581670E+02 -0.93985276123E+01  0.33172481983E+02  0.00000000000E+00 0. -1.
         13    1    3    3    0    0  0.29592946784E+02  0.43287071446E+00 -0.48274644023E+03  0.48365282531E+03  0.00000000000E+00 0. -1.
        -14    1    3    3    0    0 -0.48552523941E+02 -0.28172978801E+01 -0.16298742347E+04  0.16305996767E+04  0.00000000000E+00 0.  1.
          5    1    4    4  501    0  0.72166150108E+02 -0.20806234226E+02 -0.52733265065E+02  0.91864695332E+02  0.41800000000E+01 0.  1.
         -5    1    4    4    0  501 -0.21469836532E+02 -0.72254112339E+02 -0.15820057918E+03  0.17528977804E+03  0.41800000000E+01 0.  1.
</event>
<event>
11    1  0.6455215E-009  0.1917748E+03  0.7561462E-02  0.1060497E+00
         22   -1    0    0    0    0  0.00000000000E+00  0.00000000000E+00  0.75482470418E+02  0.75482470418E+02  0.00000000000E+00 0.  1.
         22   -1    0    0    0    0 -0.00000000000E+00 -0.00000000000E+00 -0.19207961960E+04  0.19207961960E+04  0.00000000000E+00 0.  1.
         24    2    1    2    0    0  0.12759245298E+03 -0.61548935639E+02 -0.15431472255E+04  0.15517690485E+04  0.81337043132E+02 0.  0.
         25    2    1    2    0    0 -0.15260211396E+03  0.92957744652E+02 -0.27546708206E+03  0.35136582733E+03  0.12508910361E+03 0.  0.
        -24    2    1    2    0    0  0.25009660979E+02 -0.31408809013E+02 -0.26699417974E+02  0.93143790602E+02  0.79692599290E+02 0.  0.
        -11    1    3    3    0    0  0.52886521192E+02 -0.17354229848E+02 -0.10159935074E+04  0.10175170566E+04  0.00000000000E+00 0.  1.
         12    1    3    3    0    0  0.74705931785E+02 -0.44194705791E+02 -0.52715371818E+03  0.53425199191E+03  0.00000000000E+00 0. -1.
         13    1    5    5    0    0  0.29148615832E+02  0.14389550356E+02 -0.33476159933E+02  0.46662128629E+02  0.00000000000E+00 0. -1.
        -14    1    5    5    0    0 -0.41389548533E+01 -0.45798359369E+02  0.67767419590E+01  0.46481661972E+02  0.00000000000E+00 0.  1.
          5    1    4    4  501    0 -0.31649672290E+02  0.65762783123E+02 -0.18175064699E+03  0.19590103492E+03  0.41800000000E+01 0.  1.
         -5    1    4    4    0  501 -0.12095244167E+03  0.27194961528E+02 -0.93716435068E+02  0.15546479241E+03  0.41800000000E+01 0.  1.
</event>
<event>
11    1  0.6455215E-009  0.2706001E+03  0.7561462E-02  0.1013464E+00
         22   -1    0    0    0    0  0.00000000000E+00  0.00000000000E+00  0.42268259950E+03  0.42268259950E+03  0.00000000000E+00 0. -1.
         22   -1    0    0    0    0 -0.00000000000E+00 -0.00000000000E+00 -0.88785743711E+03  0.88785743711E+03  0.00000000000E+00 0. -1.
         24    2    1    2    0    0  0.22883521242E+03  0.53225350301E+02 -0.64556863124E+03  0.69305358262E+03  0.91465394439E+02 0.  0.
         25    2    1    2    0    0 -0.23881971650E+03 -0.12252288926E+03 -0.10483696753E+03  0.31414448753E+03  0.12509697798E+03 0.  0.
        -24    2    1    2    0    0  0.99845040805E+01  0.69297538962E+02  0.28523076116E+03  0.30334196647E+03  0.75880974439E+02 0.  0.
        -11    1    3    3    0    0  0.95065778805E+01  0.17133958863E+02 -0.15680033180E+02  0.25096035740E+02  0.00000000000E+00 0.  1.
         12    1    3    3    0    0  0.21932863454E+03  0.36091391438E+02 -0.62988859806E+03  0.66795754688E+03  0.00000000000E+00 0. -1.
         11    1    5    5    0    0  0.41542625915E+01  0.37118408477E+02  0.25827452045E+03  0.26096122712E+03  0.00000000000E+00 0. -1.
        -12    1    5    5    0    0  0.58302414890E+01  0.32179130485E+02  0.26956240707E+02  0.42380739348E+02  0.00000000000E+00 0.  1.
          5    1    4    4  501    0 -0.22494958922E+03 -0.14617769434E+03 -0.92708534490E+02  0.28387071138E+03  0.41800000000E+01 0. -1.
         -5    1    4    4    0  501 -0.13870127279E+02  0.23654805077E+02 -0.12128433036E+02  0.30273776142E+02  0.41800000000E+01 0. -1.
</event>
<event>
11    1  0.6455215E-009  0.1393105E+03  0.7561462E-02  0.1108331E+00
         22   -1    0    0    0    0  0.00000000000E+00  0.00000000000E+00  0.58464741812E+03  0.58464741812E+03  0.00000000000E+00 0. -1.
         22   -1    0    0    0    0 -0.00000000000E+00 -0.00000000000E+00 -0.49947974075E+03  0.49947974075E+03  0.00000000000E+00 0. -1.
        -24    2    1    2    0    0 -0.76136083626E+02  0.30040077811E+02 -0.32891011507E+03  0.34808000458E+03  0.79238351129E+02 0.  0.
         25    2    1    2    0    0  0.56571885244E+01 -0.52262756265E+01 -0.13042451073E+03  0.18088673109E+03  0.12510051458E+03 0.  0.
         24    2    1    2    0    0  0.70478895101E+02 -0.24813802185E+02  0.54450230316E+03  0.55516042320E+03  0.78341163558E+02 0.  0.
        -11    1    5    5    0    0  0.20158768085E+02 -0.42154445967E+02  0.15070670698E+03  0.15778429825E+03  0.00000000000E+00 0.  1.
         12    1    5    5    0    0  0.50320127016E+02  0.17340643782E+02  0.39379559618E+03  0.39737612495E+03  0.00000000000E+00 0. -1.
         13    1    3    3    0    0 -0.16980276514E+02 -0.19851139214E+02 -0.16212954009E+03  0.16422053857E+03  0.00000000000E+00 0. -1.
        -14    1    3    3    0    0 -0.59155807112E+02  0.49891217025E+02 -0.16678057498E+03  0.18385946601E+03  0.00000000000E+00 0.  1.
          5    1    4    4  501    0  0.39388893089E+02  0.23852460071E+02 -0.35680188879E+01  0.46374862900E+02  0.41800000000E+01 0.  1.
         -5    1    4    4    0  501 -0.33731704565E+02 -0.29078735697E+02 -0.12685649184E+03  0.13451186819E+03  0.41800000000E+01 0.  1.
</event>
<event>
11    1  0.6455215E-009  0.1685962E+03  0.7561462E-02  0.1079260E+00
         22   -1    0    0    0    0  0.00000000000E+00  0.00000000000E+00  0.45952979122E+03  0.45952979122E+03  0.00000000000E+00 0.  1.
         22   -1    0    0    0    0 -0.00000000000E+00 -0.00000000000E+00 -0.14881611171E+03  0.14881611171E+03  0.00000000000E+00 0. -1.
        -24    2    1    2    0    0  0.80640709268E+02  0.74255620143E+02 -0.55738265003E+02  0.14687017696E+03  0.80294916273E+02 0.  0.
         25    2    1    2    0    0 -0.10876530617E+03 -0.71834983932E+02  0.17498849929E+03  0.25151342974E+03  0.12509146139E+03 0.  0.
         24    2    1    2    0    0  0.28124596901E+02 -0.24206362103E+01  0.19146344523E+03  0.20996229624E+03  0.81419055221E+02 0.  0.
        -13    1    5    5    0    0 -0.12224675415E+02 -0.32532053806E+02  0.62372917385E+02  0.71401386799E+02  0.00000000000E+00 0.  1.
         14    1    5    5    0    0  0.40349272315E+02  0.30111417595E+02  0.12909052784E+03  0.13856090944E+03  0.00000000000E+00 0. -1.
         11    1    3    3    0    0  0.62356558433E+02  0.91475149769E+02 -0.43728800901E+02  0.11903046431E+03  0.00000000000E+00 0. -1.
        -12    1    3    3    0    0  0.18284150835E+02 -0.17219529627E+02 -0.12009464102E+02  0.27839712648E+02  0.00000000000E+00 0.  1.
          5    1    4    4  501    0 -0.87791647160E+02 -0.73534548200E+02  0.19236080220E+03  0.22390813677E+03  0.41800000000E+01 0. -1.
         -5    1    4    4    0  501 -0.20973659008E+02  0.16995642672E+01 -0.17372302915E+02  0.27605292961E+02  0.41800000000E+01 0. -1.
</event>
<event>
11    1  0.6455215E-009  0.1518290E+03  0.7561462E-02  0.1095024E+00
         22   -1    0    0    0    0  0.00000000000E+00  0.00000000000E+00  0.14346871264E+03  0.14346871264E+03  0.00000000000E+00 0. -1.
         22   -1    0    0    0    0 -0.00000000000E+00 -0.00000000000E+00 -0.96999078093E+03  0.96999078093E+03  0.00000000000E+00 0.  1.
        -24    2    1    2    0    0 -0.69822510616E+02 -0.44524784356E+02 -0.63110481756E+03  0.64135281617E+03  0.78628904651E+02 0.  0.
         25    2    1    2    0    0  0.82884878237E+02  0.53622399145E+02 -0.29980943271E+03  0.33952076350E+03  0.12507353107E+03 0.  0.
         24    2    1    2    0    0 -0.13062367621E+02 -0.90976147888E+01  0.10439218198E+03  0.13258591391E+03  0.80174215722E+02 0.  0.
        -13    1    5    5    0    0  0.17526751915E+02 -0.77910284338E+01 -0.43062417428E+01  0.19657845118E+02  0.00000000000E+00 0.  1.
         14    1    5    5    0    0 -0.30589119536E+02 -0.13065863550E+01  0.10869842372E+03  0.11292806879E+03  0.00000000000E+00 0. -1.
         11    1    3    3    0    0 -0.53535558561E+02  0.10108123755E+02 -0.23939157316E+03  0.24551284181E+03  0.00000000000E+00 0. -1.
        -12    1    3    3    0    0 -0.16286952055E+02 -0.54632908111E+02 -0.39171324440E+03  0.39583997435E+03  0.00000000000E+00 0.  1.
          5    1    4    4  501    0  0.63332040209E+01  0.56400015873E+02 -0.22603093055E+03  0.23308480265E+03  0.41800000000E+01 0.  1.
         -5    1    4    4    0  501  0.76551674216E+02 -0.27776167281E+01 -0.73778502161E+02  0.10643596085E+03  0.41800000000E+01 0.  1.
</event>
<event>
11    1  0.6455215E-009  0.2211883E+03  0.7561462E-02  0.1040476E+00
         22   -1    0    0    0    0  0.00000000000E+00  0.00000000000E+00  0.96725087175E+03  0.96725087175E+03  0.00000000000E+00 0. -1.
         22   -1    0    0    0    0 -0.00000000000E+00 -0.00000000000E+00 -0.23079604328E+03  0.23079604328E+03  0.00000000000E+00 0. -1.
         24    2    1    2    0    0 -0.43176483513E+02 -0.18452308138E+02 -0.73644447047E+02  0.11984062217E+03  0.82058355678E+02 0.  0.
         25    2    1    2    0    0  0.12182096526E+03  0.17955865460E+03  0.60168277439E+01  0.25052708852E+03  0.12508381929E+03 0.  0.
        -24    2    1    2    0    0 -0.78644481743E+02 -0.16110634646E+03  0.80408244777E+03  0.82767920435E+03  0.79775140957E+02 0.  0.
        -11    1    3    3    0    0 -0.51809254765E+01 -0.40934685839E+02 -0.10125042805E+02  0.42485373782E+02  0.00000000000E+00 0.  1.
         12    1    3    3    0    0 -0.37995558036E+02  0.22482377702E+02 -0.63519404242E+02  0.77355248386E+02  0.00000000000E+00 0. -1.
         13    1    5    5    0    0 -0.78610817384E+02 -0.70664748961E+02  0.42149727441E+03  0.43454932941E+03  0.00000000000E+00 0. -1.
        -14    1    5    5    0    0 -0.33664358848E-01 -0.90441597498E+02  0.38258517336E+03  0.39312987493E+03  0.00000000000E+00 0.  1.
          5    1    4    4  501    0  0.45086596708E+02  0.13973833265E+03  0.47724815708E+02  0.15444977581E+03  0.41800000000E+01 0. -1.
         -5    1    4    4    0  501  0.76734368547E+02  0.39820321949E+02 -0.41707987964E+02  0.96077312704E+02  0.41800000000E+01 0. -1.
</event>
<event>
11    1  0.6455215E-009  0.1401623E+03  0.7561462E-02  0.1107377E+00
         22   -1    0    0    0    0  0.00000000000E+00  0.00000000000E+00  0.99855433147E+02  0.99855433147E+02  0.00000000000E+00 0. -1.
         22   -1    0    0    0    0 -0.00000000000E+00 -0.00000000000E+00 -0.18545057208E+04  0.18545057208E+04  0.00000000000E+00 0. -1.
        -24    2    1    2    0    0  0.21648171238E+02 -0.12912986660E+02 -0.14752821279E+04  0.14777039837E+04  0.80723713401E+02 0.  0.
         25    2    1    2    0    0 -0.55605313403E+02 -0.40309693455E+02 -0.33249152016E+03  0.36182194654E+03  0.12509071810E+03 0.  0.
         24    2    1    2    0    0  0.33957142165E+02  0.53222680116E+02  0.53123360421E+02  0.11483522372E+03  0.79870495194E+02 0.  0.
        -11    1    5    5    0    0  0.19486656320E+02 -0.19073206582E+02  0.20974003583E+02  0.34400956529E+02  0.00000000000E+00 0.  1.
         12    1    5    5    0    0  0.14470485845E+02  0.72295886697E+02  0.32149356839E+02  0.80434267194E+02  0.00000000000E+00 0. -1.
         13    1    3    3    0    0  0.18379499178E+02  0.83225751513E+01 -0.13749088796E+04  0.13750569074E+04  0.00000000000E+00 0. -1.
        -14    1    3    3    0    0  0.32686720599E+01 -0.21235561811E+02 -0.10037324831E+03  0.10264707633E+03  0.00000000000E+00 0.  1.
          5    1    4    4  501    0 -0.27662088047E+02 -0.74894953197E+02 -0.11671229410E+03  0.14146970391E+03  0.41800000000E+01 0. -1.
         -5    1    4    4    0  501 -0.27943225355E+02  0.34585259741E+02 -0.21577922606E+03  0.22035224263E+03  0.41800000000E+01 0. -1.
</event>
<event>
11    1  0.6455215E-009  0.2119290E+03  0.7561462E-02  0.1046395E+00
         22   -1    0    0    0    0  0.00000000000E+00  0.00000000000E+00  0.18905152868E+04  0.18905152868E+04  0.00000000000E+00 0. -1.
         22   -1    0    0    0    0 -0.00000000000E+00 -0.00000000000E+00 -0.30167840110E+03  0.30167840110E+03  0.00000000000E+00 0. -1.
        -24    2    1    2    0    0  0.11591543822E+02  0.71658327629E+02 -0.22427185329E+03  0.24892328737E+03  0.79972864217E+02 0.  0.
         25    2    1    2    0    0 -0.15607324980E+03  0.24297980945E+02  0.11016519155E+03  0.22964186027E+03  0.12509901429E+03 0.  0.
         24    2    1    2    0    0  0.14448170598E+03 -0.95956308574E+02  0.17029435475E+04  0.17136285403E+04  0.80146564282E+02 0.  0.
        -13    1    5    5    0    0  0.60643245115E+02 -0.58488859538E+02  0.48801452115E+03  0.49523400804E+03  0.00000000000E+00 0.  1.
         14    1    5    5    0    0  0.83838460863E+02 -0.37467449036E+02  0.12149290263E+04  0.12183945323E+04  0.00000000000E+00 0. -1.
         13    1    3    3    0    0  0.38555377440E+02  0.54140195138E+02 -0.19277864740E+03  0.20391489586E+03  0.00000000000E+00 0. -1.
        -14    1    3    3    0    0 -0.26963833618E+02  0.17518132491E+02 -0.31493205882E+02  0.45008391507E+02  0.00000000000E+00 0.  1.
          5    1    4    4  501    0 -0.12677691920E+02 -0.23060435860E+02 -0.17477605405E+02  0.31866073890E+02  0.41800000000E+01 0. -1.
         -5    1    4    4    0  501 -0.14339555788E+03  0.47358416805E+02  0.12764279696E+03  0.19777578638E+03  0.41800000000E+01 0. -1.
</event>
<event>
11    1  0.6455215E-009  0.1484508E+03  0.7561462E-02  0.1098472E+00
         22   -1    0    0    0    0  0.00000000000E+00  0.00000000000E+00  0.65334199130E+03  0.65334199130E+03  0.00000000000E+00 0.  1.
         22   -1    0    0    0    0 -0.00000000000E+00 -0.00000000000E+00 -0.84624540496E+02  0.84624540496E+02  0.00000000000E+00 0. -1.
         24    2    1    2    0    0 -0.30873232954E+02 -0.16565747126E+01 -0.20491918197E+02  0.91012827002E+02  0.83111462595E+02 0.  0.
         25    2    1    2    0    0 -0.19900818094E+02 -0.70712047149E+02  0.34276680429E+03  0.37219970487E+03  0.12508917623E+03 0.  0.
        -24    2    1    2    0    0  0.50774051047E+02  0.72368621861E+02  0.24644256472E+03  0.27475399993E+03  0.83310269973E+02 0.  0.
        -11    1    3    3    0    0 -0.49961747281E+02 -0.14389870039E+02  0.99048311999E+01  0.52927783179E+02  0.00000000000E+00 0.  1.
         12    1    3    3    0    0  0.19088514327E+02  0.12733295327E+02 -0.30396749397E+02  0.38085043823E+02  0.00000000000E+00 0. -1.
         11    1    5    5    0    0  0.71557766275E+02  0.37271824330E+02  0.16299164059E+03  0.18186802277E+03  0.00000000000E+00 0. -1.
        -12    1    5    5    0    0 -0.20783715228E+02  0.35096797531E+02  0.83450924125E+02  0.92885977160E+02  0.00000000000E+00 0.  1.
          5    1    4    4  501    0  0.27539110221E+02 -0.68128689925E+02  0.96546529673E+02  0.12140274204E+03  0.41800000000E+01 0. -1.
         -5    1    4    4    0  501 -0.47439928314E+02 -0.25833572235E+01  0.24622027462E+03  0.25079696283E+03  0.41800000000E+01 0. -1.
</event>
<event>
11    1  0.6455215E-009  0.1413521E+03  0.7561462E-02  0.1106058E+00
         22   -1    0    0    0    0  0.00000000000E+00  0.00000000000E+00  0.33253686480E+04  0.33253686480E+04  0.00000000000E+00 0.  1.
         22   -1    0    0    0    0 -0.00000000000E+00 -0.00000000000E+00 -0.58298752992E+03  0.58298752992E+03  0.00000000000E+00 0.  1.
         24    2    1    2    0    0  0.57506844309E+02  0.31402969855E+02 -0.56662553039E+03  0.57638986944E+03  0.82871021766E+02 0.  0.
         25    2    1    2    0    0 -0.87000930301E+02 -0.61370499872E+02  0.61833046041E+03  0.63977697533E+03  0.12508604944E+03 0.  0.
        -24    2    1    2    0    0  0.29494085993E+02  0.29967530018E+02  0.26906761881E+04  0.26921893332E+04  0.79856762796E+02 0.  0.
        -11    1    3    3    0    0  0.76624995514E+02  0.12257836589E+02 -0.38303756940E+03  0.39081891467E+03  0.00000000000E+00 0.  1.
         12    1    3    3    0    0 -0.19118151205E+02  0.19145133265E+02 -0.18358796099E+03  0.18557095477E+03  0.00000000000E+00 0. -1.
         13    1    5    5    0    0  0.35075917941E+01  0.34936503187E+02  0.45368475633E+03  0.45504144930E+03  0.00000000000E+00 0. -1.
        -14    1    5    5    0    0  0.25986494199E+02 -0.49689731694E+01  0.22369914317E+04  0.22371478839E+04  0.00000000000E+00 0.  1.
          5    1    4    4  501    0 -0.55395578263E+02 -0.96758865963E+02  0.49836845229E+03  0.51070493915E+03  0.41800000000E+01 0. -1.
         -5    1    4    4    0  501 -0.31605352039E+02  0.35388366091E+02  0.11996200812E+03  0.12907203618E+03  0.41800000000E+01 0. -1.
</event>
<event>
11    1  0.6455215E-009  0.2218315E+03  0.7561462E-02  0.1040076E+00
         22   -1    0    0    0    0  0.00000000000E+00  0.00000000000E+00  0.26153671612E+03  0.26153671612E+03  0.00000000000E+00 0. -1.
         22   -1    0    0    0    0 -0.00000000000E+00 -0.00000000000E+00 -0.13791224226E+04  0.13791224226E+04  0.00000000000E+00 0. -1.
         24    2    1    2    0    0  0.10465109989E+02 -0.16454270029E+02 -0.58087329608E+03  0.58670862266E+03  0.80205737142E+02 0.  0.
         25    2    1    2    0    0 -0.18135927903E+03  0.80191532343E+02 -0.73602487521E+03  0.77246506812E+03  0.12509114514E+03 0.  0.
        -24    2    1    2    0    0  0.17089416904E+03 -0.63737262314E+02  0.19931246479E+03  0.28148544796E+03  0.79002171958E+02 0.  0.
        -13    1    3    3    0    0 -0.32752224867E+02 -0.18867432414E+02 -0.21667054302E+03  0.21994274813E+03  0.00000000000E+00 0.  1.
         14    1    3    3    0    0  0.43217334856E+02  0.24131623854E+01 -0.36420275306E+03  0.36676587453E+03  0.00000000000E+00 0. -1.
         11    1    5    5    0    0  0.76104822252E+02  0.11183676928E+01  0.11929026588E+03  0.14150393016E+03  0.00000000000E+00 0. -1.
        -12    1    5    5    0    0  0.94789346789E+02 -0.64855630007E+02  0.80022198910E+02  0.13998151780E+03  0.00000000000E+00 0.  1.
          5    1    4    4  501    0 -0.18581411459E+03  0.60145958856E+02 -0.72014922908E+03  0.74617478254E+03  0.41800000000E+01 0.  1.
         -5    1    4    4    0  501  0.44548355576E+01  0.20045573487E+02 -0.15875646130E+02  0.26290285588E+02  0.41800000000E+01 0.  1.
</event>
<event>
11    1  0.6455215E-009  0.1450642E+03  0.7561462E-02  0.1102032E+00
         22   -1    0    0    0    0  0.00000000000E+00  0.00000000000E+00  0.80055748748E+02  0.80055748748E+02  0.00000000000E+00 0. -1.
         22   -1    0    0    0    0 -0.00000000000E+00 -0.00000000000E+00 -0.12474607294E+04  0.12474607294E+04  0.00000000000E+00 0. -1.
        -24    2    1    2    0    0  0.62703641723E+02 -0.40477764300E+02 -0.10484842491E+04  0.10542795648E+04  0.81338699745E+02 0.  0.
         25    2    1    2    0    0 -0.36224857161E+02  0.54189488767E+02 -0.12293519724E+03  0.18711553551E+03  0.12510163844E+03 0.  0.
         24    2    1    2    0    0 -0.26478784562E+02 -0.13711724467E+02  0.40144656125E+01  0.86121377900E+02  0.80694723356E+02 0.  0.
        -11    1    5    5    0    0 -0.77012715734E+01  0.20489641842E+02 -0.28077605578E+02  0.35601782843E+02  0.00000000000E+00 0.  1.
         12    1    5    5    0    0 -0.18777512988E+02 -0.34201366308E+02  0.32092071190E+02  0.50519595056E+02  0.00000000000E+00 0. -1.
         13    1    3    3    0    0  0.80457749465E+02 -0.38499249975E+02 -0.75465290176E+03  0.75990568088E+03  0.00000000000E+00 0. -1.
        -14    1    3    3    0    0 -0.17754107743E+02 -0.19785143253E+01 -0.29383134730E+03  0.29437388389E+03  0.00000000000E+00 0.  1.
          5    1    4    4  501    0 -0.67389870260E+02  0.68769049258E+02 -0.55290879642E+02  0.11110864287E+03  0.41800000000E+01 0.  1.
         -5    1    4    4    0  501  0.31165013100E+02 -0.14579560491E+02 -0.67644317597E+02  0.76006892640E+02  0.41800000000E+01 0.  1.
</event>
<event>
11    1  0.6455215E-009  0.1263421E+03  0.7561462E-02  0.1123847E+00
         22   -1    0    0    0    0  0.00000000000E+00  0.00000000000E+00  0.20911357025E+02  0.20911357025E+02  0.00000000000E+00 0.  1.
         22   -1    0    0    0    0 -0.00000000000E+00 -0.00000000000E+00 -0.27707061309E+04  0.27707061309E+04  0.00000000000E+00 0.  1.
        -24    2    1    2    0    0 -0.67833926673E+01 -0.15093003150E+02 -0.20542515992E+04  0.20558198876E+04  0.78561850715E+02 0.  0.
         25    2    1    2    0    0  0.21991725066E+02  0.19261521446E+02 -0.58282299560E+03  0.59681157575E+03  0.12508705196E+03 0.  0.
         24    2    1    2    0    0 -0.15208332399E+02 -0.41685182963E+01 -0.11272017914E+03  0.13898602462E+03  0.79765947206E+02 0.  0.
        -13    1    5    5    0    0 -0.17743730478E+02  0.21765019630E+02 -0.54612842249E+01  0.28607371011E+02  0.00000000000E+00 0.  1.
         14    1    5    5    0    0  0.25353980795E+01 -0.25933537927E+02 -0.10725889492E+03  0.11037865360E+03  0.00000000000E+00 0. -1.
         11    1    3    3    0    0  0.35729800531E+02 -0.37095670896E+01 -0.82831240397E+03  0.82909095888E+03  0.00000000000E+00 0. -1.
        -12    1    3    3    0    0 -0.42513193198E+02 -0.11383436060E+02 -0.12259391952E+04  0.12267289287E+04  0.00000000000E+00 0.  1.
          5    1    4    4  501    0  0.69761579364E+01  0.52932577740E+02 -0.52742021879E+03  0.53013213839E+03  0.41800000000E+01 0.  1.
         -5    1    4    4    0  501  0.15015567130E+02 -0.33671056294E+02 -0.55402776810E+02  0.66679437358E+02  0.41800000000E+01 0.  1.
</event>
<event>
11    1  0.6455215E-009  0.1354725E+03  0.7561462E-02  0.1112722E+00
         22   -1    0    0    0    0  0.00000000000E+00  0.00000000000E+00  0.25099088422E+04  0.25099088422E+04  0.00000000000E+00 0.  1.
         22   -1    0    0    0    0 -0.00000000000E+00 -0.00000000000E+00 -0.31923140574E+03  0.31923140574E+03  0.00000000000E+00 0.  1.
        -24    2    1    2    0    0 -0.62146253828E+01  0.50933249847E+02 -0.29468040776E+03  0.30979260912E+03  0.80635602810E+02 0.  0.
         25    2    1    2    0    0  0.49218146793E+02 -0.82049226523E+02  0.37316001677E+03  0.40503244572E+03  0.12509349472E+03 0.  0.
         24    2    1    2    0    0 -0.43003521410E+02  0.31115976676E+02  0.21121978274E+04  0.21143151931E+04  0.78304320821E+02 0.  0.
        -13    1    5    5    0    0  0.53511965717E+01  0.41088617740E+02  0.12662941776E+04  0.12669719232E+04  0.00000000000E+00 0.  1.
         14    1    5    5    0    0 -0.48354717982E+02 -0.99726410638E+01  0.84590364983E+03  0.84734326994E+03  0.00000000000E+00 0. -1.
         13    1    3    3    0    0  0.24015455253E+02 -0.10725828609E+02 -0.66852400342E+02  0.71840301515E+02  0.00000000000E+00 0. -1.
        -14    1    3    3    0    0 -0.30230080635E+02  0.61659078456E+02 -0.22782800742E+03  0.23795230761E+03  0.00000000000E+00 0.  1.
          5    1    4    4  501    0  0.90566041077E+02 -0.67197569056E+02  0.25312901927E+03  0.27714525773E+03  0.41800000000E+01 0.  1.
         -5    1    4    4    0  501 -0.41347894285E+02 -0.14851657467E+02  0.12003099750E+03  0.12788718799E+03  0.41800000000E+01 0.  1.
</event>
<event>
11    1  0.6455215E-009  0.1416427E+03  0.7561462E-02  0.1105738E+00
         22   -1    0    0    0    0  0.00000000000E+00  0.00000000000E+00  0.43482635580E+04  0.43482635580E+04  0.00000000000E+00 0.  1.
         22   -1    0    0    0    0 -0.00000000000E+00 -0.00000000000E+00 -0.14933710662E+03  0.14933710662E+03  0.00000000000E+00 0.  1.
         24    2    1    2    0    0  0.35390861600E+02 -0.24620996163E+02 -0.10616329408E+03  0.14007595026E+03  0.80572453698E+02 0.  0.
         25    2    1    2    0    0 -0.94392984527E+02  0.52848514765E+02  0.24174429350E+03  0.29290123489E+03  0.12509128236E+03 0.  0.
        -24    2    1    2    0    0  0.59002122927E+02 -0.28227518602E+02  0.40633454519E+04  0.40646234794E+04  0.78164726912E+02 0.  0.
        -11    1    3    3    0    0 -0.19174499570E+02 -0.20798215964E+02 -0.67220722381E+02  0.72930465092E+02  0.00000000000E+00 0.  1.
         12    1    3    3    0    0  0.54565361171E+02 -0.38227801987E+01 -0.38942571696E+02  0.67145485168E+02  0.00000000000E+00 0. -1.
         11    1    5    5    0    0  0.22948279558E+02  0.48242149868E+01  0.28550109107E+03  0.28646250991E+03  0.00000000000E+00 0. -1.
        -12    1    5    5    0    0  0.36053843369E+02 -0.33051733589E+02  0.37778443609E+04  0.37781609695E+04  0.00000000000E+00 0.  1.
          5    1    4    4  501    0  0.78013980813E+01  0.50523976641E+02  0.13788276404E+03  0.14711445561E+03  0.41800000000E+01 0.  1.
         -5    1    4    4    0  501 -0.10219438261E+03  0.23245381237E+01  0.10386152945E+03  0.14578677929E+03  0.41800000000E+01 0.  1.
</event>
<event>
11    1  0.6455215E-009  0.1910506E+03  0.7561462E-02  0.1061039E+00
         22   -1    0    0    0    0  0.00000000000E+00  0.00000000000E+00  0.20417225252E+04  0.20417225252E+04  0.00000000000E+00 0.  1.
         22   -1    0    0    0    0 -0.00000000000E+00 -0.00000000000E+00 -0.40398230221E+03  0.40398230221E+03  0.00000000000E+00 0.  1.
         24    2    1    2    0    0 -0.87546636862E+02  0.10994856026E+03 -0.31940025131E+03  0.35802909358E+03  0.80095017210E+02 0.  0.
         25    2    1    2    0    0  0.21800712937E+03 -0.78354261474E+02  0.21869508761E+03  0.34226073574E+03  0.12509344963E+03 0.  0.
        -24    2    1    2    0    0 -0.13046049251E+03 -0.31594298783E+02  0.17384453867E+04  0.17454149981E+04  0.79139201762E+02 0.  0.
        -13    1    3    3    0    0  0.93689204271E+01  0.39377370800E+02 -0.61490848585E+02  0.73617107120E+02  0.00000000000E+00 0.  1.
         14    1    3    3    0    0 -0.96915557289E+02  0.70571189458E+02 -0.25790940272E+03  0.28441198645E+03  0.00000000000E+00 0. -1.
         13    1    5    5    0    0 -0.61475000244E+02  0.22526130942E+02  0.58822007249E+03  0.59185256265E+03  0.00000000000E+00 0. -1.
        -14    1    5    5    0    0 -0.68985492265E+02 -0.54120429726E+02  0.11502253142E+04  0.11535624355E+04  0.00000000000E+00 0.  1.
          5    1    4    4  501    0  0.10993211756E+03 -0.28718968525E+02  0.18743148643E+03  0.21922108504E+03  0.41800000000E+01 0. -1.
         -5    1    4    4    0  501  0.10807501182E+03 -0.49635292949E+02  0.31263601178E+02  0.12303965070E+03  0.41800000000E+01 0. -1.
</event>
<event>
11    1  0.6455215E-009  0.2358802E+03  0.7561462E-02  0.1031702E+00
         22   -1    0    0    0    0  0.00000000000E+00  0.00000000000E+00  0.40974553453E+04  0.40974553453E+04  0.00000000000E+00 0. -1.
         22   -1    0    0    0    0 -0.00000000000E+00 -0.00000000000E+00 -0.70700121165E+03  0.70700121165E+03  0.00000000000E+00 0. -1.
        -24    2    1    2    0    0  0.10129292782E+02  0.20346032914E+03 -0.66117432715E+03  0.69597336489E+03  0.75688345532E+02 0.  0.
         25    2    1    2    0    0 -0.58913796792E+02 -0.12773876945E+03  0.29514014126E+03  0.35005929793E+03  0.12508309404E+03 0.  0.
         24    2    1    2    0    0  0.48784504010E+02 -0.75721559690E+02  0.37564883196E+04  0.37584238942E+04  0.80199692934E+02 0.  0.
        -11    1    5    5    0    0 -0.39506403477E+01 -0.63717418772E+01  0.17805685954E+04  0.17805843787E+04  0.00000000000E+00 0.  1.
         12    1    5    5    0    0  0.52735144358E+02 -0.69349817813E+02  0.19759197242E+04  0.19778395155E+04  0.00000000000E+00 0. -1.
         13    1    3    3    0    0  0.41457222216E+02  0.82014393559E+02 -0.27910914993E+03  0.29384856576E+03  0.00000000000E+00 0. -1.
        -14    1    3    3    0    0 -0.31327929434E+02  0.12144593558E+03 -0.38206517722E+03  0.40212479913E+03  0.00000000000E+00 0.  1.
          5    1    4    4  501    0 -0.88113481709E+01 -0.54064766000E+02  0.16305154637E+02  0.57305926805E+02  0.41800000000E+01 0.  1.
         -5    1    4    4    0  501 -0.50102448621E+02 -0.73674003451E+02  0.27883498662E+03  0.29275337113E+03  0.41800000000E+01 0.  1.
</event>
<event>
11    1  0.6455215E-009  0.1365208E+03  0.7561462E-02  0.1111507E+00
         22   -1    0    0    0    0  0.00000000000E+00  0.00000000000E+00  0.55038201542E+03  0.55038201542E+03  0.00000000000E+00 0.  1.
         22   -1    0    0    0    0 -0.00000000000E+00 -0.00000000000E+00 -0.40129574160E+03  0.40129574160E+03  0.00000000000E+00 0. -1.
         24    2    1    2    0    0  0.54980458200E+02  0.17221108841E+01 -0.34550608507E+03  0.36043314043E+03  0.86670510825E+02 0.  0.
         25    2    1    2    0    0 -0.50495094059E+02  0.18690473459E+02  0.58969086598E+02  0.14840632350E+03  0.12509194761E+03 0.  0.
        -24    2    1    2    0    0 -0.44853641408E+01 -0.20412584343E+02  0.43562327229E+03  0.44283829309E+03  0.76820090979E+02 0.  0.
        -11    1    3    3    0    0 -0.21837388490E+02  0.12351327522E+02 -0.87097430775E+02  0.90638784608E+02  0.00000000000E+00 0.  1.
         12    1    3    3    0    0  0.76817846689E+02 -0.10629216638E+02 -0.25840865430E+03  0.26979435582E+03  0.00000000000E+00 0. -1.
         13    1    5    5    0    0 -0.57840911177E+01 -0.23340979838E+02  0.36543593760E+02  0.43745757449E+02  0.00000000000E+00 0. -1.
        -14    1    5    5    0    0  0.12987269770E+01  0.29283954946E+01  0.39907967853E+03  0.39909253564E+03  0.00000000000E+00 0.  1.
          5    1    4    4  501    0 -0.90782896931E+01 -0.17265551340E+02 -0.34558038980E+02  0.39902945568E+02  0.41800000000E+01 0. -1.
         -5    1    4    4    0  501 -0.41416804366E+02  0.35956024798E+02  0.93527125579E+02  0.10850337793E+03  0.41800000000E+01 0. -1.
</event>
<event>
11    1  0.6455215E-009  0.1299199E+03  0.7561462E-02  0.1119367E+00
         22   -1    0    0    0    0  0.00000000000E+00  0.00000000000E+00  0.77952486538E+03  0.77952486538E+03  0.00000000000E+00 0.  1.
         22   -1    0    0    0    0 -0.00000000000E+00 -0.00000000000E+00 -0.20821322299E+03  0.20821322299E+03  0.00000000000E+00 0. -1.
         24    2    1    2    0    0 -0.23414829288E+02  0.95352800107E+01 -0.17471458221E+03  0.19440236104E+03  0.81412019668E+02 0.  0.
         25    2    1    2    0    0 -0.16644262645E+02 -0.38807629372E+00  0.20370996676E+03  0.23962953137E+03  0.12508948663E+03 0.  0.
        -24    2    1    2    0    0  0.40059091932E+02 -0.91472037170E+01  0.54231625784E+03  0.55370619595E+03  0.10390007572E+03 0.  0.
        -13    1    3    3    0    0 -0.17623973352E+02  0.26581038566E+02 -0.17929676503E+02  0.36587283959E+02  0.00000000000E+00 0.  1.
         14    1    3    3    0    0 -0.57908559355E+01 -0.17045758556E+02 -0.15678490571E+03  0.15781507708E+03  0.00000000000E+00 0. -1.
         13    1    5    5    0    0 -0.10512358912E+02  0.25312804881E+02  0.45372342088E+02  0.53008463545E+02  0.00000000000E+00 0. -1.
        -14    1    5    5    0    0  0.50571450844E+02 -0.34460008598E+02  0.49694391576E+03  0.50069773241E+03  0.00000000000E+00 0.  1.
          5    1    4    4  501    0  0.46457191017E+02 -0.30848499256E+02  0.94483191929E+02  0.10979274321E+03  0.41800000000E+01 0. -1.
         -5    1    4    4    0  501 -0.63101453661E+02  0.30460422962E+02  0.10922677483E+03  0.12983678816E+03  0.41800000000E+01 0. -1.
</event>
<event>
11    1  0.6455215E-009  0.1344981E+03  0.7561462E-02  0.1113863E+00
         22   -1    0    0    0    0  0.00000000000E+00  0.00000000000E+00  0.25314012679E+04  0.25314012679E+04  0.00000000000E+00 0. -1.
         22   -1    0    0    0    0 -0.00000000000E+00 -0.00000000000E+00 -0.10108396113E+03  0.10108396113E+03  0.00000000000E+00 0.  1.
         24    2    1    2    0    0  0.32032107410E+01  0.49598056494E+02 -0.58348723598E+02  0.11119091395E+03  0.80551958589E+02 0.  0.
         25    2    1    2    0    0  0.33935085064E+02 -0.47392614378E+02  0.29299887808E+03  0.32387175361E+03  0.12508765062E+03 0.  0.
        -24    2    1    2    0    0 -0.37138295805E+02 -0.22054421169E+01  0.21956671523E+04  0.21974225615E+04  0.79545917467E+02 0.  0.
        -11    1    3    3    0    0  0.21920629734E+02  0.41010883607E+02 -0.72551456197E+02  0.86174940548E+02  0.00000000000E+00 0.  1.
         12    1    3    3    0    0 -0.18717418993E+02  0.85871728878E+01  0.14202732599E+02  0.25015973402E+02  0.00000000000E+00 0. -1.
         11    1    5    5    0    0 -0.39305986970E+02 -0.16559816681E+02  0.21168484814E+04  0.21172781304E+04  0.00000000000E+00 0. -1.
        -12    1    5    5    0    0  0.21676911652E+01  0.14354374564E+02  0.78818670915E+02  0.80144431117E+02  0.00000000000E+00 0.  1.
          5    1    4    4  501    0  0.26236771034E+02  0.20650323659E+02  0.22420608177E+03  0.22671710021E+03  0.41800000000E+01 0.  1.
         -5    1    4    4    0  501  0.76983140293E+01 -0.68042938037E+02  0.68792796304E+02  0.97154653408E+02  0.41800000000E+01 0.  1.
</event>
<event>
11    1  0.6455215E-009  0.1763279E+03  0.7561462E-02  0.1072652E+00
         22   -1    0    0    0    0  0.00000000000E+00  0.00000000000E+00  0.25768639566E+03  0.25768639566E+03  0.00000000000E+00 0.  1.
         22   -1    0    0    0    0 -0.00000000000E+00 -0.00000000000E+00 -0.94291257011E+03  0.94291257011E+03  0.00000000000E+00 0.  1.
        -24    2    1    2    0    0 -0.84772735528E+02 -0.93968006712E+02 -0.84762451219E+03  0.86003206465E+03  0.71912694198E+02 0.  0.
         25    2    1    2    0    0  0.11326888352E+03  0.62455245183E+01  0.53802257129E+02  0.17723030954E+03  0.12508818168E+03 0.  0.
         24    2    1    2    0    0 -0.28496147989E+02  0.87722482194E+02  0.10859608061E+03  0.16333659159E+03  0.79865318472E+02 0.  0.
        -11    1    5    5    0    0 -0.33631798427E+02  0.41191172576E+02  0.10335171761E+03  0.11622989330E+03  0.00000000000E+00 0.  1.
         12    1    5    5    0    0  0.51356504376E+01  0.46531309618E+02  0.52443629999E+01  0.47106698286E+02  0.00000000000E+00 0. -1.
         11    1    3    3    0    0 -0.67486371021E+01 -0.37925252165E+02 -0.11844018877E+03  0.12454696773E+03  0.00000000000E+00 0. -1.
        -12    1    3    3    0    0 -0.78024098426E+02 -0.56042754547E+02 -0.72918432342E+03  0.73548509692E+03  0.00000000000E+00 0.  1.
          5    1    4    4  501    0  0.18695284427E+01 -0.40962720407E+02 -0.69181959678E+01  0.41794418709E+02  0.41800000000E+01 0. -1.
         -5    1    4    4    0  501  0.11139935507E+03  0.47208244926E+02  0.60720453097E+02  0.13543589083E+03  0.41800000000E+01 0. -1.
</event>
<event>
11    1  0.6455215E-009  0.1393768E+03  0.7561462E-02  0.1108256E+00
         22   -1    0    0    0    0  0.00000000000E+00  0.00000000000E+00  0.57667777783E+03  0.57667777783E+03  0.00000000000E+00 0. -1.
         22   -1    0    0    0    0 -0.00000000000E+00 -0.00000000000E+00 -0.44615806781E+03  0.44615806781E+03  0.00000000000E+00 0.  1.
        -24    2    1    2    0    0  0.32841406149E+02  0.29517201809E+02 -0.37903156792E+03  0.38962943251E+03  0.78716847245E+02 0.  0.
         25    2    1    2    0    0 -0.78481799106E+01  0.30249920824E+02  0.16652771483E+02  0.13000168489E+03  0.12508585707E+03 0.  0.
         24    2    1    2    0    0 -0.24993226238E+02 -0.59767122632E+02  0.49289850646E+03  0.50320472824E+03  0.77905651592E+02 0.  0.
        -11    1    5    5    0    0 -0.11820005411E+02  0.54712264802E+01  0.11960239893E+02  0.17683161070E+02  0.00000000000E+00 0.  1.
         12    1    5    5    0    0 -0.13173220827E+02 -0.65238349113E+02  0.48093826656E+03  0.48552156717E+03  0.00000000000E+00 0. -1.
         11    1    3    3    0    0  0.88555925991E+01  0.12841647761E+01 -0.15864319523E+00  0.89496238533E+01  0.00000000000E+00 0. -1.
        -12    1    3    3    0    0  0.23985813550E+02  0.28233037033E+02 -0.37887292472E+03  0.38067980866E+03  0.00000000000E+00 0.  1.
          5    1    4    4  501    0  0.46841514948E+02  0.36392019045E+02 -0.21140303793E+02  0.63110153044E+02  0.41800000000E+01 0.  1.
         -5    1    4    4    0  501 -0.54689694858E+02 -0.61420982213E+01  0.37793075275E+02  0.66891531848E+02  0.41800000000E+01 0.  1.
</event>
<event>
11    1  0.8381919E-009  0.1679354E+03  0.7561462E-02  0.1079842E+00
         22   -1    0    0    0    0  0.00000000000E+00  0.00000000000E+00  0.48983583925E+03  0.48983583925E+03  0.00000000000E+00 0. -1.
         22   -1    0    0    0    0 -0.00000000000E+00 -0.00000000000E+00 -0.67424608861E+03  0.67424608861E+03  0.00000000000E+00 0.  1.
         24    2    1    2    0    0  0.26323110553E+02  0.34795598051E+02 -0.39557428387E+03  0.40608110929E+03  0.80741646418E+02 0.  0.
         25    2    1    2    0    0 -0.13481350417E+03 -0.57270484801E+02 -0.22776858866E+03  0.29829689598E+03  0.12509164175E+03 0.  0.
        -24    2    1    2    0    0  0.10849039361E+03  0.22474886749E+02  0.43893262317E+03  0.45970392259E+03  0.79940995254E+02 0.  0.
        -11    1    3    3    0    0  0.17318200386E+02  0.59184445985E+02 -0.32658105717E+03  0.33235208081E+03  0.00000000000E+00 0.  1.
         12    1    3    3    0    0  0.90049101665E+01 -0.24388847933E+02 -0.68993226700E+02  0.73729028483E+02  0.00000000000E+00 0. -1.
         13    1    5    5    0    0  0.79063945406E+02 -0.22858204085E+02  0.25050824722E+03  0.26368160133E+03  0.00000000000E+00 0. -1.
        -14    1    5    5    0    0  0.29426448208E+02  0.45333090834E+02  0.18842437595E+03  0.19602232126E+03  0.00000000000E+00 0.  1.
          5    1    4    4  501    0 -0.11678514151E+03  0.63727875963E+00 -0.89314751364E+02  0.14708423645E+03  0.41800000000E+01 0. -1.
         -5    1    4    4    0  501 -0.18028362661E+02 -0.57907763560E+02 -0.13845383729E+03  0.15121265953E+03  0.41800000000E+01 0. -1.
</event>
<event>
11    1  0.6455215E-009  0.1341383E+03  0.7561462E-02  0.1114286E+00
         22   -1    0    0    0    0  0.00000000000E+00  0.00000000000E+00  0.92877169404E+03  0.92877169404E+03  0.00000000000E+00 0. -1.
         22   -1    0    0    0    0 -0.00000000000E+00 -0.00000000000E+00 -0.87846716556E+03  0.87846716556E+03  0.00000000000E+00 0.  1.
         24    2    1    2    0    0  0.49196062584E+02 -0.65910448743E+01 -0.82887115408E+03  0.83411360032E+03  0.79084851368E+02 0.  0.
         25    2    1    2    0    0 -0.71190172031E+01  0.69781431318E+01  0.43562318073E+02  0.13283188411E+03  0.12508900428E+03 0.  0.
        -24    2    1    2    0    0 -0.42077045381E+02 -0.38709825743E+00  0.83561336449E+03  0.84029337517E+03  0.77927106035E+02 0.  0.
        -11    1    3    3    0    0  0.48642207537E+02  0.28638196174E+02 -0.58382662290E+03  0.58654900583E+03  0.00000000000E+00 0.  1.
         12    1    3    3    0    0  0.55385504717E+00 -0.35229241048E+02 -0.24504453118E+03  0.24756459449E+03  0.00000000000E+00 0. -1.
         11    1    5    5    0    0  0.18414248535E+01  0.19662134962E+02  0.56910006225E+03  0.56944259698E+03  0.00000000000E+00 0. -1.
        -12    1    5    5    0    0 -0.43918470234E+02 -0.20049233219E+02  0.26651330223E+03  0.27085077819E+03  0.00000000000E+00 0.  1.
          5    1    4    4  501    0  0.51098017089E+02 -0.11222956357E+01 -0.11085924005E+02  0.52465579277E+02  0.41800000000E+01 0.  1.
         -5    1    4    4    0  501 -0.58217034292E+02  0.81004387675E+01  0.54648242077E+02  0.80366304830E+02  0.41800000000E+01 0.  1.
</event>
<event>
11    1  0.6455215E-009  0.1339234E+03  0.7561462E-02  0.1114540E+00
         22   -1    0    0    0    0  0.00000000000E+00  0.00000000000E+00  0.12922691717E+03  0.12922691717E+03  0.00000000000E+00 0. -1.
         22   -1    0    0    0    0 -0.00000000000E+00 -0.00000000000E+00 -0.17357089496E+04  0.17357089496E+04  0.00000000000E+00 0. -1.
        -24    2    1    2    0    0  0.60479528762E+01 -0.70511443132E+01 -0.15942502146E+04  0.15963542617E+04  0.81405687027E+02 0.  0.
         25    2    1    2    0    0 -0.30265218142E+02  0.46584206982E+02 -0.78040533955E+02  0.15755430496E+03  0.12508781836E+03 0.  0.
         24    2    1    2    0    0  0.24217265265E+02 -0.39533062669E+02  0.65808716116E+02  0.11102730006E+03  0.76465255254E+02 0.  0.
        -13    1    5    5    0    0  0.62699549248E+01 -0.14813055431E+02 -0.16614453080E+02  0.23125289125E+02  0.00000000000E+00 0.  1.
         14    1    5    5    0    0  0.17947310341E+02 -0.24720007238E+02  0.82423169196E+02  0.87902010936E+02  0.00000000000E+00 0. -1.
         11    1    3    3    0    0  0.27608006855E+02  0.23603726631E+02 -0.11336897002E+04  0.11342714288E+04  0.00000000000E+00 0. -1.
        -12    1    3    3    0    0 -0.21560053979E+02 -0.30654870944E+02 -0.46056051438E+03  0.46208283288E+03  0.00000000000E+00 0.  1.
          5    1    4    4  501    0 -0.77982150304E+02  0.39531890639E+02 -0.41344241034E+02  0.96802917364E+02  0.41800000000E+01 0.  1.
         -5    1    4    4    0  501  0.47716932163E+02  0.70523163436E+01 -0.36696292921E+02  0.60751387597E+02  0.41800000000E+01 0.  1.
</event>
<event>
11    1  0.6455215E-009  0.1288049E+03  0.7561462E-02  0.1120746E+00
         22   -1    0    0    0    0  0.00000000000E+00  0.00000000000E+00  0.11175249623E+04  0.11175249623E+04  0.00000000000E+00 0.  1.
         22   -1    0    0    0    0 -0.00000000000E+00 -0.00000000000E+00 -0.44923137788E+02  0.44923137788E+02  0.00000000000E+00 0.  1.
        -24    2    1    2    0    0 -0.65490292769E+01 -0.34448560385E+02  0.35136113922E+02  0.92703351863E+02  0.78292859496E+02 0.  0.
         25    2    1    2    0    0 -0.19204457907E+02  0.10081888356E+02  0.28901685099E+03  0.31567207015E+03  0.12509060734E+03 0.  0.
         24    2    1    2    0    0  0.25753487183E+02  0.24366672029E+02  0.74844885957E+03  0.75407267804E+03  0.84811152361E+02 0.  0.
        -13    1    5    5    0    0  0.18067553086E+02 -0.14161881432E+02  0.60223857199E+03  0.60267594357E+03  0.00000000000E+00 0.  1.
         14    1    5    5    0    0  0.76859340976E+01  0.38528553461E+02  0.14621028757E+03  0.15139673447E+03  0.00000000000E+00 0. -1.
         13    1    3    3    0    0 -0.25801274732E+02  0.10338090542E+02  0.34033543309E+02  0.43941597195E+02  0.00000000000E+00 0. -1.
        -14    1    3    3    0    0  0.19252245456E+02 -0.44786650927E+02  0.11025706123E+01  0.48761754668E+02  0.00000000000E+00 0.  1.
          5    1    4    4  501    0  0.56634040213E+01 -0.54726422331E+02  0.15776621653E+03  0.16713679105E+03  0.41800000000E+01 0.  1.
         -5    1    4    4    0  501 -0.24867861928E+02  0.64808310687E+02  0.13125063446E+03  0.14853527910E+03  0.41800000000E+01 0.  1.
</event>
<event>
11    1  0.6455215E-009  0.1386500E+03  0.7561462E-02  0.1109075E+00
         22   -1    0    0    0    0  0.00000000000E+00  0.00000000000E+00  0.73656175608E+03  0.73656175608E+03  0.00000000000E+00 0. -1.
         22   -1    0    0    0    0 -0.00000000000E+00 -0.00000000000E+00 -0.73402627063E+03  0.73402627063E+03  0.00000000000E+00 0.  1.
         24    2    1    2    0    0  0.21095870799E+01 -0.30263126760E+02 -0.63807418989E+03  0.64412953873E+03  0.82727768335E+02 0.  0.
         25    2    1    2    0    0  0.26710225358E+02  0.81548672999E+02 -0.24950039136E+02  0.15372940557E+03  0.12508638406E+03 0.  0.
        -24    2    1    2    0    0 -0.28819812438E+02 -0.51285546239E+02  0.66555971448E+03  0.67272908241E+03  0.78319192659E+02 0.  0.
        -11    1    3    3    0    0  0.22382956541E+02  0.19945660681E+02 -0.32760398026E+03  0.32897293810E+03  0.00000000000E+00 0.  1.
         12    1    3    3    0    0 -0.20273369462E+02 -0.50208787441E+02 -0.31047020964E+03  0.31515660062E+03  0.00000000000E+00 0. -1.
         13    1    5    5    0    0 -0.37187191215E+02 -0.64014505897E+02  0.62558698972E+03  0.62995224094E+03  0.00000000000E+00 0. -1.
        -14    1    5    5    0    0  0.83673787767E+01  0.12728959658E+02  0.39972724763E+02  0.42776841474E+02  0.00000000000E+00 0.  1.
          5    1    4    4  501    0  0.58864958584E+01 -0.22072558345E+02 -0.40629335300E+02  0.46798119111E+02  0.41800000000E+01 0. -1.
         -5    1    4    4    0  501  0.20823729500E+02  0.10362123134E+03  0.15679296165E+02  0.10693128646E+03  0.41800000000E+01 0. -1.
</event>
<event>
11    1  0.6455215E-009  0.1480191E+03  0.7561462E-02  0.1098920E+00
         22   -1    0    0    0    0  0.00000000000E+00  0.00000000000E+00  0.14968747533E+03  0.14968747533E+03  0.00000000000E+00 0. -1.
         22   -1    0    0    0    0 -0.00000000000E+00 -0.00000000000E+00 -0.15261956814E+04  0.15261956814E+04  0.00000000000E+00 0.  1.
         24    2    1    2    0    0 -0.39772612419E+02 -0.14722341367E+02 -0.13795140259E+04  0.13824607501E+04  0.79625184437E+02 0.  0.
         25    2    1    2    0    0  0.51335705334E+02  0.87795287057E+02 -0.54446280704E+02  0.17016390738E+03  0.12509192949E+03 0.  0.
        -24    2    1    2    0    0 -0.11563092915E+02 -0.73072945691E+02  0.57452100506E+02  0.12325849923E+03  0.80115874018E+02 0.  0.
        -13    1    3    3    0    0 -0.61020589668E+02 -0.23925248931E+02 -0.11198033534E+04  0.11217198760E+04  0.00000000000E+00 0.  1.
         14    1    3    3    0    0  0.21247977249E+02  0.92029075638E+01 -0.25971067250E+03  0.26074087415E+03  0.00000000000E+00 0. -1.
         13    1    5    5    0    0 -0.39396842949E+02 -0.52975709817E+02  0.59488155550E+02  0.88867191447E+02  0.00000000000E+00 0. -1.
        -14    1    5    5    0    0  0.27833750034E+02 -0.20097235874E+02 -0.20360550449E+01  0.34391307781E+02  0.00000000000E+00 0.  1.
          5    1    4    4  501    0 -0.39010537480E+02  0.69071813007E+01 -0.15171748511E+02  0.42628459283E+02  0.41800000000E+01 0.  1.
         -5    1    4    4    0  501  0.90346242814E+02  0.80888105757E+02 -0.39274532193E+02  0.12753544810E+03  0.41800000000E+01 0.  1.
</event>
<event>
11    1  0.6455215E-009  0.1696279E+03  0.7561462E-02  0.1078356E+00
         22   -1    0    0    0    0  0.00000000000E+00  0.00000000000E+00  0.43268912314E+03  0.43268912314E+03  0.00000000000E+00 0. -1.
         22   -1    0    0    0    0 -0.00000000000E+00 -0.00000000000E+00 -0.86980527918E+03  0.86980527918E+03  0.00000000000E+00 0.  1.
        -24    2    1    2    0    0 -0.62620602087E+00 -0.11521489204E+03 -0.55803174809E+03  0.57556891841E+03  0.81272901270E+02 0.  0.
         25    2    1    2    0    0 -0.50270401690E+02  0.11006444783E+03 -0.27199704024E+03  0.32291031461E+03  0.12508950964E+03 0.  0.
         24    2    1    2    0    0  0.50896607711E+02  0.51504442130E+01  0.39291263229E+03  0.40401516931E+03  0.78936231643E+02 0.  0.
        -11    1    5    5    0    0 -0.10547285957E+02  0.23465286635E+02  0.17450398448E+03  0.17639020811E+03  0.00000000000E+00 0.  1.
         12    1    5    5    0    0  0.61443893668E+02 -0.18314842422E+02  0.21840864781E+03  0.22762496119E+03  0.00000000000E+00 0. -1.
         13    1    3    3    0    0 -0.14726401669E+02 -0.26687462950E+02 -0.42494573212E+02  0.52296045140E+02  0.00000000000E+00 0. -1.
        -14    1    3    3    0    0  0.14100195648E+02 -0.88527429090E+02 -0.51553717487E+03  0.52327287327E+03  0.00000000000E+00 0.  1.
          5    1    4    4  501    0 -0.71070275293E+02  0.10175415227E+02 -0.11327362384E+03  0.13417492077E+03  0.41800000000E+01 0.  1.
         -5    1    4    4    0  501  0.20799873603E+02  0.99889032599E+02 -0.15872341640E+03  0.18873539384E+03  0.41800000000E+01 0.  1.
</event>
<event>
11    1  0.6455215E-009  0.2197108E+03  0.7561462E-02  0.1041399E+00
         22   -1    0    0    0    0  0.00000000000E+00  0.00000000000E+00  0.20462068037E+03  0.20462068037E+03  0.00000000000E+00 0. -1.
         22   -1    0    0    0    0 -0.00000000000E+00 -0.00000000000E+00 -0.10532784605E+04  0.10532784605E+04  0.00000000000E+00 0.  1.
        -24    2    1    2    0    0  0.34720202531E+02 -0.24091713560E+02 -0.78445505083E+03  0.78937964263E+03  0.77230760014E+02 0.  0.
         25    2    1    2    0    0 -0.28439508488E+02 -0.16293734765E+03 -0.14028819096E+03  0.25036812724E+03  0.12508412253E+03 0.  0.
         24    2    1    2    0    0 -0.62806940431E+01  0.18702906121E+03  0.76085461673E+02  0.21815137099E+03  0.82351116147E+02 0.  0.
        -11    1    5    5    0    0  0.22670170423E+02  0.11078223631E+03  0.10632330569E+02  0.11357678884E+03  0.00000000000E+00 0.  1.
         12    1    5    5    0    0 -0.28950864466E+02  0.76246824899E+02  0.65453131104E+02  0.10457458215E+03  0.00000000000E+00 0. -1.
         13    1    3    3    0    0 -0.90932002692E+01 -0.24590201137E+02 -0.95521302863E+02  0.99053942798E+02  0.00000000000E+00 0. -1.
        -14    1    3    3    0    0  0.43813402800E+02  0.49848757697E+00 -0.68893374797E+03  0.69032569983E+03  0.00000000000E+00 0.  1.
          5    1    4    4  501    0  0.21162186311E+01 -0.82126002438E+02 -0.14171627696E+03  0.16386010561E+03  0.41800000000E+01 0.  1.
         -5    1    4    4    0  501 -0.30555727119E+02 -0.80811345216E+02  0.14280859922E+01  0.86508021622E+02  0.41800000000E+01 0.  1.
</event>
<event>
11    1  0.6455215E-009  0.1271388E+03  0.7561462E-02  0.1122835E+00
         22   -1    0    0    0    0  0.00000000000E+00  0.00000000000E+00  0.12081209126E+04  0.12081209126E+04  0.00000000000E+00 0. -1.
         22   -1    0    0    0    0 -0.00000000000E+00 -0.00000000000E+00 -0.11279197964E+03  0.11279197964E+03  0.00000000000E+00 0. -1.
        -24    2    1    2    0    0  0.64734280704E+01 -0.39935808780E+01 -0.80835644374E+02  0.11453400450E+03  0.80782317527E+02 0.  0.
         25    2    1    2    0    0 -0.60553207296E+01  0.26143170519E+02  0.29889255351E+03  0.32512579478E+03  0.12509952683E+03 0.  0.
         24    2    1    2    0    0 -0.41810734074E+00 -0.22149589641E+02  0.87727202387E+03  0.88125309301E+03  0.80684762780E+02 0.  0.
        -11    1    5    5    0    0  0.38836864926E+02 -0.92766349156E+01  0.53699739391E+03  0.53847985951E+03  0.00000000000E+00 0.  1.
         12    1    5    5    0    0 -0.39254972267E+02 -0.12872954725E+02  0.34027462996E+03  0.34277323351E+03  0.00000000000E+00 0. -1.
         13    1    3    3    0    0 -0.27325685755E+01  0.11638793362E+02 -0.92301616920E+02  0.93072643284E+02  0.00000000000E+00 0. -1.
        -14    1    3    3    0    0  0.92059966459E+01 -0.15632374240E+02  0.11465972545E+02  0.21461361211E+02  0.00000000000E+00 0.  1.
          5    1    4    4  501    0 -0.36401093858E+02 -0.37549185768E+02  0.85286394993E+02  0.10013102694E+03  0.41800000000E+01 0. -1.
         -5    1    4    4    0  501  0.30345773128E+02  0.63692356287E+02  0.21360615852E+03  0.22499476783E+03  0.41800000000E+01 0. -1.
</event>
<event>
11    1  0.6455215E-009  0.1587313E+03  0.7561462E-02  0.1088277E+00
         22   -1    0    0    0    0  0.00000000000E+00  0.00000000000E+00  0.14362255639E+04  0.14362255639E+04  0.00000000000E+00 0. -1.
         22   -1    0    0    0    0 -0.00000000000E+00 -0.00000000000E+00 -0.67066688434E+03  0.67066688434E+03  0.00000000000E+00 0. -1.
         24    2    1    2    0    0  0.49433865158E+02 -0.28516871028E+02 -0.56180201796E+03  0.57032559526E+03  0.79955351755E+02 0.  0.
         25    2    1    2    0    0 -0.12668746512E+03  0.85790624406E+02 -0.57799161893E+01  0.19771220618E+03  0.12508782510E+03 0.  0.
        -24    2    1    2    0    0  0.77253599958E+02 -0.57273753378E+02  0.13331406137E+04  0.13388546468E+04  0.77585229165E+02 0.  0.
        -11    1    3    3    0    0  0.91576318490E+01 -0.25078903052E+02 -0.47915569605E+02  0.54851758494E+02  0.00000000000E+00 0.  1.
         12    1    3    3    0    0  0.40276233309E+02 -0.34379679758E+01 -0.51388644835E+03  0.51547383677E+03  0.00000000000E+00 0. -1.
         11    1    5    5    0    0  0.12091948677E+02 -0.29274192573E+02  0.84451667774E+03  0.84511041442E+03  0.00000000000E+00 0. -1.
        -12    1    5    5    0    0  0.65161651281E+02 -0.27999560806E+02  0.48862393598E+03  0.49374423239E+03  0.00000000000E+00 0.  1.
          5    1    4    4  501    0 -0.10300710706E+03  0.32936101076E+02  0.48160050095E+02  0.11845722301E+03  0.41800000000E+01 0.  1.
         -5    1    4    4    0  501 -0.23680358059E+02  0.52854523330E+02 -0.53939966285E+02  0.79254983168E+02  0.41800000000E+01 0.  1.
</event>
<event>
11    1  0.6455215E-009  0.1351315E+03  0.7561462E-02  0.1113120E+00
         22   -1    0    0    0    0  0.00000000000E+00  0.00000000000E+00  0.62959396512E+03  0.62959396512E+03  0.00000000000E+00 0.  1.
         22   -1    0    0    0    0 -0.00000000000E+00 -0.00000000000E+00 -0.13360735531E+03  0.13360735531E+03  0.00000000000E+00 0. -1.
        -24    2    1    2    0    0  0.50776081662E+02  0.17961027344E+01 -0.88900154814E+02  0.13121505542E+03  0.82053133933E+02 0.  0.
         25    2    1    2    0    0  0.83997567131E+01  0.25265789549E+02  0.23350114632E+03  0.26623411474E+03  0.12509557339E+03 0.  0.
         24    2    1    2    0    0 -0.59175838375E+02 -0.27061892283E+02  0.35138561829E+03  0.36575215027E+03  0.77901584225E+02 0.  0.
        -13    1    5    5    0    0 -0.52470976961E+02 -0.18694877648E+02  0.35060448084E+03  0.35500169558E+03  0.00000000000E+00 0.  1.
         14    1    5    5    0    0 -0.67048614142E+01 -0.83670146354E+01  0.78113744924E+00  0.10750454698E+02  0.00000000000E+00 0. -1.
         13    1    3    3    0    0  0.51579665618E+02  0.27831949280E+02 -0.87258906224E+02  0.10511515600E+03  0.00000000000E+00 0. -1.
        -14    1    3    3    0    0 -0.80358395595E+00 -0.26035846545E+02 -0.16412485896E+01  0.26099899414E+02  0.00000000000E+00 0.  1.
          5    1    4    4  501    0  0.53161809422E+02  0.52049998405E+02  0.12007735649E+03  0.14132028962E+03  0.41800000000E+01 0. -1.
         -5    1    4    4    0  501 -0.44762052708E+02 -0.26784208856E+02  0.11342378983E+03  0.12491382512E+03  0.41800000000E+01 0. -1.
</event>
<event>
11    1  0.6455215E-009  0.1603895E+03  0.7561462E-02  0.1086712E+00
         22   -1    0    0    0    0  0.00000000000E+00  0.00000000000E+00  0.23597827598E+03  0.23597827598E+03  0.00000000000E+00 0.  1.
         22   -1    0    0    0    0 -0.00000000000E+00 -0.00000000000E+00 -0.56730197494E+03  0.56730197494E+03  0.00000000000E+00 0. -1.
        -24    2    1    2    0    0  0.22474499937E+02 -0.10013707340E+03 -0.46790957948E+03  0.48552316501E+03  0.79125423066E+02 0.  0.
         25    2    1    2    0    0 -0.56913604475E+02  0.69117790728E+02 -0.83540258012E+00  0.15384402426E+03  0.12510339138E+03 0.  0.
         24    2    1    2    0    0  0.34439104537E+02  0.31019282675E+02  0.13742128309E+03  0.16391306165E+03  0.76384781956E+02 0.  0.
        -13    1    5    5    0    0  0.53609447540E+02  0.13241680849E+01  0.75360382904E+02  0.92492775923E+02  0.00000000000E+00 0.  1.
         14    1    5    5    0    0 -0.19170343002E+02  0.29695114590E+02  0.62060900189E+02  0.71420285729E+02  0.00000000000E+00 0. -1.
         13    1    3    3    0    0  0.20280018281E+02 -0.58330110317E+02 -0.40672684368E+03  0.41138838861E+03  0.00000000000E+00 0. -1.
        -14    1    3    3    0    0  0.21944816558E+01 -0.41806963085E+02 -0.61182735793E+02  0.74134776396E+02  0.00000000000E+00 0.  1.
          5    1    4    4  501    0 -0.23102200449E+02 -0.24937877090E+02 -0.34189529799E+02  0.48394273703E+02  0.41800000000E+01 0.  1.
         -5    1    4    4    0  501 -0.33811404025E+02  0.94055667818E+02  0.33354127219E+02  0.10544975056E+03  0.41800000000E+01 0.  1.
</event>
<event>
11    1  0.6455215E-009  0.1409910E+03  0.7561462E-02  0.1106457E+00
         22   -1    0    0    0    0  0.00000000000E+00  0.00000000000E+00  0.16316344155E+04  0.16316344155E+04  0.00000000000E+00 0.  1.
         22   -1    0    0    0    0 -0.00000000000E+00 -0.00000000000E+00 -0.13963319199E+04  0.13963319199E+04  0.00000000000E+00 0.  1.
         24    2    1    2    0    0 -0.27134289856E+02 -0.15641744314E+02 -0.13490433399E+04  0.13520324119E+04  0.84218619357E+02 0.  0.
         25    2    1    2    0    0 -0.10945080943E+02 -0.38421339860E+02  0.54009443226E+02  0.14200215444E+03  0.12510634578E+03 0.  0.
        -24    2    1    2    0    0  0.38079370799E+02  0.54063084174E+02  0.15303363923E+04  0.15339317690E+04  0.81512838264E+02 0.  0.
        -13    1    3    3    0    0 -0.14639713534E+00  0.15438070108E+02 -0.10559447743E+04  0.10560576319E+04  0.00000000000E+00 0.  1.
         14    1    3    3    0    0 -0.26987892721E+02 -0.31079814422E+02 -0.29309856560E+03  0.29597477997E+03  0.00000000000E+00 0. -1.
         11    1    5    5    0    0  0.56336239579E+02  0.14461707051E+02  0.68213207773E+03  0.68460724823E+03  0.00000000000E+00 0. -1.
        -12    1    5    5    0    0 -0.18256868781E+02  0.39601377123E+02  0.84820431457E+03  0.84932452077E+03  0.00000000000E+00 0.  1.
          5    1    4    4  501    0 -0.44150170418E+02 -0.25621976335E+01  0.76171112149E+02  0.88177736026E+02  0.41800000000E+01 0. -1.
         -5    1    4    4    0  501  0.33205089475E+02 -0.35859142226E+02 -0.22161668923E+02  0.53824418415E+02  0.41800000000E+01 0. -1.
</event>
<event>
11    1  0.6455215E-009  0.2344355E+03  0.7561462E-02  0.1032534E+00
         22   -1    0    0    0    0  0.00000000000E+00  0.00000000000E+00  0.12082767405E+03  0.12082767405E+03  0.00000000000E+00 0.  1.
         22   -1    0    0    0    0 -0.00000000000E+00 -0.00000000000E+00 -0.76354088801E+03  0.76354088801E+03  0.00000000000E+00 0.  1.
        -24    2    1    2    0    0  0.68822786428E+01  0.56291079557E+02 -0.28456709865E+03  0.30096882469E+03  0.79923390833E+02 0.  0.
         25    2    1    2    0    0 -0.55316345077E+02  0.15651384735E+03 -0.25655633318E+03  0.33019079293E+03  0.12509326600E+03 0.  0.
         24    2    1    2    0    0  0.48434066434E+02 -0.21280492691E+03 -0.10158978214E+03  0.25320894444E+03  0.78501528640E+02 0.  0.
        -13    1    5    5    0    0  0.60323054054E+02 -0.17361672701E+03 -0.10574565630E+03  0.21204665189E+03  0.00000000000E+00 0.  1.
         14    1    5    5    0    0 -0.11888987620E+02 -0.39188199898E+02  0.41558741663E+01  0.41162292550E+02  0.00000000000E+00 0. -1.
         13    1    3    3    0    0  0.86188966526E+01  0.62556778428E+02 -0.11434970870E+03  0.13062730108E+03  0.00000000000E+00 0. -1.
        -14    1    3    3    0    0 -0.17366180098E+01 -0.62656988709E+01 -0.17021738995E+03  0.17034152361E+03  0.00000000000E+00 0.  1.
          5    1    4    4  501    0 -0.72271567765E+01  0.13961586493E+03 -0.11970949823E+03  0.18409958691E+03  0.41800000000E+01 0.  1.
         -5    1    4    4    0  501 -0.48089188300E+02  0.16897982423E+02 -0.13684683495E+03  0.14609120602E+03  0.41800000000E+01 0.  1.
</event>
<event>
11    1  0.6455215E-009  0.1301515E+03  0.7561462E-02  0.1119083E+00
         22   -1    0    0    0    0  0.00000000000E+00  0.00000000000E+00  0.61359625091E+03  0.61359625091E+03  0.00000000000E+00 0. -1.
         22   -1    0    0    0    0 -0.00000000000E+00 -0.00000000000E+00 -0.90411815106E+03  0.90411815106E+03  0.00000000000E+00 0.  1.
        -24    2    1    2    0    0  0.25201670058E+01 -0.36046121111E+02 -0.85176161351E+03  0.85629646496E+03  0.80250330524E+02 0.  0.
         25    2    1    2    0    0 -0.19095189238E+02  0.27174446234E+02  0.41536474949E+02  0.13592547601E+03  0.12508948596E+03 0.  0.
         24    2    1    2    0    0  0.16575022233E+02  0.88716748775E+01  0.51970323842E+03  0.52549246100E+03  0.75481339201E+02 0.  0.
        -13    1    5    5    0    0 -0.15606836065E+02 -0.16727008292E+02  0.64524822022E+02  0.68460344692E+02  0.00000000000E+00 0.  1.
         14    1    5    5    0    0  0.32181858298E+02  0.25598683169E+02  0.45517841640E+03  0.45703211631E+03  0.00000000000E+00 0. -1.
         13    1    3    3    0    0 -0.13212593620E+02 -0.38862133163E+01 -0.23331299164E+02  0.27092892145E+02  0.00000000000E+00 0. -1.
        -14    1    3    3    0    0  0.15732760626E+02 -0.32159907795E+02 -0.82843031435E+03  0.82920357281E+03  0.00000000000E+00 0.  1.
          5    1    4    4  501    0 -0.35459759291E+01  0.55461557964E+02 -0.25588505658E+02  0.61325381196E+02  0.41800000000E+01 0. -1.
         -5    1    4    4    0  501 -0.15549213309E+02 -0.28287111730E+02  0.67124980606E+02  0.74600094812E+02  0.41800000000E+01 0. -1.
</event>
<event>
11    1  0.6455215E-009  0.1663553E+03  0.7561462E-02  0.1081248E+00
         22   -1    0    0    0    0  0.00000000000E+00  0.00000000000E+00  0.70497417494E+02  0.70497417494E+02  0.00000000000E+00 0.  1.
         22   -1    0    0    0    0 -0.00000000000E+00 -0.00000000000E+00 -0.10420934034E+04  0.10420934034E+04  0.00000000000E+00 0. -1.
        -24    2    1    2    0    0  0.11361080622E+03  0.50961873044E+02 -0.58261606464E+03  0.60044060855E+03  0.74718925460E+02 0.  0.
         25    2    1    2    0    0 -0.48820351630E+02 -0.81998499927E+02 -0.37146710443E+03  0.40341300456E+03  0.12508821630E+03 0.  0.
         24    2    1    2    0    0 -0.64790454595E+02  0.31036626883E+02 -0.17512816860E+02  0.10873720780E+03  0.79724565794E+02 0.  0.
        -11    1    5    5    0    0 -0.56513302229E+02  0.54302171240E+02  0.15410761191E+00  0.78374121235E+02  0.00000000000E+00 0.  1.
         12    1    5    5    0    0 -0.82771523659E+01 -0.23265544357E+02 -0.17666924472E+02  0.30363086566E+02  0.00000000000E+00 0. -1.
         13    1    3    3    0    0  0.49568692826E+02 -0.43591647723E+01 -0.33700395115E+03  0.34065777653E+03  0.00000000000E+00 0. -1.
        -14    1    3    3    0    0  0.64042113399E+02  0.55321037817E+02 -0.24561211350E+03  0.25978283202E+03  0.00000000000E+00 0.  1.
          5    1    4    4  501    0 -0.30663404754E+02 -0.10669485327E+03 -0.19647729941E+03  0.22570963136E+03  0.41800000000E+01 0.  1.
         -5    1    4    4    0  501 -0.18156946876E+02  0.24696353345E+02 -0.17498980502E+03  0.17770337320E+03  0.41800000000E+01 0.  1.
</event>
<event>
11    1  0.6455215E-009  0.1480429E+03  0.7561462E-02  0.1098895E+00
         22   -1    0    0    0    0  0.00000000000E+00  0.00000000000E+00  0.15757273205E+04  0.15757273205E+04  0.00000000000E+00 0. -1.
         22   -1    0    0    0    0 -0.00000000000E+00 -0.00000000000E+00 -0.32176023015E+03  0.32176023015E+03  0.00000000000E+00 0. -1.
        -24    2    1    2    0    0  0.22136342147E+02  0.76048581261E+02 -0.27393863722E+03  0.29593863799E+03  0.79144779585E+02 0.  0.
         25    2    1    2    0    0 -0.18470196319E+02 -0.76705438678E+02  0.11751671153E+03  0.18889805869E+03  0.12508967429E+03 0.  0.
         24    2    1    2    0    0 -0.36661458279E+01  0.65685741681E+00  0.14103890161E+04  0.14126508540E+04  0.79820965697E+02 0.  0.
        -13    1    5    5    0    0 -0.10834784734E+02 -0.22185737618E+02  0.14878363302E+03  0.15081833101E+03  0.00000000000E+00 0.  1.
         14    1    5    5    0    0  0.71686389061E+01  0.22842595035E+02  0.12616053830E+04  0.12618325230E+04  0.00000000000E+00 0. -1.
         11    1    3    3    0    0 -0.25419279963E+02  0.96343625299E+01 -0.10235927841E+03  0.10590742472E+03  0.00000000000E+00 0. -1.
        -12    1    3    3    0    0  0.47555622110E+02  0.66414218732E+02 -0.17157935881E+03  0.19003121326E+03  0.00000000000E+00 0.  1.
          5    1    4    4  501    0  0.39729065361E+02 -0.62400798929E+02  0.10336413361E+03  0.12717654996E+03  0.41800000000E+01 0.  1.
         -5    1    4    4    0  501 -0.58199261680E+02 -0.14304639749E+02  0.14152577917E+02  0.61721508732E+02  0.41800000000E+01 0.  1.
</event>
<event>
11    1  0.8095580E-009  0.2247875E+03  0.7561462E-02  0.1038259E+00
         22   -1    0    0    0    0  0.00000000000E+00  0.00000000000E+00  0.79690744358E+03  0.79690744358E+03  0.00000000000E+00 0. -1.
         22   -1    0    0    0    0 -0.00000000000E+00 -0.00000000000E+00 -0.87613034826E+03  0.87613034826E+03  0.00000000000E+00 0. -1.
         24    2    1    2    0    0 -0.74469378470E+02  0.22211753377E+02 -0.53704484768E+03  0.55022561747E+03  0.91060482021E+02 0.  0.
         25    2    1    2    0    0  0.14310975053E-01  0.15132233386E+03 -0.28833530439E+03  0.34883150298E+03  0.12509085012E+03 0.  0.
        -24    2    1    2    0    0  0.74455067494E+02 -0.17353408724E+03  0.74615724739E+03  0.77398067138E+03  0.81472727437E+02 0.  0.
        -11    1    3    3    0    0  0.12988983017E+02  0.29181800692E+02 -0.13754546543E+03  0.14120568768E+03  0.00000000000E+00 0.  1.
         12    1    3    3    0    0 -0.87458361486E+02 -0.69700473148E+01 -0.39949938225E+03  0.40901992980E+03  0.00000000000E+00 0. -1.
         11    1    5    5    0    0  0.41173559920E+02 -0.11149194857E+03  0.60113630826E+03  0.61277285982E+03  0.00000000000E+00 0. -1.
        -12    1    5    5    0    0  0.33281507574E+02 -0.62042138671E+02  0.14502093914E+03  0.16120781155E+03  0.00000000000E+00 0.  1.
          5    1    4    4  501    0 -0.77548742753E+01  0.73712433874E+02 -0.25195669697E+03  0.26266577723E+03  0.41800000000E+01 0. -1.
         -5    1    4    4    0  501  0.77691852503E+01  0.77609899990E+02 -0.36378607423E+02  0.86165725749E+02  0.41800000000E+01 0. -1.
</event>
<event>
11    1  0.6455215E-009  0.1508826E+03  0.7561462E-02  0.1095980E+00
         22   -1    0    0    0    0  0.00000000000E+00  0.00000000000E+00  0.16063516746E+03  0.16063516746E+03  0.00000000000E+00 0. -1.
         22   -1    0    0    0    0 -0.00000000000E+00 -0.00000000000E+00 -0.67162166422E+03  0.67162166422E+03  0.00000000000E+00 0.  1.
        -24    2    1    2    0    0 -0.72671468337E+02  0.50025205848E+02 -0.56961610316E+03  0.58150615853E+03  0.76832570565E+02 0.  0.
         25    2    1    2    0    0  0.39153466179E+02 -0.23674378276E+02 -0.14285478156E+02  0.13395209666E+03  0.12508244966E+03 0.  0.
         24    2    1    2    0    0  0.33518002157E+02 -0.26350827572E+02  0.72915084559E+02  0.11679857649E+03  0.80668924200E+02 0.  0.
        -11    1    5    5    0    0  0.90092066086E+01  0.83933716937E+01 -0.14841418869E+02  0.19284247617E+02  0.00000000000E+00 0.  1.
         12    1    5    5    0    0  0.24508795549E+02 -0.34744199266E+02  0.87756503428E+02  0.97514328874E+02  0.00000000000E+00 0. -1.
         13    1    3    3    0    0 -0.32177337365E+02  0.15487191667E+02 -0.65619107647E+02  0.74706769667E+02  0.00000000000E+00 0. -1.
        -14    1    3    3    0    0 -0.40494130971E+02  0.34538014181E+02 -0.50399699552E+03  0.50679938887E+03  0.00000000000E+00 0.  1.
          5    1    4    4  501    0 -0.21947310871E+02  0.36838976027E+02 -0.20336843251E+02  0.47642986919E+02  0.41800000000E+01 0.  1.
         -5    1    4    4    0  501  0.61100777050E+02 -0.60513354303E+02  0.60513650954E+01  0.86309109743E+02  0.41800000000E+01 0.  1.
</event>
<event>
11    1  0.6532170E-009  0.1445369E+03  0.7561462E-02  0.1102595E+00
         22   -1    0    0    0    0  0.00000000000E+00  0.00000000000E+00  0.47876469192E+03  0.47876469192E+03  0.00000000000E+00 0.  1.
         22   -1    0    0    0    0 -0.00000000000E+00 -0.00000000000E+00 -0.40558964332E+03  0.40558964332E+03  0.00000000000E+00 0.  1.
        -24    2    1    2    0    0  0.28105355049E+02 -0.45356032770E+01 -0.30730866669E+03  0.31819987114E+03  0.77472954588E+02 0.  0.
         25    2    1    2    0    0  0.46469133291E+02  0.59352920478E+01 -0.33557957955E+02  0.13772214177E+03  0.12508654505E+03 0.  0.
         24    2    1    2    0    0 -0.74574488340E+02 -0.13996887708E+01  0.41404167325E+03  0.42843232233E+03  0.80996507243E+02 0.  0.
        -13    1    5    5    0    0 -0.63744234222E+02 -0.11802919442E+02  0.40648285324E+03  0.41161990511E+03  0.00000000000E+00 0.  1.
         14    1    5    5    0    0 -0.10830254117E+02  0.10403230671E+02  0.75588200066E+01  0.16812417213E+02  0.00000000000E+00 0. -1.
         13    1    3    3    0    0 -0.11962808051E+02  0.11591446926E+01 -0.23522779851E+03  0.23553464626E+03  0.00000000000E+00 0. -1.
        -14    1    3    3    0    0  0.40068163099E+02 -0.56947479696E+01 -0.72080868176E+02  0.82665224887E+02  0.00000000000E+00 0.  1.
          5    1    4    4  501    0  0.69837880753E+02 -0.34897851049E+02  0.26182067475E+01  0.78227341783E+02  0.41800000000E+01 0.  1.
         -5    1    4    4    0  501 -0.23368747462E+02  0.40833143097E+02 -0.36176164703E+02  0.59494799989E+02  0.41800000000E+01 0.  1.
</event>
<event>
11    1  0.7919323E-009  0.1646058E+03  0.7561462E-02  0.1082824E+00
         22   -1    0    0    0    0  0.00000000000E+00  0.00000000000E+00  0.86852825050E+03  0.86852825050E+03  0.00000000000E+00 0.  1.
         22   -1    0    0    0    0 -0.00000000000E+00 -0.00000000000E+00 -0.10514059059E+04  0.10514059059E+04  0.00000000000E+00 0.  1.
        -24    2    1    2    0    0 -0.55454563672E+01  0.54240366215E+02 -0.82498590667E+03  0.83047570717E+03  0.78200924350E+02 0.  0.
         25    2    1    2    0    0 -0.71469424846E+02  0.21478710915E+02 -0.19398236224E+03  0.24258129004E+03  0.12508921499E+03 0.  0.
         24    2    1    2    0    0  0.77014881213E+02 -0.75719077130E+02  0.83609061354E+03  0.84687715917E+03  0.80552703894E+02 0.  0.
        -11    1    5    5    0    0  0.83887938937E+02 -0.47792653136E+02  0.74813498695E+03  0.75433897069E+03  0.00000000000E+00 0.  1.
         12    1    5    5    0    0 -0.68730577240E+01 -0.27926423994E+02  0.87955626588E+02  0.92538188485E+02  0.00000000000E+00 0. -1.
         13    1    3    3    0    0 -0.32307289273E+02  0.47768181034E+02 -0.35229969631E+03  0.35698828563E+03  0.00000000000E+00 0. -1.
        -14    1    3    3    0    0  0.26761832906E+02  0.64721851815E+01 -0.47268621036E+03  0.47348742153E+03  0.00000000000E+00 0.  1.
          5    1    4    4  501    0 -0.63515008106E+02  0.18644125448E+02 -0.21330120460E+02  0.69672132932E+02  0.41800000000E+01 0.  1.
         -5    1    4    4    0  501 -0.79544167398E+01  0.28345854667E+01 -0.17265224178E+03  0.17290915711E+03  0.41800000000E+01 0.  1.
</event>
<event>
11    1  0.7983919E-009  0.1736833E+03  0.7561462E-02  0.1074870E+00
         22   -1    0    0    0    0  0.00000000000E+00  0.00000000000E+00  0.14101199231E+04  0.14101199231E+04  0.00000000000E+00 0.  1.
         22   -1    0    0    0    0 -0.00000000000E+00 -0.00000000000E+00 -0.10031490313E+04  0.10031490313E+04  0.00000000000E+00 0. -1.
         24    2    1    2    0    0  0.97602925011E+02  0.25386827337E+02 -0.94584143175E+03  0.95422467372E+03  0.75880774500E+02 0.  0.
         25    2    1    2    0    0  0.20961941675E+02  0.24489090000E+02  0.36730194676E+02  0.13429689498E+03  0.12508968892E+03 0.  0.
        -24    2    1    2    0    0 -0.11856486669E+03 -0.49875917338E+02  0.13160821289E+04  0.13247473856E+04  0.79613007850E+02 0.  0.
        -11    1    3    3    0    0 -0.64024885858E+01 -0.79743187373E+01 -0.26288544204E+02  0.28207608473E+02  0.00000000000E+00 0.  1.
         12    1    3    3    0    0  0.10400541360E+03  0.33361146075E+02 -0.91955288755E+03  0.92601706524E+03  0.00000000000E+00 0. -1.
         11    1    5    5    0    0 -0.41600188613E+02 -0.56474657341E+02  0.47897417684E+03  0.48408286966E+03  0.00000000000E+00 0. -1.
        -12    1    5    5    0    0 -0.76964678073E+02  0.65987400035E+01  0.83710795206E+03  0.84066451599E+03  0.00000000000E+00 0.  1.
          5    1    4    4  501    0 -0.13664480151E+02  0.11936973799E+02 -0.42733039887E+02  0.46613243389E+02  0.41800000000E+01 0. -1.
         -5    1    4    4    0  501  0.34626421826E+02  0.12552116201E+02  0.79463234564E+02  0.87683651594E+02  0.41800000000E+01 0. -1.
</event>
<event>
11    1  0.6455215E-009  0.1374435E+03  0.7561462E-02  0.1110447E+00
         22   -1    0    0    0    0  0.00000000000E+00  0.00000000000E+00  0.12839893608E+04  0.12839893608E+04  0.00000000000E+00 0.  1.
         22   -1    0    0    0    0 -0.00000000000E+00 -0.00000000000E+00 -0.89858500984E+02  0.89858500984E+02  0.00000000000E+00 0. -1.
         24    2    1    2    0    0  0.37549795046E+02 -0.44389026416E+01 -0.51874604565E+02  0.10280707742E+03  0.80303359851E+02 0.  0.
         25    2    1    2    0    0 -0.48075327788E+02  0.55947191434E+02  0.58312182028E+03  0.60093269048E+03  0.12509083031E+03 0.  0.
        -24    2    1    2    0    0  0.10525532742E+02 -0.51508288793E+02  0.66288364414E+03  0.67010809393E+03  0.82862785543E+02 0.  0.
        -13    1    3    3    0    0  0.20177503916E+02  0.29005266527E+02  0.38420725060E+01  0.35541506324E+02  0.00000000000E+00 0.  1.
         14    1    3    3    0    0  0.17372291130E+02 -0.33444169169E+02 -0.55716677071E+02  0.67265571092E+02  0.00000000000E+00 0. -1.
         11    1    5    5    0    0 -0.22549340312E+02 -0.44186046288E+01  0.41488193125E+03  0.41551776580E+03  0.00000000000E+00 0. -1.
        -12    1    5    5    0    0  0.33074873054E+02 -0.47089684164E+02  0.24800171289E+03  0.25459032813E+03  0.00000000000E+00 0.  1.
          5    1    4    4  501    0 -0.71308521534E+02  0.76501141384E+02  0.33837963637E+03  0.35419709285E+03  0.41800000000E+01 0. -1.
         -5    1    4    4    0  501  0.23233193746E+02 -0.20553949950E+02  0.24474218391E+03  0.24673559763E+03  0.41800000000E+01 0. -1.
</event>
<event>
11    1  0.6455215E-009  0.1439937E+03  0.7561462E-02  0.1103179E+00
         22   -1    0    0    0    0  0.00000000000E+00  0.00000000000E+00  0.52904524438E+03  0.52904524438E+03  0.00000000000E+00 0.  1.
         22   -1    0    0    0    0 -0.00000000000E+00 -0.00000000000E+00 -0.66724071604E+03  0.66724071604E+03  0.00000000000E+00 0.  1.
         24    2    1    2    0    0 -0.99158203659E+01 -0.70676829967E+02 -0.62201355774E+03  0.63122300097E+03  0.80299895115E+02 0.  0.
         25    2    1    2    0    0  0.12977830108E+02  0.68610903168E+02  0.10284570559E+03  0.17635517969E+03  0.12509208663E+03 0.  0.
        -24    2    1    2    0    0 -0.30620097420E+01  0.20659267993E+01  0.38097238049E+03  0.38870777976E+03  0.77072299757E+02 0.  0.
        -13    1    3    3    0    0 -0.27266824241E+02 -0.19405328324E+02 -0.44155616512E+03  0.44282264331E+03  0.00000000000E+00 0.  1.
         14    1    3    3    0    0  0.17351003875E+02 -0.51271501643E+02 -0.18045739262E+03  0.18840035766E+03  0.00000000000E+00 0. -1.
         13    1    5    5    0    0  0.25654705250E+02  0.22182478557E+02  0.10085642333E+03  0.10640603546E+03  0.00000000000E+00 0. -1.
        -14    1    5    5    0    0 -0.28716714992E+02 -0.20116551757E+02  0.28011595717E+03  0.28230174430E+03  0.00000000000E+00 0.  1.
          5    1    4    4  501    0  0.40415317616E+02  0.93847546629E+02  0.56859609770E+02  0.11700960443E+03  0.41800000000E+01 0.  1.
         -5    1    4    4    0  501 -0.27437487509E+02 -0.25236643461E+02  0.45986095815E+02  0.59345575255E+02  0.41800000000E+01 0.  1.
</event>
<event>
11    1  0.6455215E-009  0.1491842E+03  0.7561462E-02  0.1097715E+00
         22   -1    0    0    0    0  0.00000000000E+00  0.00000000000E+00  0.72661506646E+03  0.72661506646E+03  0.00000000000E+00 0. -1.
         22   -1    0    0    0    0 -0.00000000000E+00 -0.00000000000E+00 -0.10513867013E+03  0.10513867013E+03  0.00000000000E+00 0.  1.
        -24    2    1    2    0    0  0.28112198953E+01 -0.54381686105E+02  0.41535409631E+01  0.97955125659E+02  0.81318411196E+02 0.  0.
         25    2    1    2    0    0 -0.18362625825E+02  0.12862812193E+03  0.10291141238E+03  0.20766027601E+03  0.12509856776E+03 0.  0.
         24    2    1    2    0    0  0.15551405930E+02 -0.74246435827E+02  0.51441144299E+03  0.52613833492E+03  0.80299659609E+02 0.  0.
        -13    1    5    5    0    0 -0.14414530843E+02  0.12077048347E+02  0.74482580916E+02  0.76819845458E+02  0.00000000000E+00 0.  1.
         14    1    5    5    0    0  0.29965936773E+02 -0.86323484174E+02  0.43992886208E+03  0.44931848946E+03  0.00000000000E+00 0. -1.
         11    1    3    3    0    0 -0.55349330509E+01 -0.35437378419E+02  0.41747063252E+02  0.55038718764E+02  0.00000000000E+00 0. -1.
        -12    1    3    3    0    0  0.83461529462E+01 -0.18944307686E+02 -0.37593522288E+02  0.42916406895E+02  0.00000000000E+00 0.  1.
          5    1    4    4  501    0 -0.10797814988E+02 -0.24087969639E+02  0.22010680982E+02  0.34623194063E+02  0.41800000000E+01 0.  1.
         -5    1    4    4    0  501 -0.75648108369E+01  0.15271609157E+03  0.80900731397E+02  0.17303708195E+03  0.41800000000E+01 0.  1.
</event>
<event>
11    1  0.6455215E-009  0.1375170E+03  0.7561462E-02  0.1110363E+00
         22   -1    0    0    0    0  0.00000000000E+00  0.00000000000E+00  0.16173386598E+04  0.16173386598E+04  0.00000000000E+00 0. -1.
         22   -1    0    0    0    0 -0.00000000000E+00 -0.00000000000E+00 -0.11498354664E+04  0.11498354664E+04  0.00000000000E+00 0. -1.
         24    2    1    2    0    0  0.17622891192E+02 -0.54167369570E+02 -0.11110290612E+04  0.11154134456E+04  0.80727378726E+02 0.  0.
         25    2    1    2    0    0  0.14712607667E+02  0.75513142782E+02  0.11767438431E+03  0.18818965065E+03  0.12509751529E+03 0.  0.
        -24    2    1    2    0    0 -0.32335498859E+02 -0.21345773211E+02  0.14608578703E+04  0.14635710300E+04  0.80207332079E+02 0.  0.
        -11    1    3    3    0    0  0.13490944186E+02  0.19634832390E+02 -0.20664857739E+03  0.20801722706E+03  0.00000000000E+00 0.  1.
         12    1    3    3    0    0  0.41319470065E+01 -0.73802201960E+02 -0.90438048381E+03  0.90739621858E+03  0.00000000000E+00 0. -1.
         11    1    5    5    0    0 -0.49971422273E+01  0.56459307893E+01  0.11877860199E+04  0.11878099499E+04  0.00000000000E+00 0. -1.
        -12    1    5    5    0    0 -0.27338356632E+02 -0.26991704001E+02  0.27307185039E+03  0.27576108011E+03  0.00000000000E+00 0.  1.
          5    1    4    4  501    0 -0.15664536677E+02  0.95444733416E+01  0.11379467151E+03  0.11533938766E+03  0.41800000000E+01 0. -1.
         -5    1    4    4    0  501  0.30377144344E+02  0.65968669440E+02  0.38797127965E+01  0.72850262989E+02  0.41800000000E+01 0. -1.
</event>
<event>
11    1  0.6455215E-009  0.1544868E+03  0.7561462E-02  0.1092380E+00
         22   -1    0    0    0    0  0.00000000000E+00  0.00000000000E+00  0.46167594253E+03  0.46167594253E+03  0.00000000000E+00 0. -1.
         22   -1    0    0    0    0 -0.00000000000E+00 -0.00000000000E+00 -0.80636142162E+03  0.80636142162E+03  0.00000000000E+00 0.  1.
         24    2    1    2    0    0  0.33123819387E+02  0.13272681079E+02 -0.75762138686E+03  0.76360073766E+03  0.88445289661E+02 0.  0.
         25    2    1    2    0    0 -0.78932509708E+02 -0.80527554888E+02  0.19177309464E+03  0.25522383180E+03  0.12508899354E+03 0.  0.
        -24    2    1    2    0    0  0.45808690322E+02  0.67254873809E+02  0.22116281313E+03  0.24921279469E+03  0.81070173076E+02 0.  0.
        -13    1    3    3    0    0  0.61397651342E+02 -0.34726641693E+01 -0.43831338696E+03  0.44260632189E+03  0.00000000000E+00 0.  1.
         14    1    3    3    0    0 -0.28273831955E+02  0.16745345249E+02 -0.31930799990E+03  0.32099441578E+03  0.00000000000E+00 0. -1.
         11    1    5    5    0    0  0.51113423378E+02  0.81159095772E+02  0.16252557129E+03  0.18871656578E+03  0.00000000000E+00 0. -1.
        -12    1    5    5    0    0 -0.53047330567E+01 -0.13904221963E+02  0.58637241845E+02  0.60496228911E+02  0.00000000000E+00 0.  1.
          5    1    4    4  501    0 -0.80804737914E+02 -0.76682836554E+02  0.66494020700E+02  0.12980211971E+03  0.41800000000E+01 0.  1.
         -5    1    4    4    0  501  0.18722282050E+01 -0.38447183336E+01  0.12527907394E+03  0.12542171209E+03  0.41800000000E+01 0.  1.
</event>
<event>
11    1  0.6455215E-009  0.1580103E+03  0.7561462E-02  0.1088964E+00
         22   -1    0    0    0    0  0.00000000000E+00  0.00000000000E+00  0.88369086224E+03  0.88369086224E+03  0.00000000000E+00 0. -1.
         22   -1    0    0    0    0 -0.00000000000E+00 -0.00000000000E+00 -0.32282747840E+03  0.32282747840E+03  0.00000000000E+00 0.  1.
         24    2    1    2    0    0 -0.54615814952E+02 -0.18462365609E+02 -0.24890165150E+03  0.26632946944E+03  0.75203776417E+02 0.  0.
         25    2    1    2    0    0  0.10260489703E+03 -0.64144951610E+02  0.65918733239E+02  0.18610606711E+03  0.12509136306E+03 0.  0.
        -24    2    1    2    0    0 -0.47989082076E+02  0.82607317219E+02  0.74384630211E+03  0.75408280408E+03  0.78782189586E+02 0.  0.
        -11    1    3    3    0    0 -0.10453100963E+02  0.26983466609E+02 -0.52356715302E+02  0.59821404423E+02  0.00000000000E+00 0.  1.
         12    1    3    3    0    0 -0.44162713990E+02 -0.45445832218E+02 -0.19654493620E+03  0.20650806502E+03  0.00000000000E+00 0. -1.
         11    1    5    5    0    0 -0.49229377266E+02  0.12022277065E+02  0.38855781885E+03  0.39184849792E+03  0.00000000000E+00 0. -1.
        -12    1    5    5    0    0  0.12402951903E+01  0.70585040155E+02  0.35528848326E+03  0.36223430616E+03  0.00000000000E+00 0.  1.
          5    1    4    4  501    0 -0.11003762935E+02  0.18991969393E+02 -0.11775183858E+02  0.25256782357E+02  0.41800000000E+01 0. -1.
         -5    1    4    4    0  501  0.11360865996E+03 -0.83136921003E+02  0.77693917097E+02  0.16084928476E+03  0.41800000000E+01 0. -1.
</event>
<event>
11    1  0.6455215E-009  0.2008282E+03  0.7561462E-02  0.1053940E+00
         22   -1    0    0    0    0  0.00000000000E+00  0.00000000000E+00  0.79525787522E+03  0.79525787522E+03  0.00000000000E+00 0.  1.
         22   -1    0    0    0    0 -0.00000000000E+00 -0.00000000000E+00 -0.10905808566E+04  0.10905808566E+04  0.00000000000E+00 0. -1.
        -24    2    1    2    0    0  0.22829740153E+02  0.15743821204E+03 -0.99626779092E+03  0.10119818864E+04  0.79055926107E+02 0.  0.
         25    2    1    2    0    0 -0.32650996802E+02 -0.12872980830E+03  0.15641084204E+02  0.18311365378E+03  0.12509402683E+03 0.  0.
         24    2    1    2    0    0  0.98212566493E+01 -0.28708403741E+02  0.68530372530E+03  0.69074319172E+03  0.81020562061E+02 0.  0.
        -11    1    5    5    0    0  0.13199040203E+02 -0.14943685893E+02  0.66834234826E+03  0.66863968091E+03  0.00000000000E+00 0.  1.
         12    1    5    5    0    0 -0.33777835535E+01 -0.13764717848E+02  0.16961377035E+02  0.22103510809E+02  0.00000000000E+00 0. -1.
         11    1    3    3    0    0  0.69679957451E+01  0.53010148036E+02 -0.58236133303E+03  0.58481052570E+03  0.00000000000E+00 0. -1.
        -12    1    3    3    0    0  0.15861744408E+02  0.10442806400E+03 -0.41390645789E+03  0.42717136066E+03  0.00000000000E+00 0.  1.
          5    1    4    4  501    0  0.37819604093E+02 -0.56744181147E+02 -0.27238390962E+02  0.73550165806E+02  0.41800000000E+01 0.  1.
         -5    1    4    4    0  501 -0.70470600895E+02 -0.71985627149E+02  0.42879475166E+02  0.10956348797E+03  0.41800000000E+01 0.  1.
</event>
<event>
11    1  0.6455215E-009  0.2412821E+03  0.7561462E-02  0.1028649E+00
         22   -1    0    0    0    0  0.00000000000E+00  0.00000000000E+00  0.48088864054E+03  0.48088864054E+03  0.00000000000E+00 0. -1.
         22   -1    0    0    0    0 -0.00000000000E+00 -0.00000000000E+00 -0.52983776515E+03  0.52983776515E+03  0.00000000000E+00 0. -1.
        -24    2    1    2    0    0 -0.44910835072E+02 -0.92629657215E+02 -0.34478407903E+03  0.36773576242E+03  0.75870239934E+02 0.  0.
         25    2    1    2    0    0  0.22961248290E+03  0.34204380520E+01 -0.11307077332E+02  0.26174245045E+03  0.12509064182E+03 0.  0.
         24    2    1    2    0    0 -0.18470164783E+03  0.89209219163E+02  0.30714203175E+03  0.38124819281E+03  0.94556720330E+02 0.  0.
        -13    1    5    5    0    0 -0.53695613109E+02  0.47903822635E+02  0.43818729465E+02  0.84250080962E+02  0.00000000000E+00 0.  1.
         14    1    5    5    0    0 -0.13100603472E+03  0.41305396528E+02  0.26332330228E+03  0.29699811185E+03  0.00000000000E+00 0. -1.
         11    1    3    3    0    0 -0.60449645671E+02 -0.94147241575E+02 -0.31116385845E+03  0.33066721876E+03  0.00000000000E+00 0. -1.
        -12    1    3    3    0    0  0.15538810599E+02  0.15175843596E+01 -0.33620220573E+02  0.37068543653E+02  0.00000000000E+00 0.  1.
          5    1    4    4  501    0  0.21496122758E+03 -0.13020529441E+02  0.27280951352E+02  0.21711652691E+03  0.41800000000E+01 0. -1.
         -5    1    4    4    0  501  0.14651255318E+02  0.16440967493E+02 -0.38588028684E+02  0.44625923545E+02  0.41800000000E+01 0. -1.
</event>
<event>
11    1  0.6455215E-009  0.1358112E+03  0.7561462E-02  0.1112328E+00
         22   -1    0    0    0    0  0.00000000000E+00  0.00000000000E+00  0.85364970865E+03  0.85364970865E+03  0.00000000000E+00 0.  1.
         22   -1    0    0    0    0 -0.00000000000E+00 -0.00000000000E+00 -0.48117335094E+03  0.48117335094E+03  0.00000000000E+00 0.  1.
        -24    2    1    2    0    0 -0.51946742813E+02  0.19924202627E+01 -0.44061115187E+03  0.45055123673E+03  0.78458880577E+02 0.  0.
         25    2    1    2    0    0  0.85000307024E+02  0.71959300844E+01  0.14223442687E+03  0.20773776852E+03  0.12509002630E+03 0.  0.
         24    2    1    2    0    0 -0.33053564210E+02 -0.91883503471E+01  0.67085308270E+03  0.67653405433E+03  0.80482943600E+02 0.  0.
        -13    1    5    5    0    0 -0.21187023462E+02 -0.43102973693E+02  0.28572893890E+03  0.28973743774E+03  0.00000000000E+00 0.  1.
         14    1    5    5    0    0 -0.11866540748E+02  0.33914623346E+02  0.38512414380E+03  0.38679661659E+03  0.00000000000E+00 0. -1.
         11    1    3    3    0    0 -0.31220608347E+02 -0.73343120763E+01 -0.50788238247E+02  0.60066327201E+02  0.00000000000E+00 0. -1.
        -12    1    3    3    0    0 -0.20726134466E+02  0.93267323390E+01 -0.38982291362E+03  0.39048490953E+03  0.00000000000E+00 0.  1.
          5    1    4    4  501    0  0.90960604558E+02 -0.77029617981E+00  0.31314028579E+02  0.96293643215E+02  0.41800000000E+01 0. -1.
         -5    1    4    4    0  501 -0.59602975342E+01  0.79662262642E+01  0.11092039829E+03  0.11144412531E+03  0.41800000000E+01 0. -1.
</event>
<event>
11    1  0.6455215E-009  0.1502575E+03  0.7561462E-02  0.1096616E+00
         22   -1    0    0    0    0  0.00000000000E+00  0.00000000000E+00  0.31308549215E+03  0.31308549215E+03  0.00000000000E+00 0.  1.
         22   -1    0    0    0    0 -0.00000000000E+00 -0.00000000000E+00 -0.22172026191E+03  0.22172026191E+03  0.00000000000E+00 0.  1.
        -24    2    1    2    0    0 -0.57078197448E+02 -0.81783935519E+01 -0.10587372226E+03  0.14487645705E+03  0.80343860970E+02 0.  0.
         25    2    1    2    0    0  0.83226974310E+02 -0.68462928433E+02  0.39845851327E+01  0.16515839816E+03  0.12509003854E+03 0.  0.
         24    2    1    2    0    0 -0.26148776862E+02  0.76641321985E+02  0.19325436736E+03  0.22477089885E+03  0.81345286896E+02 0.  0.
        -13    1    5    5    0    0 -0.53909990689E+02  0.48388145806E+02  0.10025917232E+03  0.12369155745E+03  0.00000000000E+00 0.  1.
         14    1    5    5    0    0  0.27761213827E+02  0.28253176179E+02  0.92995195045E+02  0.10107934140E+03  0.00000000000E+00 0. -1.
         13    1    3    3    0    0 -0.50130128083E+01 -0.38311472325E+02 -0.44595782606E+02  0.59005788152E+02  0.00000000000E+00 0. -1.
        -14    1    3    3    0    0 -0.52065184640E+02  0.30133078773E+02 -0.61277939655E+02  0.85870668894E+02  0.00000000000E+00 0.  1.
          5    1    4    4  501    0  0.15720206668E+02  0.24197461226E+02  0.35740394926E+02  0.46124725006E+02  0.41800000000E+01 0.  1.
         -5    1    4    4    0  501  0.67506767642E+02 -0.92660389658E+02 -0.31755809793E+02  0.11903367315E+03  0.41800000000E+01 0.  1.
</event>
<event>
11    1  0.6455215E-009  0.1374047E+03  0.7561462E-02  0.1110492E+00
         22   -1    0    0    0    0  0.00000000000E+00  0.00000000000E+00  0.81917022162E+03  0.81917022162E+03  0.00000000000E+00 0.  1.
         22   -1    0    0    0    0 -0.00000000000E+00 -0.00000000000E+00 -0.91386722360E+03  0.91386722360E+03  0.00000000000E+00 0. -1.
        -24    2    1    2    0    0  0.17792026278E+02 -0.25174697535E+02 -0.85126011100E+03  0.85633073089E+03  0.87796483377E+02 0.  0.
         25    2    1    2    0    0  0.37149804635E+01  0.76717622809E+02  0.38906397074E+02  0.15185848292E+03  0.12509155196E+03 0.  0.
         24    2    1    2    0    0 -0.21507006741E+02 -0.51542925275E+02  0.71765671194E+03  0.72484823141E+03  0.85173809954E+02 0.  0.
        -13    1    5    5    0    0 -0.12063979615E+02 -0.30112629258E+02  0.67812607672E+03  0.67890152893E+03  0.00000000000E+00 0.  1.
         14    1    5    5    0    0 -0.94430271265E+01 -0.21430296017E+02  0.39530635219E+02  0.45946702487E+02  0.00000000000E+00 0. -1.
         11    1    3    3    0    0  0.46234381124E+02  0.77622054034E+01 -0.54200268747E+03  0.54402645437E+03  0.00000000000E+00 0. -1.
        -12    1    3    3    0    0 -0.28442354846E+02 -0.32936902938E+02 -0.30925742353E+03  0.31230427652E+03  0.00000000000E+00 0.  1.
          5    1    4    4  501    0  0.15927941209E+02 -0.21373849174E+02 -0.22740867259E+02  0.35286827334E+02  0.41800000000E+01 0. -1.
         -5    1    4    4    0  501 -0.12212960745E+02  0.98091471983E+02  0.61647264333E+02  0.11657165558E+03  0.41800000000E+01 0. -1.
</event>
<event>
11    1  0.6455215E-009  0.1342892E+03  0.7561462E-02  0.1114108E+00
         22   -1    0    0    0    0  0.00000000000E+00  0.00000000000E+00  0.13086047081E+04  0.13086047081E+04  0.00000000000E+00 0. -1.
         22   -1    0    0    0    0 -0.00000000000E+00 -0.00000000000E+00 -0.12357367142E+03  0.12357367142E+03  0.00000000000E+00 0. -1.
         24    2    1    2    0    0  0.49810179676E+02 -0.45754042390E+01 -0.77313589752E+02  0.12450604270E+03  0.83799613275E+02 0.  0.
         25    2    1    2    0    0 -0.33388211390E+02  0.38117521926E+02  0.19779445040E+03  0.23945394313E+03  0.12509127920E+03 0.  0.
        -24    2    1    2    0    0 -0.16421968286E+02 -0.33542117687E+02  0.10645501760E+04  0.10682183937E+04  0.80179203395E+02 0.  0.
        -13    1    3    3    0    0  0.31322065604E+01  0.20598324349E+02  0.94025128378E+01  0.22858454270E+02  0.00000000000E+00 0.  1.
         14    1    3    3    0    0  0.46677973115E+02 -0.25173728589E+02 -0.86716102589E+02  0.10164758843E+03  0.00000000000E+00 0. -1.
         13    1    5    5    0    0 -0.40287308985E+01  0.16039955576E+02  0.68992302465E+03  0.69012121456E+03  0.00000000000E+00 0. -1.
        -14    1    5    5    0    0 -0.12393237388E+02 -0.49582073264E+02  0.37462715138E+03  0.37809717914E+03  0.00000000000E+00 0.  1.
          5    1    4    4  501    0  0.34801756525E+02  0.35316933613E+02  0.29611232901E+02  0.57902897777E+02  0.41800000000E+01 0. -1.
         -5    1    4    4    0  501 -0.68189967915E+02  0.28005883135E+01  0.16818321750E+03  0.18155104535E+03  0.41800000000E+01 0. -1.
</event>
<event>
11    1  0.6455215E-009  0.1475181E+03  0.7561462E-02  0.1099442E+00
         22   -1    0    0    0    0  0.00000000000E+00  0.00000000000E+00  0.54717693624E+03  0.54717693624E+03  0.00000000000E+00 0. -1.
         22   -1    0    0    0    0 -0.00000000000E+00 -0.00000000000E+00 -0.39965917336E+04  0.39965917336E+04  0.00000000000E+00 0.  1.
        -24    2    1    2    0    0 -0.70579973348E+02 -0.32424052957E+02 -0.37001725478E+04  0.37018840297E+04  0.81459400962E+02 0.  0.
         25    2    1    2    0    0  0.66061382253E+02  0.74759103143E+02 -0.26962088833E+03  0.31352122470E+03  0.12508838950E+03 0.  0.
         24    2    1    2    0    0  0.45185910948E+01 -0.42335050186E+02  0.52037863875E+03  0.52836341546E+03  0.81001833253E+02 0.  0.
        -13    1    5    5    0    0  0.77464556878E+01 -0.35308861975E+02  0.78566592185E+02  0.86483713596E+02  0.00000000000E+00 0.  1.
         14    1    5    5    0    0 -0.32278645930E+01 -0.70261882107E+01  0.44181204656E+03  0.44187970186E+03  0.00000000000E+00 0. -1.
         13    1    3    3    0    0  0.18000336603E+01 -0.10938007619E+02 -0.65792006823E+02  0.66719324739E+02  0.00000000000E+00 0. -1.
        -14    1    3    3    0    0 -0.72380007008E+02 -0.21486045338E+02 -0.36343805410E+04  0.36351647050E+04  0.00000000000E+00 0.  1.
          5    1    4    4  501    0  0.30297716650E+01 -0.33435620032E+02 -0.71672456840E+02  0.79256127036E+02  0.41800000000E+01 0. -1.
         -5    1    4    4    0  501  0.63031610588E+02  0.10819472318E+03 -0.19794843149E+03  0.23426509767E+03  0.41800000000E+01 0. -1.
</event>
<event>
11    1  0.6455215E-009  0.2576063E+03  0.7561462E-02  0.1019923E+00
         22   -1    0    0    0    0  0.00000000000E+00  0.00000000000E+00  0.38052757422E+03  0.38052757422E+03  0.00000000000E+00 0. -1.
         22   -1    0    0    0    0 -0.00000000000E+00 -0.00000000000E+00 -0.27700882070E+04  0.27700882070E+04  0.00000000000E+00 0.  1.
         24    2    1    2    0    0  0.22266536029E+03 -0.77747959921E+02 -0.25416466515E+04  0.25538286865E+04  0.80303492189E+02 0.  0.
         25    2    1    2    0    0 -0.14605085897E+03  0.26998021121E+02 -0.16576676846E+03  0.25531246632E+03  0.12508432110E+03 0.  0.
        -24    2    1    2    0    0 -0.76614501326E+02  0.50749938800E+02  0.31785278715E+03  0.34147462845E+03  0.84434527731E+02 0.  0.
        -13    1    3    3    0    0  0.16601731857E+03 -0.21711741960E+02 -0.15623988474E+04  0.15713444270E+04  0.00000000000E+00 0.  1.
         14    1    3    3    0    0  0.56648041720E+02 -0.56036217962E+02 -0.97924780405E+03  0.98248425946E+03  0.00000000000E+00 0. -1.
         11    1    5    5    0    0 -0.95107931583E+02  0.39369573818E+02  0.26856827049E+03  0.28761849368E+03  0.00000000000E+00 0. -1.
        -12    1    5    5    0    0  0.18493430257E+02  0.11380364982E+02  0.49284516666E+02  0.53856134774E+02  0.00000000000E+00 0.  1.
          5    1    4    4  501    0 -0.21082582808E+02  0.23676631832E+02 -0.11661455620E+03  0.12091933390E+03  0.41800000000E+01 0. -1.
         -5    1    4    4    0  501 -0.12496827616E+03  0.33213892892E+01 -0.49152212263E+02  0.13439313243E+03  0.41800000000E+01 0. -1.
</event>
<event>
11    1  0.6455215E-009  0.1883575E+03  0.7561462E-02  0.1063076E+00
         22   -1    0    0    0    0  0.00000000000E+00  0.00000000000E+00  0.19788595825E+04  0.19788595825E+04  0.00000000000E+00 0. -1.
         22   -1    0    0    0    0 -0.00000000000E+00 -0.00000000000E+00 -0.12824964213E+04  0.12824964213E+04  0.00000000000E+00 0. -1.
        -24    2    1    2    0    0 -0.34089267012E+02 -0.44473037688E+02 -0.11245215216E+04  0.11287701145E+04  0.80208413734E+02 0.  0.
         25    2    1    2    0    0  0.89158166565E+02  0.17273185492E+03 -0.64784551348E+02  0.24009312176E+03  0.12514869816E+03 0.  0.
         24    2    1    2    0    0 -0.55068899553E+02 -0.12825881724E+03  0.18856692342E+04  0.18924927675E+04  0.79356828779E+02 0.  0.
        -11    1    5    5    0    0 -0.42322180481E+02 -0.38747677572E+02  0.40241313404E+03  0.40648355431E+03  0.00000000000E+00 0.  1.
         12    1    5    5    0    0 -0.12746719072E+02 -0.89511139665E+02  0.14832561002E+04  0.14860092132E+04  0.00000000000E+00 0. -1.
         11    1    3    3    0    0 -0.55529131876E+02 -0.13955225692E+02 -0.53100092368E+03  0.53407884601E+03  0.00000000000E+00 0. -1.
        -12    1    3    3    0    0  0.21439864864E+02 -0.30517811996E+02 -0.59352059793E+03  0.59469126850E+03  0.00000000000E+00 0.  1.
          5    1    4    4  501    0  0.31163956217E+02  0.15210888390E+03 -0.68722866263E+01  0.15547670389E+03  0.41800000000E+01 0. -1.
         -5    1    4    4    0  501  0.57994210348E+02  0.20622971020E+02 -0.57912264721E+02  0.84616417868E+02  0.41800000000E+01 0. -1.
</event>
<event>
11    1  0.6455215E-009  0.1504625E+03  0.7561462E-02  0.1096407E+00
         22   -1    0    0    0    0  0.00000000000E+00  0.00000000000E+00  0.13362463127E+04  0.13362463127E+04  0.00000000000E+00 0. -1.
         22   -1    0    0    0    0 -0.00000000000E+00 -0.00000000000E+00 -0.64354424376E+03  0.64354424376E+03  0.00000000000E+00 0. -1.
         24    2    1    2    0    0 -0.79819938692E+02 -0.22176294026E+02 -0.50198548571E+03  0.51514958470E+03  0.80787722634E+02 0.  0.
         25    2    1    2    0    0  0.78772338028E+02  0.46571357114E+02 -0.88714953924E+02  0.17858801655E+03  0.12509741829E+03 0.  0.
        -24    2    1    2    0    0  0.10476006638E+01 -0.24395063088E+02  0.12834025086E+04  0.12860529552E+04  0.78828852658E+02 0.  0.
        -13    1    3    3    0    0 -0.24699675123E+02 -0.23543411242E+02 -0.54645021843E+02  0.64423944122E+02  0.00000000000E+00 0.  1.
         14    1    3    3    0    0 -0.55120263569E+02  0.13671172168E+01 -0.44734046386E+03  0.45072564058E+03  0.00000000000E+00 0. -1.
         11    1    5    5    0    0 -0.35709054619E+02 -0.21268502596E+02  0.47708583663E+03  0.47889287038E+03  0.00000000000E+00 0. -1.
        -12    1    5    5    0    0  0.36756655283E+02 -0.31265604924E+01  0.80631667199E+03  0.80716008487E+03  0.00000000000E+00 0.  1.
          5    1    4    4  501    0  0.82202800126E+02  0.17549769932E+02 -0.11262712483E+03  0.14059742679E+03  0.41800000000E+01 0. -1.
         -5    1    4    4    0  501 -0.34304620982E+01  0.29021587181E+02  0.23912170904E+02  0.37990589757E+02  0.41800000000E+01 0. -1.
</event>
<event>
11    1  0.6455215E-009  0.1340033E+03  0.7561462E-02  0.1114446E+00
         22   -1    0    0    0    0  0.00000000000E+00  0.00000000000E+00  0.79895830131E+03  0.79895830131E+03  0.00000000000E+00 0.  1.
         22   -1    0    0    0    0 -0.00000000000E+00 -0.00000000000E+00 -0.62579906520E+03  0.62579906520E+03  0.00000000000E+00 0.  1.
         24    2    1    2    0    0 -0.18830289135E+02 -0.44495075120E+02 -0.58305588491E+03  0.59051451856E+03  0.80117664728E+02 0.  0.
         25    2    1    2    0    0  0.53963516149E+01  0.40312502538E+02  0.81902416798E+02  0.15495589527E+03  0.12509638336E+03 0.  0.
        -24    2    1    2    0    0  0.13433937521E+02  0.41825725818E+01  0.67431270423E+03  0.67928695267E+03  0.80840437895E+02 0.  0.
        -13    1    3    3    0    0 -0.12466105987E+02 -0.64534165712E+02 -0.32356597438E+03  0.33017419965E+03  0.00000000000E+00 0.  1.
         14    1    3    3    0    0 -0.63641831483E+01  0.20039090592E+02 -0.25948991054E+03  0.26034031891E+03  0.00000000000E+00 0. -1.
         13    1    5    5    0    0  0.30090548082E+02 -0.30822844013E+02  0.33033107428E+03  0.33312776442E+03  0.00000000000E+00 0. -1.
        -14    1    5    5    0    0 -0.16656610561E+02  0.35005416595E+02  0.34398162995E+03  0.34615918825E+03  0.00000000000E+00 0.  1.
          5    1    4    4  501    0  0.61427737728E+02 -0.46129719370E+00  0.31464922423E+02  0.69145451770E+02  0.41800000000E+01 0.  1.
         -5    1    4    4    0  501 -0.56031386113E+02  0.40773799732E+02  0.50437494375E+02  0.85810443497E+02  0.41800000000E+01 0.  1.
</event>
<event>
11    1  0.6455215E-009  0.2104767E+03  0.7561462E-02  0.1047353E+00
         22   -1    0    0    0    0  0.00000000000E+00  0.00000000000E+00  0.36159324912E+03  0.36159324912E+03  0.00000000000E+00 0. -1.
         22   -1    0    0    0    0 -0.00000000000E+00 -0.00000000000E+00 -0.13538722336E+04  0.13538722336E+04  0.00000000000E+00 0.  1.
         24    2    1    2    0    0  0.36821135161E+02 -0.16716279344E+03 -0.11446813046E+04  0.11601419051E+04  0.79591175984E+02 0.  0.
         25    2    1    2    0    0  0.25184943325E+01  0.16001221054E+03 -0.14153152582E+03  0.24756743224E+03  0.12509280701E+03 0.  0.
        -24    2    1    2    0    0 -0.39339629494E+02  0.71505828933E+01  0.29393384593E+03  0.30775614543E+03  0.81963418578E+02 0.  0.
        -13    1    3    3    0    0  0.35921275730E+02 -0.10210277191E+03 -0.91636660435E+03  0.92273672716E+03  0.00000000000E+00 0.  1.
         14    1    3    3    0    0  0.89985943083E+00 -0.65060021532E+02 -0.22831470026E+03  0.23740517792E+03  0.00000000000E+00 0. -1.
         13    1    5    5    0    0 -0.48196400472E+02 -0.25630023449E+02  0.21513698652E+03  0.22195430631E+03  0.00000000000E+00 0. -1.
        -14    1    5    5    0    0  0.88567709778E+01  0.32780606343E+02  0.78796859410E+02  0.85801839125E+02  0.00000000000E+00 0.  1.
          5    1    4    4  501    0  0.44776525935E+02  0.90751121233E+01 -0.39085750154E+02  0.60269919528E+02  0.41800000000E+01 0. -1.
         -5    1    4    4    0  501 -0.42258031603E+02  0.15093709842E+03 -0.10244577567E+03  0.18729751271E+03  0.41800000000E+01 0. -1.
</event>
<event>
11    1  0.6455215E-009  0.1941703E+03  0.7561462E-02  0.1058724E+00
         22   -1    0    0    0    0  0.00000000000E+00  0.00000000000E+00  0.39403353524E+03  0.39403353524E+03  0.00000000000E+00 0.  1.
         22   -1    0    0    0    0 -0.00000000000E+00 -0.00000000000E+00 -0.41836839668E+03  0.41836839668E+03  0.00000000000E+00 0.  1.
        -24    2    1    2    0    0 -0.19107880022E+02 -0.82809464634E+02 -0.31668659775E+03  0.33664929294E+03  0.76287788855E+02 0.  0.
         25    2    1    2    0    0  0.39539081651E+02  0.19488722033E+03  0.19946031988E+03  0.30818632063E+03  0.12510004554E+03 0.  0.
         24    2    1    2    0    0 -0.20431201629E+02 -0.11207775569E+03  0.92891416433E+02  0.16756631835E+03  0.80441273465E+02 0.  0.
        -13    1    5    5    0    0 -0.28928369162E+02 -0.68727915499E+02  0.97948807341E+02  0.12310298847E+03  0.00000000000E+00 0.  1.
         14    1    5    5    0    0  0.84971675326E+01 -0.43349840193E+02 -0.50573909080E+01  0.44463329876E+02  0.00000000000E+00 0. -1.
         11    1    3    3    0    0  0.98690262733E+01  0.52571089075E+01 -0.65661512099E+01  0.12967236227E+02  0.00000000000E+00 0. -1.
        -12    1    3    3    0    0 -0.28976906295E+02 -0.88066573541E+02 -0.31012044654E+03  0.32368205671E+03  0.00000000000E+00 0.  1.
          5    1    4    4  501    0 -0.39298911048E+02  0.75821409559E+02  0.40970933272E+02  0.94812342711E+02  0.41800000000E+01 0.  1.
         -5    1    4    4    0  501  0.78837992699E+02  0.11906581077E+03  0.15848938661E+03  0.21337397792E+03  0.41800000000E+01 0.  1.
</event>
<event>
11    1  0.6455215E-009  0.1314530E+03  0.7561462E-02  0.1117496E+00
         22   -1    0    0    0    0  0.00000000000E+00  0.00000000000E+00  0.90609002236E+03  0.90609002236E+03  0.00000000000E+00 0.  1.
         22   -1    0    0    0    0 -0.00000000000E+00 -0.00000000000E+00 -0.89049981448E+03  0.89049981448E+03  0.00000000000E+00 0.  1.
        -24    2    1    2    0    0  0.20657318675E+02 -0.35817197062E+02 -0.67325141480E+03  0.67941358012E+03  0.81398703268E+02 0.  0.
         25    2    1    2    0    0  0.78864632803E+01  0.42424619843E+02 -0.19147764890E+03  0.23275150564E+03  0.12509008224E+03 0.  0.
         24    2    1    2    0    0 -0.28543781956E+02 -0.66074227808E+01  0.88031927158E+03  0.88442475108E+03  0.79916924884E+02 0.  0.
        -11    1    5    5    0    0 -0.17882769484E+02 -0.38635709519E+02  0.67569349986E+03  0.67703339448E+03  0.00000000000E+00 0.  1.
         12    1    5    5    0    0 -0.10661012471E+02  0.32028286738E+02  0.20462577173E+03  0.20739135660E+03  0.00000000000E+00 0. -1.
         13    1    3    3    0    0  0.18509561127E+02 -0.36345158163E+02 -0.13200317366E+03  0.13816082017E+03  0.00000000000E+00 0. -1.
        -14    1    3    3    0    0  0.21477575480E+01  0.52796110118E+00 -0.54124824114E+03  0.54125275994E+03  0.00000000000E+00 0.  1.
          5    1    4    4  501    0  0.21185869703E+02  0.77106594542E+02 -0.72422636355E+02  0.10796656266E+03  0.41800000000E+01 0.  1.
         -5    1    4    4    0  501 -0.13299406423E+02 -0.34681974699E+02 -0.11905501255E+03  0.12478494297E+03  0.41800000000E+01 0.  1.
</event>
<event>
11    1  0.6455215E-009  0.1473239E+03  0.7561462E-02  0.1099645E+00
         22   -1    0    0    0    0  0.00000000000E+00  0.00000000000E+00  0.15605220622E+04  0.15605220622E+04  0.00000000000E+00 0. -1.
         22   -1    0    0    0    0 -0.00000000000E+00 -0.00000000000E+00 -0.68972496676E+02  0.68972496676E+02  0.00000000000E+00 0.  1.
         24    2    1    2    0    0 -0.26306383991E+02 -0.73005515621E+02 -0.52561949780E+01  0.11110344521E+03  0.79337990913E+02 0.  0.
         25    2    1    2    0    0  0.57469861114E+02  0.64487391070E+02  0.65704360003E+03  0.67440003014E+03  0.12509076616E+03 0.  0.
        -24    2    1    2    0    0 -0.31163477122E+02  0.85181245505E+01  0.83976216046E+03  0.84399108351E+03  0.77953461427E+02 0.  0.
        -11    1    3    3    0    0 -0.19412151914E+02 -0.69856450921E+02 -0.34928584687E+02  0.80478328794E+02  0.00000000000E+00 0.  1.
         12    1    3    3    0    0 -0.68942320777E+01 -0.31490646998E+01  0.29672389709E+02  0.30625116416E+02  0.00000000000E+00 0. -1.
         13    1    5    5    0    0  0.18570350158E+01  0.14201755624E+02  0.70433480090E+03  0.70448041151E+03  0.00000000000E+00 0. -1.
        -14    1    5    5    0    0 -0.33020512138E+02 -0.56836310738E+01  0.13542735956E+03  0.13951067200E+03  0.00000000000E+00 0.  1.
          5    1    4    4  501    0 -0.87402490664E+01 -0.31720068259E+02  0.19536567276E+03  0.19816097794E+03  0.41800000000E+01 0. -1.
         -5    1    4    4    0  501  0.66210110180E+02  0.96207459329E+02  0.46167792726E+03  0.47623905220E+03  0.41800000000E+01 0. -1.
</event>
<event>
11    1  0.6455215E-009  0.2070781E+03  0.7561462E-02  0.1049628E+00
         22   -1    0    0    0    0  0.00000000000E+00  0.00000000000E+00  0.36200424839E+03  0.36200424839E+03  0.00000000000E+00 0.  1.
         22   -1    0    0    0    0 -0.00000000000E+00 -0.00000000000E+00 -0.16439726455E+04  0.16439726455E+04  0.00000000000E+00 0.  1.
        -24    2    1    2    0    0  0.29088445997E+02 -0.19364016986E+02 -0.12641593688E+04  0.12679537477E+04  0.91578893222E+02 0.  0.
         25    2    1    2    0    0 -0.17789938855E+03 -0.49079022928E+02 -0.31757195313E+03  0.38801598087E+03  0.12509001981E+03 0.  0.
         24    2    1    2    0    0  0.14881094255E+03  0.68443039914E+02  0.29976292481E+03  0.35000716536E+03  0.76276197991E+02 0.  0.
        -11    1    5    5    0    0  0.13164839719E+03  0.73500359848E+02  0.29530197190E+03  0.33156727520E+03  0.00000000000E+00 0.  1.
         12    1    5    5    0    0  0.17162545360E+02 -0.50573199343E+01  0.44609529115E+01  0.18439890157E+02  0.00000000000E+00 0. -1.
         13    1    3    3    0    0 -0.54790356458E+01 -0.23483627269E+02 -0.87010585952E+02  0.90290324227E+02  0.00000000000E+00 0. -1.
        -14    1    3    3    0    0  0.34567481643E+02  0.41196102830E+01 -0.11771487828E+04  0.11776634234E+04  0.00000000000E+00 0.  1.
          5    1    4    4  501    0  0.15399917107E+02 -0.46652205607E+01 -0.63663137488E+02  0.65798094232E+02  0.41800000000E+01 0.  1.
         -5    1    4    4    0  501 -0.19329930566E+03 -0.44413802367E+02 -0.25390881564E+03  0.32221788664E+03  0.41800000000E+01 0.  1.
</event>
<event>
11    1  0.6455215E-009  0.1615993E+03  0.7561462E-02  0.1085583E+00
         22   -1    0    0    0    0  0.00000000000E+00  0.00000000000E+00  0.55561769325E+03  0.55561769325E+03  0.00000000000E+00 0. -1.
         22   -1    0    0    0    0 -0.00000000000E+00 -0.00000000000E+00 -0.12829506297E+03  0.12829506297E+03  0.00000000000E+00 0. -1.
        -24    2    1    2    0    0  0.68628160956E+02 -0.28596292896E+02 -0.37259638719E+01  0.10920863936E+03  0.79906643409E+02 0.  0.
         25    2    1    2    0    0 -0.12317000910E+03 -0.54361558673E+02  0.81217883077E+02  0.20092059435E+03  0.12508681185E+03 0.  0.
         24    2    1    2    0    0  0.54541848143E+02  0.82957851569E+02  0.34983071108E+03  0.37378352251E+03  0.86462575418E+02 0.  0.
        -11    1    5    5    0    0  0.45720967129E+02 -0.22196203005E+01  0.13293115210E+03  0.14059169516E+03  0.00000000000E+00 0.  1.
         12    1    5    5    0    0  0.88208810146E+01  0.85177471869E+02  0.21689955898E+03  0.23319182735E+03  0.00000000000E+00 0. -1.
         11    1    3    3    0    0  0.83696199812E+02 -0.92037187475E+01  0.96462945600E+00  0.84206251619E+02  0.00000000000E+00 0. -1.
        -12    1    3    3    0    0 -0.15068038856E+02 -0.19392574148E+02 -0.46905933279E+01  0.25002387743E+02  0.00000000000E+00 0.  1.
          5    1    4    4  501    0 -0.90916114162E+02 -0.86969742549E+02  0.25167273857E+02  0.12837577656E+03  0.41800000000E+01 0.  1.
         -5    1    4    4    0  501 -0.32253894937E+02  0.32608183876E+02  0.56050609220E+02  0.72544817791E+02  0.41800000000E+01 0.  1.
</event>
<event>
11    1  0.6455215E-009  0.1664467E+03  0.7561462E-02  0.1081166E+00
         22   -1    0    0    0    0  0.00000000000E+00  0.00000000000E+00  0.67449307037E+03  0.67449307037E+03  0.00000000000E+00 0. -1.
         22   -1    0    0    0    0 -0.00000000000E+00 -0.00000000000E+00 -0.92451077744E+03  0.92451077744E+03  0.00000000000E+00 0. -1.
         24    2    1    2    0    0  0.16990338731E+02  0.43290241867E+02 -0.85781005880E+03  0.86271627280E+03  0.79237325311E+02 0.  0.
         25    2    1    2    0    0 -0.43213386643E+02  0.68368845818E+02  0.43226406595E+02  0.15510640548E+03  0.12509108254E+03 0.  0.
        -24    2    1    2    0    0  0.26223047912E+02 -0.11165908768E+03  0.56456594513E+03  0.58118116952E+03  0.76690581549E+02 0.  0.
        -13    1    3    3    0    0 -0.28458907941E+02 -0.84524938666E+00 -0.25271884180E+03  0.25431759059E+03  0.00000000000E+00 0.  1.
         14    1    3    3    0    0  0.45449246671E+02  0.44135491253E+02 -0.60509121701E+03  0.60839868221E+03  0.00000000000E+00 0. -1.
         13    1    5    5    0    0  0.10505052104E+00 -0.40559504737E+02  0.37277114853E+03  0.37497121708E+03  0.00000000000E+00 0. -1.
        -14    1    5    5    0    0  0.26117997391E+02 -0.71099582948E+02  0.19179479660E+03  0.20620995244E+03  0.00000000000E+00 0.  1.
          5    1    4    4  501    0 -0.25004406616E+02  0.55073854552E+01  0.77063078072E+02  0.81312619234E+02  0.41800000000E+01 0. -1.
         -5    1    4    4    0  501 -0.18208980027E+02  0.62861460363E+02 -0.33836671476E+02  0.73793786250E+02  0.41800000000E+01 0. -1.
</event>
<event>
11    1  0.6455215E-009  0.2392820E+03  0.7561462E-02  0.1029769E+00
         22   -1    0    0    0    0  0.00000000000E+00  0.00000000000E+00  0.24500563653E+04  0.24500563653E+04  0.00000000000E+00 0. -1.
         22   -1    0    0    0    0 -0.00000000000E+00 -0.00000000000E+00 -0.34980158006E+03  0.34980158006E+03  0.00000000000E+00 0.  1.
         24    2    1    2    0    0 -0.44754032406E+02  0.11510851557E+02 -0.31203081859E+03  0.32523400688E+03  0.79237013844E+02 0.  0.
         25    2    1    2    0    0  0.82240988421E+02 -0.20764510888E+03  0.63941359696E+03  0.68875057793E+03  0.12509012428E+03 0.  0.
        -24    2    1    2    0    0 -0.37486956015E+02  0.19613425732E+03  0.17728720069E+04  0.17858733606E+04  0.79966170732E+02 0.  0.
        -11    1    3    3    0    0 -0.24219481899E+02  0.37680822224E+02 -0.25743187454E+03  0.26129982338E+03  0.00000000000E+00 0.  1.
         12    1    3    3    0    0 -0.20534550507E+02 -0.26169970668E+02 -0.54598944043E+02  0.63934183500E+02  0.00000000000E+00 0. -1.
         11    1    5    5    0    0 -0.40588125364E+02  0.14672028377E+03  0.15556308972E+04  0.15630616513E+04  0.00000000000E+00 0. -1.
        -12    1    5    5    0    0  0.31011693488E+01  0.49413973552E+02  0.21724110971E+03  0.22281170926E+03  0.00000000000E+00 0.  1.
          5    1    4    4  501    0  0.89282625588E+02 -0.12582448213E+03  0.27670804979E+03  0.31684066145E+03  0.41800000000E+01 0.  1.
         -5    1    4    4    0  501 -0.70416371673E+01 -0.81820626753E+02  0.36270554718E+03  0.37190991647E+03  0.41800000000E+01 0.  1.
</event>
<event>
11    1  0.6455215E-009  0.1454925E+03  0.7561462E-02  0.1101576E+00
         22   -1    0    0    0    0  0.00000000000E+00  0.00000000000E+00  0.36819639547E+03  0.36819639547E+03  0.00000000000E+00 0.  1.
         22   -1    0    0    0    0 -0.00000000000E+00 -0.00000000000E+00 -0.33897057798E+04  0.33897057798E+04  0.00000000000E+00 0. -1.
         24    2    1    2    0    0  0.62836789767E+02  0.39284673041E+02 -0.31991026996E+04  0.32010296863E+04  0.82711683121E+02 0.  0.
         25    2    1    2    0    0 -0.60048992780E+02 -0.55433175227E+02 -0.15456885165E+03  0.21498351937E+03  0.12509062815E+03 0.  0.
        -24    2    1    2    0    0 -0.27877969863E+01  0.16148502186E+02  0.33216216687E+03  0.34188896962E+03  0.79295753450E+02 0.  0.
        -13    1    3    3    0    0  0.21365565745E+01 -0.18501115162E+02 -0.23296971762E+03  0.23371295528E+03  0.00000000000E+00 0.  1.
         14    1    3    3    0    0  0.60700233192E+02  0.57785788203E+02 -0.29661329820E+04  0.29673167311E+04  0.00000000000E+00 0. -1.
         11    1    5    5    0    0  0.28225488173E+02 -0.11083388599E+02  0.67111918572E+02  0.73644614874E+02  0.00000000000E+00 0. -1.
        -12    1    5    5    0    0 -0.31013285159E+02  0.27231890785E+02  0.26505024830E+03  0.26824435475E+03  0.00000000000E+00 0.  1.
          5    1    4    4  501    0 -0.66007124526E+02 -0.84370345872E+02 -0.15063299448E+03  0.18488663331E+03  0.41800000000E+01 0. -1.
         -5    1    4    4    0  501  0.59581317458E+01  0.28937170646E+02 -0.39358571713E+01  0.30096886061E+02  0.41800000000E+01 0. -1.
</event>
<event>
11    1  0.6455215E-009  0.1600073E+03  0.7561462E-02  0.1087070E+00
         22   -1    0    0    0    0  0.00000000000E+00  0.00000000000E+00  0.92360759428E+03  0.92360759428E+03  0.00000000000E+00 0. -1.
         22   -1    0    0    0    0 -0.00000000000E+00 -0.00000000000E+00 -0.58090207927E+03  0.58090207927E+03  0.00000000000E+00 0. -1.
         24    2    1    2    0    0  0.47841627149E+02  0.86164633805E+02 -0.53757531027E+03  0.55245695101E+03  0.80674054683E+02 0.  0.
         25    2    1    2    0    0 -0.12607653221E+03 -0.11422209048E+03  0.34689938300E+03  0.40611444689E+03  0.12509110329E+03 0.  0.
        -24    2    1    2    0    0  0.78234905057E+02  0.28057456674E+02  0.53338144227E+03  0.54593827564E+03  0.81516357909E+02 0.  0.
        -11    1    3    3    0    0 -0.15451101859E+02  0.48717087116E+02 -0.16662286708E+03  0.17428502792E+03  0.00000000000E+00 0.  1.
         12    1    3    3    0    0  0.63292729008E+02  0.37447546689E+02 -0.37095244319E+03  0.37817192308E+03  0.00000000000E+00 0. -1.
         11    1    5    5    0    0  0.49967261287E+02  0.17684122720E+02  0.49153463867E+03  0.49438421941E+03  0.00000000000E+00 0. -1.
        -12    1    5    5    0    0  0.28267643769E+02  0.10373333954E+02  0.41846803608E+02  0.51554056231E+02  0.00000000000E+00 0.  1.
          5    1    4    4  501    0 -0.68981083553E+02 -0.14897806074E+02  0.23694519227E+03  0.24726672048E+03  0.41800000000E+01 0.  1.
         -5    1    4    4    0  501 -0.57095448652E+02 -0.99324284406E+02  0.10995419073E+03  0.15884772642E+03  0.41800000000E+01 0.  1.
</event>
<event>
11    1  0.6455215E-009  0.1977143E+03  0.7561462E-02  0.1056152E+00
         22   -1    0    0    0    0  0.00000000000E+00  0.00000000000E+00  0.46955739135E+03  0.46955739135E+03  0.00000000000E+00 0. -1.
         22   -1    0    0    0    0 -0.00000000000E+00 -0.00000000000E+00 -0.53346957929E+03  0.53346957929E+03  0.00000000000E+00 0.  1.
         24    2    1    2    0    0 -0.66293355740E+02 -0.14057057940E+03 -0.44907750574E+03  0.48186591416E+03  0.79807620286E+02 0.  0.
         25    2    1    2    0    0  0.24457340734E+02  0.13523666710E+03  0.80866436682E+02  0.20266684072E+03  0.12508936847E+03 0.  0.
        -24    2    1    2    0    0  0.41836015006E+02  0.53339123025E+01  0.30429888112E+03  0.31849421576E+03  0.84036025924E+02 0.  0.
        -13    1    3    3    0    0 -0.50671247333E+02 -0.11576406936E+03 -0.24476626559E+03  0.27546219311E+03  0.00000000000E+00 0.  1.
         14    1    3    3    0    0 -0.15622108407E+02 -0.24806510043E+02 -0.20431124015E+03  0.20640372105E+03  0.00000000000E+00 0. -1.
         13    1    5    5    0    0  0.36159733131E+02  0.14849183455E+02  0.30490250229E+03  0.30739804888E+03  0.00000000000E+00 0. -1.
        -14    1    5    5    0    0  0.56762818753E+01 -0.95152711524E+01 -0.60362117495E+00  0.11096166886E+02  0.00000000000E+00 0.  1.
          5    1    4    4  501    0 -0.18612995089E+02  0.56156368289E+02  0.94426588205E+02  0.11150710401E+03  0.41800000000E+01 0.  1.
         -5    1    4    4    0  501  0.43070335823E+02  0.79080298808E+02 -0.13560151522E+02  0.91159736708E+02  0.41800000000E+01 0.  1.
</event>
<event>
11    1  0.6455215E-009  0.1880855E+03  0.7561462E-02  0.1063284E+00
         22   -1    0    0    0    0  0.00000000000E+00  0.00000000000E+00  0.44244002345E+03  0.44244002345E+03  0.00000000000E+00 0. -1.
         22   -1    0    0    0    0 -0.00000000000E+00 -0.00000000000E+00 -0.50180375103E+03  0.50180375103E+03  0.00000000000E+00 0. -1.
        -24    2    1    2    0    0 -0.10198776526E+03  0.81079613663E+02 -0.30649752760E+03  0.34304699089E+03  0.82250200688E+02 0.  0.
         25    2    1    2    0    0  0.12450245520E+03 -0.13189280290E+03 -0.99570641079E+02  0.24178261840E+03  0.12509176307E+03 0.  0.
         24    2    1    2    0    0 -0.22514689940E+02  0.50813189233E+02  0.34670444111E+03  0.35941416519E+03  0.76718193381E+02 0.  0.
        -13    1    5    5    0    0 -0.28418390540E+02  0.10882204201E+02  0.41014374461E+02  0.51070600169E+02  0.00000000000E+00 0.  1.
         14    1    5    5    0    0  0.59037006008E+01  0.39930985031E+02  0.30569006665E+03  0.30834356502E+03  0.00000000000E+00 0. -1.
         13    1    3    3    0    0 -0.35316641998E+02 -0.10852208532E+02 -0.11066182394E+03  0.11666651151E+03  0.00000000000E+00 0. -1.
        -14    1    3    3    0    0 -0.66671123266E+02  0.91931822194E+02 -0.19583570367E+03  0.22638047937E+03  0.00000000000E+00 0.  1.
          5    1    4    4  501    0  0.52296122187E+02 -0.12896422078E+03 -0.96368814185E+02  0.16932535364E+03  0.41800000000E+01 0.  1.
         -5    1    4    4    0  501  0.72206333016E+02 -0.29285821110E+01 -0.32018268940E+01  0.72457264759E+02  0.41800000000E+01 0.  1.
</event>
<event>
11    1  0.6455215E-009  0.1343509E+03  0.7561462E-02  0.1114036E+00
         22   -1    0    0    0    0  0.00000000000E+00  0.00000000000E+00  0.17558772291E+03  0.17558772291E+03  0.00000000000E+00 0.  1.
         22   -1    0    0    0    0 -0.00000000000E+00 -0.00000000000E+00 -0.95944730109E+03  0.95944730109E+03  0.00000000000E+00 0.  1.
        -24    2    1    2    0    0 -0.23831789171E+02 -0.80587135449E+01 -0.80126781262E+03  0.80559133268E+03  0.79463140552E+02 0.  0.
         25    2    1    2    0    0  0.56191025689E+02  0.41794237928E+02 -0.10363416092E+03  0.17689575378E+03  0.12509148135E+03 0.  0.
         24    2    1    2    0    0 -0.32359236518E+02 -0.33735524383E+02  0.12104239536E+03  0.15254793754E+03  0.80214749142E+02 0.  0.
        -13    1    5    5    0    0 -0.55009115934E+02 -0.26575644284E+02  0.11111524783E+03  0.12680246845E+03  0.00000000000E+00 0.  1.
         14    1    5    5    0    0  0.22649879416E+02 -0.71598800994E+01  0.99271475311E+01  0.25745469090E+02  0.00000000000E+00 0. -1.
         13    1    3    3    0    0 -0.20149494031E+02  0.32790041631E+02 -0.26809743379E+03  0.27084575490E+03  0.00000000000E+00 0. -1.
        -14    1    3    3    0    0 -0.36822951401E+01 -0.40848755176E+02 -0.53317037882E+03  0.53474557778E+03  0.00000000000E+00 0.  1.
          5    1    4    4  501    0  0.79602363878E+02  0.46166944656E+02 -0.26193632618E+02  0.95767958648E+02  0.41800000000E+01 0.  1.
         -5    1    4    4    0  501 -0.23411338189E+02 -0.43727067281E+01 -0.77440528302E+02  0.81127795136E+02  0.41800000000E+01 0.  1.
</event>
<event>
11    1  0.6455215E-009  0.1645412E+03  0.7561462E-02  0.1082882E+00
         22   -1    0    0    0    0  0.00000000000E+00  0.00000000000E+00  0.79457037061E+03  0.79457037061E+03  0.00000000000E+00 0. -1.
         22   -1    0    0    0    0 -0.00000000000E+00 -0.00000000000E+00 -0.10380001795E+03  0.10380001795E+03  0.00000000000E+00 0.  1.
         24    2    1    2    0    0  0.11057452095E+03  0.56097907418E+01  0.26095477965E+01  0.13659049308E+03  0.79949725598E+02 0.  0.
         25    2    1    2    0    0 -0.96616407447E+02 -0.41783949048E+01  0.15179239407E+03  0.21918189368E+03  0.12509029717E+03 0.  0.
        -24    2    1    2    0    0 -0.13958113505E+02 -0.14313958369E+01  0.53636841079E+03  0.54259800180E+03  0.80775253834E+02 0.  0.
        -13    1    3    3    0    0  0.10204234371E+03  0.19837322724E+02 -0.22629559575E+02  0.10638729365E+03  0.00000000000E+00 0.  1.
         14    1    3    3    0    0  0.85321772381E+01 -0.14227531982E+02  0.25239107371E+02  0.30203199427E+02  0.00000000000E+00 0. -1.
         13    1    5    5    0    0 -0.23423479671E+02 -0.23027242485E+02  0.48460839314E+03  0.48572029812E+03  0.00000000000E+00 0. -1.
        -14    1    5    5    0    0  0.94653661662E+01  0.21595846648E+02  0.51760017650E+02  0.56877703683E+02  0.00000000000E+00 0.  1.
          5    1    4    4  501    0 -0.91182058177E+02 -0.18165855433E+02  0.32052089077E+02  0.98432590392E+02  0.41800000000E+01 0. -1.
         -5    1    4    4    0  501 -0.54343492700E+01  0.13987460529E+02  0.11974030500E+03  0.12074930329E+03  0.41800000000E+01 0. -1.
</event>
<event>
11    1  0.6455215E-009  0.1300194E+03  0.7561462E-02  0.1119245E+00
         22   -1    0    0    0    0  0.00000000000E+00  0.00000000000E+00  0.14771519806E+04  0.14771519806E+04  0.00000000000E+00 0. -1.
         22   -1    0    0    0    0 -0.00000000000E+00 -0.00000000000E+00 -0.23590635962E+03  0.23590635962E+03  0.00000000000E+00 0. -1.
        -24    2    1    2    0    0  0.17541628622E+02  0.11933394312E+02 -0.19720559534E+03  0.21074721795E+03  0.71233618529E+02 0.  0.
         25    2    1    2    0    0  0.16272551897E+02  0.17766726745E+01  0.10063699102E+03  0.16137629725E+03  0.12508618166E+03 0.  0.
         24    2    1    2    0    0 -0.33814180519E+02 -0.13710066986E+02  0.13378142253E+04  0.13409348250E+04  0.83832802690E+02 0.  0.
        -13    1    5    5    0    0 -0.24736013965E+02  0.33982978639E+02  0.53081905834E+03  0.53248059676E+03  0.00000000000E+00 0.  1.
         14    1    5    5    0    0 -0.90781665538E+01 -0.47693045625E+02  0.80699516692E+03  0.80845422823E+03  0.00000000000E+00 0. -1.
         13    1    3    3    0    0  0.44763626102E+02  0.61515377756E+01 -0.10205092227E+03  0.11160651583E+03  0.00000000000E+00 0. -1.
        -14    1    3    3    0    0 -0.27221997480E+02  0.57818565361E+01 -0.95154673066E+02  0.99140702126E+02  0.00000000000E+00 0.  1.
          5    1    4    4  501    0 -0.16523905781E+02 -0.56489863280E+02  0.43153069950E+02  0.73101326675E+02  0.41800000000E+01 0. -1.
         -5    1    4    4    0  501  0.32796457678E+02  0.58266535954E+02  0.57483921068E+02  0.88274970573E+02  0.41800000000E+01 0. -1.
</event>
<event>
11    1  0.6455215E-009  0.1295414E+03  0.7561462E-02  0.1119834E+00
         22   -1    0    0    0    0  0.00000000000E+00  0.00000000000E+00  0.45538311537E+03  0.45538311537E+03  0.00000000000E+00 0.  1.
         22   -1    0    0    0    0 -0.00000000000E+00 -0.00000000000E+00 -0.72181069071E+02  0.72181069071E+02  0.00000000000E+00 0. -1.
        -24    2    1    2    0    0  0.21579258785E+02 -0.29562683768E+02  0.23707423365E+02  0.92652571059E+02  0.81748641089E+02 0.  0.
         25    2    1    2    0    0 -0.11731234346E+02  0.24787020669E+02  0.99961897505E+02  0.16245537737E+03  0.12508936977E+03 0.  0.
         24    2    1    2    0    0 -0.98480244392E+01  0.47756630992E+01  0.25953272543E+03  0.27245623602E+03  0.82191084863E+02 0.  0.
        -11    1    5    5    0    0 -0.43499320681E+02 -0.10010413817E+02  0.16775141778E+03  0.17358841394E+03  0.00000000000E+00 0.  1.
         12    1    5    5    0    0  0.33651296242E+02  0.14786076916E+02  0.91781307647E+02  0.98867822079E+02  0.00000000000E+00 0. -1.
         13    1    3    3    0    0  0.16603826159E+01 -0.18669984031E+02 -0.29416685973E+02  0.34880748097E+02  0.00000000000E+00 0. -1.
        -14    1    3    3    0    0  0.19918876169E+02 -0.10892699738E+02  0.53124109338E+02  0.57771822962E+02  0.00000000000E+00 0.  1.
          5    1    4    4  501    0  0.28349715217E+02 -0.43193717386E+01  0.10824701558E+03  0.11205914558E+03  0.41800000000E+01 0. -1.
         -5    1    4    4    0  501 -0.40080949563E+02  0.29106392408E+02 -0.82851180789E+01  0.50396231788E+02  0.41800000000E+01 0. -1.
</event>
<event>
11    1  0.6455215E-009  0.1456155E+03  0.7561462E-02  0.1101445E+00
         22   -1    0    0    0    0  0.00000000000E+00  0.00000000000E+00  0.24271786507E+04  0.24271786507E+04  0.00000000000E+00 0.  1.
         22   -1    0    0    0    0 -0.00000000000E+00 -0.00000000000E+00 -0.27105376965E+03  0.27105376965E+03  0.00000000000E+00 0. -1.
         24    2    1    2    0    0 -0.59365058521E+02 -0.55088649010E+02 -0.19894406801E+03  0.22855342946E+03  0.78095828948E+02 0.  0.
         25    2    1    2    0    0  0.41408486746E+02  0.14628783755E+02  0.21483199951E+02  0.13430396100E+03  0.12508941590E+03 0.  0.
        -24    2    1    2    0    0  0.17956571776E+02  0.40459865255E+02  0.23335857491E+04  0.23353750299E+04  0.79966509236E+02 0.  0.
        -11    1    3    3    0    0 -0.63749654909E+02 -0.95283888068E+01 -0.93093053394E+02  0.11323040795E+03  0.00000000000E+00 0.  1.
         12    1    3    3    0    0  0.43845963877E+01 -0.45560260203E+02 -0.10585101462E+03  0.11532302151E+03  0.00000000000E+00 0. -1.
         13    1    5    5    0    0 -0.33060745666E+01  0.22030327782E+01  0.50380953784E+01  0.64160647989E+01  0.00000000000E+00 0. -1.
        -14    1    5    5    0    0  0.21262646342E+02  0.38256832477E+02  0.23285476537E+04  0.23289589651E+04  0.00000000000E+00 0.  1.
          5    1    4    4  501    0 -0.33117820349E+02  0.11000361587E+02  0.43943748223E+02  0.56270093190E+02  0.41800000000E+01 0.  1.
         -5    1    4    4    0  501  0.74526307095E+02  0.36284221672E+01 -0.22460548272E+02  0.78033867809E+02  0.41800000000E+01 0.  1.
</event>
<event>
11    1  0.6455215E-009  0.1533832E+03  0.7561462E-02  0.1093471E+00
         22   -1    0    0    0    0  0.00000000000E+00  0.00000000000E+00  0.14703460136E+04  0.14703460136E+04  0.00000000000E+00 0.  1.
         22   -1    0    0    0    0 -0.00000000000E+00 -0.00000000000E+00 -0.82311944140E+02  0.82311944140E+02  0.00000000000E+00 0.  1.
         24    2    1    2    0    0  0.47684144937E+02 -0.74428803300E+02 -0.15479129960E+02  0.12083923681E+03  0.80926468166E+02 0.  0.
         25    2    1    2    0    0  0.11467404283E+02  0.11817575527E+03  0.88077104382E+03  0.89749761500E+03  0.12508927530E+03 0.  0.
        -24    2    1    2    0    0 -0.59151549220E+02 -0.43746951970E+02  0.52274215559E+03  0.53432110592E+03  0.82625549460E+02 0.  0.
        -11    1    3    3    0    0  0.25252399294E+02 -0.45405060891E+02 -0.48802549439E+02  0.71281077829E+02  0.00000000000E+00 0.  1.
         12    1    3    3    0    0  0.22431745643E+02 -0.29023742409E+02  0.33323419479E+02  0.49558158983E+02  0.00000000000E+00 0. -1.
         11    1    5    5    0    0  0.15812686351E-01 -0.25055133171E+02  0.37327486176E+02  0.44956658822E+02  0.00000000000E+00 0. -1.
        -12    1    5    5    0    0 -0.59167361907E+02 -0.18691818798E+02  0.48541466941E+03  0.48936444710E+03  0.00000000000E+00 0.  1.
          5    1    4    4  501    0 -0.34806254654E+02  0.80772729240E+02  0.27396868152E+03  0.28777077685E+03  0.41800000000E+01 0. -1.
         -5    1    4    4    0  501  0.46273658937E+02  0.37403026030E+02  0.60680236230E+03  0.60972683815E+03  0.41800000000E+01 0. -1.
</event>
<event>
11    1  0.6455215E-009  0.1454636E+03  0.7561462E-02  0.1101606E+00
         22   -1    0    0    0    0  0.00000000000E+00  0.00000000000E+00  0.25015288640E+04  0.25015288640E+04  0.00000000000E+00 0. -1.
         22   -1    0    0    0    0 -0.00000000000E+00 -0.00000000000E+00 -0.33919634114E+02  0.33919634114E+02  0.00000000000E+00 0.  1.
        -24    2    1    2    0    0 -0.89577432916E+02 -0.36569103163E+02  0.15716209841E+03  0.20189132722E+03  0.81845995843E+02 0.  0.
         25    2    1    2    0    0  0.26849250963E+02 -0.84584029535E+01  0.40424190849E+03  0.42408859119E+03  0.12508871147E+03 0.  0.
         24    2    1    2    0    0  0.62728181954E+02  0.45027506116E+02  0.19062052230E+04  0.19094685797E+04  0.80558076211E+02 0.  0.
        -11    1    5    5    0    0 -0.15483662129E+02  0.14927774045E+02  0.18903270753E+03  0.19025232390E+03  0.00000000000E+00 0.  1.
         12    1    5    5    0    0  0.78211844083E+02  0.30099732071E+02  0.17171725155E+04  0.17192162558E+04  0.00000000000E+00 0. -1.
         13    1    3    3    0    0 -0.59885526403E+01 -0.34449076039E+01  0.88475143671E+02  0.88744471370E+02  0.00000000000E+00 0. -1.
        -14    1    3    3    0    0 -0.83588880276E+02 -0.33124195559E+02  0.68686954741E+02  0.11314685585E+03  0.00000000000E+00 0.  1.
          5    1    4    4  501    0 -0.15133563092E+02 -0.24315040214E+01  0.36742847503E+03  0.36777179556E+03  0.41800000000E+01 0.  1.
         -5    1    4    4    0  501  0.41982814055E+02 -0.60268989321E+01  0.36813433458E+02  0.56316795627E+02  0.41800000000E+01 0.  1.
</event>
<event>
11    1  0.6455215E-009  0.1677928E+03  0.7561462E-02  0.1079969E+00
         22   -1    0    0    0    0  0.00000000000E+00  0.00000000000E+00  0.12123087890E+04  0.12123087890E+04  0.00000000000E+00 0. -1.
         22   -1    0    0    0    0 -0.00000000000E+00 -0.00000000000E+00 -0.10246521804E+03  0.10246521804E+03  0.00000000000E+00 0. -1.
         24    2    1    2    0    0 -0.94816294762E+01 -0.47948505017E+02 -0.52344205443E+02  0.10991096441E+03  0.83375918720E+02 0.  0.
         25    2    1    2    0    0 -0.96206313316E+02 -0.13462886732E+02  0.43415815305E+03  0.46214419115E+03  0.12508815897E+03 0.  0.
        -24    2    1    2    0    0  0.10568794279E+03  0.61411391748E+02  0.72802962340E+03  0.74271885152E+03  0.81626341156E+02 0.  0.
        -13    1    3    3    0    0 -0.18582308061E+02 -0.52263542516E+02  0.11462209526E+01  0.55480572020E+02  0.00000000000E+00 0.  1.
         14    1    3    3    0    0  0.91006785845E+01  0.43150374996E+01 -0.53490426395E+02  0.54430392386E+02  0.00000000000E+00 0. -1.
         11    1    5    5    0    0  0.97438135110E+02  0.79562970896E+02  0.65747455812E+03  0.66940066559E+03  0.00000000000E+00 0. -1.
        -12    1    5    5    0    0  0.82498076826E+01 -0.18151579148E+02  0.70555065277E+02  0.73318185934E+02  0.00000000000E+00 0.  1.
          5    1    4    4  501    0 -0.12021326919E+03 -0.88929621911E+01  0.41058107661E+03  0.42793061089E+03  0.41800000000E+01 0. -1.
         -5    1    4    4    0  501  0.24006955878E+02 -0.45699245405E+01  0.23577076434E+02  0.34213580257E+02  0.41800000000E+01 0. -1.
</event>
<event>
11    1  0.6455215E-009  0.1544652E+03  0.7561462E-02  0.1092402E+00
         22   -1    0    0    0    0  0.00000000000E+00  0.00000000000E+00  0.10076192466E+04  0.10076192466E+04  0.00000000000E+00 0.  1.
         22   -1    0    0    0    0 -0.00000000000E+00 -0.00000000000E+00 -0.92561892934E+02  0.92561892934E+02  0.00000000000E+00 0. -1.
        -24    2    1    2    0    0 -0.42197338478E+02 -0.13680444702E+02 -0.42928959917E+02  0.10053997268E+03  0.79357548883E+02 0.  0.
         25    2    1    2    0    0  0.11522408139E+03  0.35147854051E+02  0.52402719807E+03  0.55205339674E+03  0.12508592232E+03 0.  0.
         24    2    1    2    0    0 -0.73026742910E+02 -0.21467409349E+02  0.43395911548E+03  0.44758777008E+03  0.78870420142E+02 0.  0.
        -11    1    5    5    0    0 -0.72516011230E+02  0.99943959633E+01  0.35731082155E+03  0.36473207020E+03  0.00000000000E+00 0.  1.
         12    1    5    5    0    0 -0.51073168002E+00 -0.31461805312E+02  0.76648293928E+02  0.82855699879E+02  0.00000000000E+00 0. -1.
         11    1    3    3    0    0 -0.39831633334E+01  0.18827079639E+02 -0.46417529253E+02  0.50248497886E+02  0.00000000000E+00 0. -1.
        -12    1    3    3    0    0 -0.38214175144E+02 -0.32507524341E+02  0.34885693359E+01  0.50291474792E+02  0.00000000000E+00 0.  1.
          5    1    4    4  501    0  0.83786224570E+02  0.62328988356E+02  0.48047192685E+03  0.49170700535E+03  0.41800000000E+01 0. -1.
         -5    1    4    4    0  501  0.31437856818E+02 -0.27181134304E+02  0.43555271219E+02  0.60346391395E+02  0.41800000000E+01 0. -1.
</event>
<event>
11    1  0.6455215E-009  0.1473363E+03  0.7561462E-02  0.1099632E+00
         22   -1    0    0    0    0  0.00000000000E+00  0.00000000000E+00  0.59518300704E+03  0.59518300704E+03  0.00000000000E+00 0. -1.
         22   -1    0    0    0    0 -0.00000000000E+00 -0.00000000000E+00 -0.45569732965E+03  0.45569732965E+03  0.00000000000E+00 0.  1.
        -24    2    1    2    0    0 -0.49633280795E+02  0.48250151011E+02 -0.24784629663E+03  0.26895094219E+03  0.78200274404E+02 0.  0.
         25    2    1    2    0    0  0.62507293481E+02 -0.87891150369E+02 -0.15850531644E+03  0.22891734441E+03  0.12508876520E+03 0.  0.
         24    2    1    2    0    0 -0.12874012686E+02  0.39640999358E+02  0.54583729047E+03  0.55301205009E+03  0.78401727310E+02 0.  0.
        -13    1    5    5    0    0 -0.22736809765E+01 -0.23190645933E+02  0.10224570082E+03  0.10486734010E+03  0.00000000000E+00 0.  1.
         14    1    5    5    0    0 -0.10600331710E+02  0.62831645291E+02  0.44359158965E+03  0.44814470998E+03  0.00000000000E+00 0. -1.
         13    1    3    3    0    0  0.18832531793E+02  0.15865765547E+02 -0.98064883635E+02  0.10110938716E+03  0.00000000000E+00 0. -1.
        -14    1    3    3    0    0 -0.68465812589E+02  0.32384385463E+02 -0.14978141300E+03  0.16784155503E+03  0.00000000000E+00 0.  1.
          5    1    4    4  501    0  0.44735652859E+02  0.11934989233E+02 -0.76639645865E+01  0.47116147528E+02  0.41800000000E+01 0. -1.
         -5    1    4    4    0  501  0.17771640622E+02 -0.99826139602E+02 -0.15084135185E+03  0.18180119688E+03  0.41800000000E+01 0. -1.
</event>
<event>
11    1  0.6455215E-009  0.3649779E+03  0.7561462E-02  0.9759148E-01
         22   -1    0    0    0    0  0.00000000000E+00  0.00000000000E+00  0.86346891025E+03  0.86346891025E+03  0.00000000000E+00 0.  1.
         22   -1    0    0    0    0 -0.00000000000E+00 -0.00000000000E+00 -0.27540600784E+03  0.27540600784E+03  0.00000000000E+00 0.  1.
         24    2    1    2    0    0 -0.76044180899E+02  0.35165030943E+03  0.30414457441E+01  0.36939376882E+03  0.83677048735E+02 0.  0.
         25    2    1    2    0    0  0.47028569495E+02 -0.30968628773E+03  0.24487764198E+03  0.41681088264E+03  0.12509584001E+03 0.  0.
        -24    2    1    2    0    0  0.29015611403E+02 -0.41964021697E+02  0.34014381469E+03  0.35267026663E+03  0.77946247285E+02 0.  0.
        -13    1    3    3    0    0 -0.66601744553E+02  0.35093372116E+03 -0.45971312771E+01  0.35722738227E+03  0.00000000000E+00 0.  1.
         14    1    3    3    0    0 -0.94424363460E+01  0.71658826365E+00  0.76385770212E+01  0.12166386555E+02  0.00000000000E+00 0. -1.
         11    1    5    5    0    0  0.31671489961E+02 -0.56632685550E+02  0.17143046288E+03  0.18329961253E+03  0.00000000000E+00 0. -1.
        -12    1    5    5    0    0 -0.26558785580E+01  0.14668663854E+02  0.16871335181E+03  0.16937065410E+03  0.00000000000E+00 0.  1.
          5    1    4    4  501    0  0.49143429406E+02 -0.43898343233E+02  0.21055538622E+02  0.69303313766E+02  0.41800000000E+01 0. -1.
         -5    1    4    4    0  501 -0.21148599103E+01 -0.26578794450E+03  0.22382210335E+03  0.34750756887E+03  0.41800000000E+01 0. -1.
</event>
<event>
11    1  0.6455215E-009  0.1607368E+03  0.7561462E-02  0.1086386E+00
         22   -1    0    0    0    0  0.00000000000E+00  0.00000000000E+00  0.48425449252E+03  0.48425449252E+03  0.00000000000E+00 0. -1.
         22   -1    0    0    0    0 -0.00000000000E+00 -0.00000000000E+00 -0.96136263343E+03  0.96136263343E+03  0.00000000000E+00 0.  1.
        -24    2    1    2    0    0 -0.94701259206E+02 -0.38641356246E+02 -0.91056551834E+03  0.91977851130E+03  0.80009147901E+02 0.  0.
         25    2    1    2    0    0  0.57687458076E+02  0.31997583582E+02  0.80488200857E+02  0.16271936562E+03  0.12509018066E+03 0.  0.
         24    2    1    2    0    0  0.37013801131E+02  0.66437726643E+01  0.35296917658E+03  0.36311924903E+03  0.76512667006E+02 0.  0.
        -11    1    5    5    0    0  0.30282598780E+02 -0.56225241924E+01  0.43315445619E+02  0.53149566286E+02  0.00000000000E+00 0.  1.
         12    1    5    5    0    0  0.67312023504E+01  0.12266296857E+02  0.30965373096E+03  0.30996968274E+03  0.00000000000E+00 0. -1.
         13    1    3    3    0    0 -0.63286279881E+01 -0.40784994503E+02 -0.31320571258E+03  0.31591341488E+03  0.00000000000E+00 0. -1.
        -14    1    3    3    0    0 -0.88372631218E+02  0.21436382571E+01 -0.59735980577E+03  0.60386509642E+03  0.00000000000E+00 0.  1.
          5    1    4    4  501    0 -0.35958260743E+02 -0.10517791568E+02  0.14157999831E+02  0.40268372383E+02  0.41800000000E+01 0.  1.
         -5    1    4    4    0  501  0.93645718819E+02  0.42515375150E+02  0.66330201026E+02  0.12245099324E+03  0.41800000000E+01 0.  1.
</event>
<event>
11    1  0.6455215E-009  0.1415375E+03  0.7561462E-02  0.1105854E+00
         22   -1    0    0    0    0  0.00000000000E+00  0.00000000000E+00  0.80148811056E+03  0.80148811056E+03  0.00000000000E+00 0. -1.
         22   -1    0    0    0    0 -0.00000000000E+00 -0.00000000000E+00 -0.40431946836E+03  0.40431946836E+03  0.00000000000E+00 0.  1.
        -24    2    1    2    0    0  0.33796691319E+02  0.24146282684E+02 -0.18896460015E+03  0.21553672053E+03  0.94990517818E+02 0.  0.
         25    2    1    2    0    0 -0.39526245636E+02 -0.89642910239E+02 -0.16665576735E+03  0.23025754299E+03  0.12508483467E+03 0.  0.
         24    2    1    2    0    0  0.57295543168E+01  0.65496627555E+02  0.75278900970E+03  0.76001331540E+03  0.81279212840E+02 0.  0.
        -13    1    5    5    0    0  0.37782707859E+02  0.79330509528E+01  0.28945379740E+03  0.29201706652E+03  0.00000000000E+00 0.  1.
         14    1    5    5    0    0 -0.32053153542E+02  0.57563576602E+02  0.46333521231E+03  0.46799624888E+03  0.00000000000E+00 0. -1.
         11    1    3    3    0    0  0.16910833125E+02 -0.19371545035E+02 -0.55911584576E+01  0.26315282383E+02  0.00000000000E+00 0. -1.
        -12    1    3    3    0    0  0.16885858194E+02  0.43517827719E+02 -0.18337344169E+03  0.18922143814E+03  0.00000000000E+00 0.  1.
          5    1    4    4  501    0  0.45649492049E+02 -0.29341316638E+02 -0.58529923078E+02  0.79925047900E+02  0.41800000000E+01 0.  1.
         -5    1    4    4    0  501 -0.85175737684E+02 -0.60301593600E+02 -0.10812584427E+03  0.15033249509E+03  0.41800000000E+01 0.  1.
</event>
<event>
11    1  0.6455215E-009  0.1318044E+03  0.7561462E-02  0.1117072E+00
         22   -1    0    0    0    0  0.00000000000E+00  0.00000000000E+00  0.10095107737E+04  0.10095107737E+04  0.00000000000E+00 0. -1.
         22   -1    0    0    0    0 -0.00000000000E+00 -0.00000000000E+00 -0.47178033682E+03  0.47178033682E+03  0.00000000000E+00 0.  1.
         24    2    1    2    0    0  0.40070661595E+02 -0.13138410361E+02 -0.42788588178E+03  0.43698857784E+03  0.78066725224E+02 0.  0.
         25    2    1    2    0    0 -0.36167647576E+02 -0.32220636203E+02  0.81496359611E+02  0.15695404080E+03  0.12508655470E+03 0.  0.
        -24    2    1    2    0    0 -0.39030140195E+01  0.45359046565E+02  0.88411995909E+03  0.88734849191E+03  0.60386814967E+02 0.  0.
        -13    1    3    3    0    0  0.90985444718E+01  0.18366960048E+02 -0.31646887330E+03  0.31713195440E+03  0.00000000000E+00 0.  1.
         14    1    3    3    0    0  0.30972117124E+02 -0.31505370409E+02 -0.11141700848E+03  0.11985662344E+03  0.00000000000E+00 0. -1.
         11    1    5    5    0    0  0.79774230505E+01  0.45881385123E+02  0.84887351165E+03  0.85014997475E+03  0.00000000000E+00 0. -1.
        -12    1    5    5    0    0 -0.11880437070E+02 -0.52233855828E+00  0.35246447433E+02  0.37198517164E+02  0.00000000000E+00 0.  1.
          5    1    4    4  501    0  0.19634159437E+02 -0.50180475068E+02  0.81968002441E+02  0.98182514324E+02  0.41800000000E+01 0.  1.
         -5    1    4    4    0  501 -0.55801807013E+02  0.17959838864E+02 -0.47164283073E+00  0.58771526481E+02  0.41800000000E+01 0.  1.
</event>
<event>
11    1  0.6455215E-009  0.1308422E+03  0.7561462E-02  0.1118238E+00
         22   -1    0    0    0    0  0.00000000000E+00  0.00000000000E+00  0.19331357104E+03  0.19331357104E+03  0.00000000000E+00 0.  1.
         22   -1    0    0    0    0 -0.00000000000E+00 -0.00000000000E+00 -0.11818609517E+04  0.11818609517E+04  0.00000000000E+00 0. -1.
        -24    2    1    2    0    0  0.30963182778E+02 -0.22863345139E+02 -0.11049020589E+04  0.11084635204E+04  0.80008531328E+02 0.  0.
         25    2    1    2    0    0 -0.33154775221E+02  0.11403501895E+02  0.62315901113E+01  0.13006208881E+03  0.12509210708E+03 0.  0.
         24    2    1    2    0    0  0.21915924426E+01  0.11459843244E+02  0.11012308816E+03  0.13664891349E+03  0.80060601598E+02 0.  0.
        -11    1    5    5    0    0 -0.93379146304E+01 -0.19109048039E+02  0.10030438893E+03  0.10253449569E+03  0.00000000000E+00 0.  1.
         12    1    5    5    0    0  0.11529507073E+02  0.30568891283E+02  0.98186992246E+01  0.34114417804E+02  0.00000000000E+00 0. -1.
         11    1    3    3    0    0  0.48756684324E+01  0.28637697730E+02 -0.26719968126E+03  0.26877417945E+03  0.00000000000E+00 0. -1.
        -12    1    3    3    0    0  0.26087514346E+02 -0.51501042869E+02 -0.83770237767E+03  0.83968934099E+03  0.00000000000E+00 0.  1.
          5    1    4    4  501    0  0.36088561182E+02  0.10601857899E+02  0.38114921374E+02  0.53712226452E+02  0.41800000000E+01 0. -1.
         -5    1    4    4    0  501 -0.69243336403E+02  0.80164399575E+00 -0.31883331262E+02  0.76349862355E+02  0.41800000000E+01 0. -1.
</event>
<event>
11    1  0.6455215E-009  0.3542130E+03  0.7561462E-02  0.9795439E-01
         22   -1    0    0    0    0  0.00000000000E+00  0.00000000000E+00  0.56539886602E+03  0.56539886602E+03  0.00000000000E+00 0.  1.
         22   -1    0    0    0    0 -0.00000000000E+00 -0.00000000000E+00 -0.98271290163E+03  0.98271290163E+03  0.00000000000E+00 0.  1.
         24    2    1    2    0    0  0.32315887030E+02  0.25484630150E+02 -0.70120200456E+03  0.70667808722E+03  0.77562135354E+02 0.  0.
         25    2    1    2    0    0  0.91385136452E+02 -0.32961626240E+03 -0.48161278950E+02  0.36737540311E+03  0.12508818656E+03 0.  0.
        -24    2    1    2    0    0 -0.12370102348E+03  0.30413163225E+03  0.33204924789E+03  0.47405827731E+03  0.81710184900E+02 0.  0.
        -11    1    3    3    0    0  0.16837386011E+02  0.43457324061E+02 -0.62804828869E+03  0.62977511026E+03  0.00000000000E+00 0.  1.
         12    1    3    3    0    0  0.15478501019E+02 -0.17972693911E+02 -0.73153715869E+02  0.76902976962E+02  0.00000000000E+00 0. -1.
         11    1    5    5    0    0 -0.25751147135E+02  0.16390157512E+03  0.14215145969E+03  0.21848085819E+03  0.00000000000E+00 0. -1.
        -12    1    5    5    0    0 -0.97949876348E+02  0.14023005714E+03  0.18989778820E+03  0.25557741912E+03  0.00000000000E+00 0.  1.
          5    1    4    4  501    0  0.98537353276E+02 -0.24266919783E+03 -0.80817354471E+02  0.27412928838E+03  0.41800000000E+01 0. -1.
         -5    1    4    4    0  501 -0.71522168233E+01 -0.86947064579E+02  0.32656075521E+02  0.93246114733E+02  0.41800000000E+01 0. -1.
</event>
<event>
11    1  0.6455215E-009  0.4229011E+03  0.7561462E-02  0.9584503E-01
         22   -1    0    0    0    0  0.00000000000E+00  0.00000000000E+00  0.10510713149E+04  0.10510713149E+04  0.00000000000E+00 0.  1.
         22   -1    0    0    0    0 -0.00000000000E+00 -0.00000000000E+00 -0.11190123151E+04  0.11190123151E+04  0.00000000000E+00 0.  1.
         24    2    1    2    0    0  0.19592458033E+02  0.76101707304E+02 -0.90853895744E+03  0.91829727950E+03  0.10794221642E+03 0.  0.
         25    2    1    2    0    0  0.16906029373E+02  0.34797833072E+03  0.83288420242E+02  0.37941920448E+03  0.12508892557E+03 0.  0.
        -24    2    1    2    0    0 -0.36498487405E+02 -0.42408003802E+03  0.75730953697E+03  0.87236714601E+03  0.79565598238E+02 0.  0.
        -11    1    3    3    0    0  0.23126492612E+02  0.74650332588E+01 -0.65953728820E+03  0.65998484521E+03  0.00000000000E+00 0.  1.
         12    1    3    3    0    0 -0.35340345797E+01  0.68636674045E+02 -0.24900166925E+03  0.25831243430E+03  0.00000000000E+00 0. -1.
         13    1    5    5    0    0  0.17963303748E+02 -0.40479935714E+02  0.99964286687E+02  0.10933509999E+03  0.00000000000E+00 0. -1.
        -14    1    5    5    0    0 -0.54461791153E+02 -0.38360010231E+03  0.65734525028E+03  0.76303204602E+03  0.00000000000E+00 0.  1.
          5    1    4    4  501    0 -0.18700212892E+02  0.29534895625E+03  0.32079461714E+02  0.29770332243E+03  0.41800000000E+01 0.  1.
         -5    1    4    4    0  501  0.35606242265E+02  0.52629374465E+02  0.51208958528E+02  0.81715882045E+02  0.41800000000E+01 0.  1.
</event>
<event>
11    1  0.6455215E-009  0.1423271E+03  0.7561462E-02  0.1104987E+00
         22   -1    0    0    0    0  0.00000000000E+00  0.00000000000E+00  0.55653894223E+03  0.55653894223E+03  0.00000000000E+00 0.  1.
         22   -1    0    0    0    0 -0.00000000000E+00 -0.00000000000E+00 -0.14272649122E+04  0.14272649122E+04  0.00000000000E+00 0. -1.
        -24    2    1    2    0    0 -0.41337353386E+02 -0.83808590181E+01 -0.11387422444E+04  0.11423005532E+04  0.79609290183E+02 0.  0.
         25    2    1    2    0    0  0.88373620063E+02  0.56445133077E+02 -0.25775761574E+03  0.30509291308E+03  0.12508695923E+03 0.  0.
         24    2    1    2    0    0 -0.47036266677E+02 -0.48064274059E+02  0.52577389023E+03  0.53641038809E+03  0.82312429105E+02 0.  0.
        -13    1    5    5    0    0 -0.48806516119E+02 -0.29551275355E+02  0.50621865255E+03  0.50942386878E+03  0.00000000000E+00 0.  1.
         14    1    5    5    0    0  0.17702494418E+01 -0.18512998704E+02  0.19555237676E+02  0.26986519313E+02  0.00000000000E+00 0. -1.
         13    1    3    3    0    0 -0.63892248465E+02 -0.16670070374E+02 -0.82136359684E+03  0.82401351255E+03  0.00000000000E+00 0. -1.
        -14    1    3    3    0    0  0.22554895079E+02  0.82892113558E+01 -0.31737864760E+03  0.31828704069E+03  0.00000000000E+00 0.  1.
          5    1    4    4  501    0  0.46440657036E+02  0.61588127370E+02 -0.25035131686E+03  0.26199825631E+03  0.41800000000E+01 0.  1.
         -5    1    4    4    0  501  0.41932963027E+02 -0.51429942928E+01 -0.74062988792E+01  0.43094656764E+02  0.41800000000E+01 0.  1.
</event>
<event>
11    1  0.6455215E-009  0.2606929E+03  0.7561462E-02  0.1018352E+00
         22   -1    0    0    0    0  0.00000000000E+00  0.00000000000E+00  0.31387012626E+03  0.31387012626E+03  0.00000000000E+00 0.  1.
         22   -1    0    0    0    0 -0.00000000000E+00 -0.00000000000E+00 -0.80810630559E+03  0.80810630559E+03  0.00000000000E+00 0.  1.
        -24    2    1    2    0    0  0.37483108129E+02  0.23493791053E+02 -0.59607481202E+03  0.60290301960E+03  0.78929892304E+02 0.  0.
         25    2    1    2    0    0 -0.25023191950E+03 -0.15795240718E+02  0.44098554598E+02  0.28364896143E+03  0.12508616085E+03 0.  0.
         24    2    1    2    0    0  0.21274881138E+03 -0.76985503350E+01  0.57740078095E+02  0.23542445082E+03  0.82276551994E+02 0.  0.
        -11    1    5    5    0    0  0.21733159022E+03 -0.23376151846E+00  0.48470858214E+02  0.22267127980E+03  0.00000000000E+00 0.  1.
         12    1    5    5    0    0 -0.45827788419E+01 -0.74647888165E+01  0.92692198815E+01  0.12753171025E+02  0.00000000000E+00 0. -1.
         13    1    3    3    0    0  0.37065028963E+02  0.15309499094E+02 -0.11559978930E+03  0.12235811546E+03  0.00000000000E+00 0. -1.
        -14    1    3    3    0    0  0.41807916626E+00  0.81842919594E+01 -0.48047502273E+03  0.48054490413E+03  0.00000000000E+00 0.  1.
          5    1    4    4  501    0 -0.39604448349E+02  0.45566406219E+02  0.14585031043E+02  0.62249540040E+02  0.41800000000E+01 0.  1.
         -5    1    4    4    0  501 -0.21062747116E+03 -0.61361646937E+02  0.29513523555E+02  0.22139942139E+03  0.41800000000E+01 0.  1.
</event>
<event>
11    1  0.6455215E-009  0.1450110E+03  0.7561462E-02  0.1102088E+00
         22   -1    0    0    0    0  0.00000000000E+00  0.00000000000E+00  0.30236589470E+03  0.30236589470E+03  0.00000000000E+00 0.  1.
         22   -1    0    0    0    0 -0.00000000000E+00 -0.00000000000E+00 -0.11117044543E+04  0.11117044543E+04  0.00000000000E+00 0.  1.
         24    2    1    2    0    0 -0.66920499459E+02  0.10455047752E+02 -0.56673699359E+03  0.57636435193E+03  0.80108582569E+02 0.  0.
         25    2    1    2    0    0  0.88376135055E+02  0.23305049363E+02 -0.52179728579E+03  0.54431068610E+03  0.12509296131E+03 0.  0.
        -24    2    1    2    0    0 -0.21455635596E+02 -0.33760097115E+02  0.27919571976E+03  0.29339531098E+03  0.80811324190E+02 0.  0.
        -13    1    3    3    0    0 -0.50803578207E+02 -0.16715621192E+02 -0.49622622940E+03  0.49910007644E+03  0.00000000000E+00 0.  1.
         14    1    3    3    0    0 -0.16116921252E+02  0.27170668944E+02 -0.70510764189E+02  0.77264275497E+02  0.00000000000E+00 0. -1.
         11    1    5    5    0    0  0.30275455921E+02 -0.56111170241E+01  0.81888360106E+02  0.87485949651E+02  0.00000000000E+00 0. -1.
        -12    1    5    5    0    0 -0.51731091517E+02 -0.28148980091E+02  0.19730735966E+03  0.20590936133E+03  0.00000000000E+00 0.  1.
          5    1    4    4  501    0  0.30635912665E+02  0.69303228973E+02 -0.33329428980E+03  0.34182459347E+03  0.41800000000E+01 0. -1.
         -5    1    4    4    0  501  0.57740222390E+02 -0.45998179610E+02 -0.18850299600E+03  0.20248609263E+03  0.41800000000E+01 0. -1.
</event>
<event>
11    1  0.6455215E-009  0.1457733E+03  0.7561462E-02  0.1101278E+00
         22   -1    0    0    0    0  0.00000000000E+00  0.00000000000E+00  0.77062331394E+03  0.77062331394E+03  0.00000000000E+00 0.  1.
         22   -1    0    0    0    0 -0.00000000000E+00 -0.00000000000E+00 -0.44397103524E+03  0.44397103524E+03  0.00000000000E+00 0.  1.
        -24    2    1    2    0    0 -0.51493269617E+02 -0.36605113924E+02 -0.31058914241E+03  0.32706460472E+03  0.80710278771E+02 0.  0.
         25    2    1    2    0    0  0.56161426073E+02  0.10989497276E+03 -0.56856510460E+02  0.18469256014E+03  0.12509063983E+03 0.  0.
         24    2    1    2    0    0 -0.46681564560E+01 -0.73289858840E+02  0.69409793157E+03  0.70283718432E+03  0.82552855570E+02 0.  0.
        -13    1    5    5    0    0  0.38512126001E+01 -0.25823956649E+01  0.40738334250E+03  0.40740973031E+03  0.00000000000E+00 0.  1.
         14    1    5    5    0    0 -0.85193690561E+01 -0.70707463175E+02  0.28671458907E+03  0.29542745401E+03  0.00000000000E+00 0. -1.
         11    1    3    3    0    0 -0.38603316307E+02  0.19415131872E+02 -0.10381456572E+03  0.11244833227E+03  0.00000000000E+00 0. -1.
        -12    1    3    3    0    0 -0.12889953310E+02 -0.56020245795E+02 -0.20677457669E+03  0.21461627245E+03  0.00000000000E+00 0.  1.
          5    1    4    4  501    0  0.36734260467E+01  0.12092545467E+03 -0.47747061818E+02  0.13012960446E+03  0.41800000000E+01 0.  1.
         -5    1    4    4    0  501  0.52488000026E+02 -0.11030481903E+02 -0.91094486419E+01  0.54562955678E+02  0.41800000000E+01 0.  1.
</event>
<event>
11    1  0.6455215E-009  0.1663723E+03  0.7561462E-02  0.1081232E+00
         22   -1    0    0    0    0  0.00000000000E+00  0.00000000000E+00  0.10975274367E+03  0.10975274367E+03  0.00000000000E+00 0. -1.
         22   -1    0    0    0    0 -0.00000000000E+00 -0.00000000000E+00 -0.12614535848E+04  0.12614535848E+04  0.00000000000E+00 0.  1.
         24    2    1    2    0    0  0.22701380232E+02  0.32024345055E+02 -0.99191454496E+03  0.99586029751E+03  0.79387381227E+02 0.  0.
         25    2    1    2    0    0  0.64767720687E+02 -0.97186918314E+02 -0.16818779628E+03  0.23994846348E+03  0.12509186854E+03 0.  0.
        -24    2    1    2    0    0 -0.87469100920E+02  0.65162573259E+02  0.84015000990E+01  0.13539756749E+03  0.79780395516E+02 0.  0.
        -11    1    3    3    0    0  0.25325991949E+02  0.16514132021E+02 -0.95797981607E+03  0.95845680676E+03  0.00000000000E+00 0.  1.
         12    1    3    3    0    0 -0.26246117166E+01  0.15510213034E+02 -0.33934728894E+02  0.37403490748E+02  0.00000000000E+00 0. -1.
         13    1    5    5    0    0 -0.89058935152E+02  0.73311903638E+02  0.23911983386E+02  0.11780455040E+03  0.00000000000E+00 0. -1.
        -14    1    5    5    0    0  0.15898342321E+01 -0.81493303792E+01 -0.15510483287E+02  0.17593017090E+02  0.00000000000E+00 0.  1.
          5    1    4    4  501    0  0.14971966572E+02  0.10078498700E+02 -0.10338618001E+03  0.10503290216E+03  0.41800000000E+01 0. -1.
         -5    1    4    4    0  501  0.49795754115E+02 -0.10726541701E+03 -0.64801616269E+02  0.13491556132E+03  0.41800000000E+01 0. -1.
</event>
<event>
11    1  0.6455215E-009  0.4594699E+03  0.7561462E-02  0.9488946E-01
         22   -1    0    0    0    0  0.00000000000E+00  0.00000000000E+00  0.12132332596E+04  0.12132332596E+04  0.00000000000E+00 0. -1.
         22   -1    0    0    0    0 -0.00000000000E+00 -0.00000000000E+00 -0.82358830981E+03  0.82358830981E+03  0.00000000000E+00 0.  1.
        -24    2    1    2    0    0 -0.28594978370E+03 -0.70809573530E+01 -0.75066096489E+03  0.80742733579E+03  0.81422353358E+02 0.  0.
         25    2    1    2    0    0  0.79636341810E+02  0.82003375278E+02  0.20871133802E+03  0.26883947774E+03  0.12509093364E+03 0.  0.
         24    2    1    2    0    0  0.20631344189E+03 -0.74922417925E+02  0.93159457667E+03  0.96055475589E+03  0.81353418929E+02 0.  0.
        -13    1    5    5    0    0  0.14645723666E+03 -0.81511139007E+02  0.77179640459E+03  0.78978698273E+03  0.00000000000E+00 0.  1.
         14    1    5    5    0    0  0.59856205231E+02  0.65887210823E+01  0.15979817208E+03  0.17076777316E+03  0.00000000000E+00 0. -1.
         11    1    3    3    0    0 -0.18643105178E+03  0.28957229717E+02 -0.53277336536E+03  0.56519246019E+03  0.00000000000E+00 0. -1.
        -12    1    3    3    0    0 -0.99518731917E+02 -0.36038187070E+02 -0.21788759953E+03  0.24223487561E+03  0.00000000000E+00 0.  1.
          5    1    4    4  501    0 -0.31134468990E+02  0.80435317672E+00  0.48295312160E+02  0.57618675098E+02  0.41800000000E+01 0.  1.
         -5    1    4    4    0  501  0.11077081080E+03  0.81199022101E+02  0.16041602586E+03  0.21122080264E+03  0.41800000000E+01 0.  1.
</event>
<event>
11    1  0.6455215E-009  0.2554273E+03  0.7561462E-02  0.1021047E+00
         22   -1    0    0    0    0  0.00000000000E+00  0.00000000000E+00  0.19484708442E+04  0.19484708442E+04  0.00000000000E+00 0. -1.
         22   -1    0    0    0    0 -0.00000000000E+00 -0.00000000000E+00 -0.58285788371E+03  0.58285788371E+03  0.00000000000E+00 0.  1.
         24    2    1    2    0    0 -0.20877123222E+03 -0.49514716254E+02 -0.45591117852E+03  0.51018176693E+03  0.79958102036E+02 0.  0.
         25    2    1    2    0    0  0.31762420145E+03  0.15522263029E+02  0.20529891817E+03  0.39864945945E+03  0.12509065400E+03 0.  0.
        -24    2    1    2    0    0 -0.10885296923E+03  0.33992453226E+02  0.16162252208E+04  0.16224975015E+04  0.85496913594E+02 0.  0.
        -11    1    3    3    0    0 -0.21095224274E+03 -0.39913692550E+02 -0.45026723746E+03  0.49883317522E+03  0.00000000000E+00 0.  1.
         12    1    3    3    0    0  0.21810105271E+01 -0.96010237041E+01 -0.56439410610E+01  0.11348591709E+02  0.00000000000E+00 0. -1.
         13    1    5    5    0    0 -0.30966858141E+02  0.26365220339E+02  0.10615456298E+04  0.10623244303E+04  0.00000000000E+00 0. -1.
        -14    1    5    5    0    0 -0.77886111087E+02  0.76272328867E+01  0.55467959105E+03  0.56017307121E+03  0.00000000000E+00 0.  1.
          5    1    4    4  501    0  0.32485875850E+03  0.27928996829E+02  0.19072447361E+03  0.37776519040E+03  0.41800000000E+01 0. -1.
         -5    1    4    4    0  501 -0.72345570580E+01 -0.12406733801E+02  0.14574444563E+02  0.20884269050E+02  0.41800000000E+01 0. -1.
</event>
<event>
11    1  0.6455215E-009  0.1327297E+03  0.7561462E-02  0.1115960E+00
         22   -1    0    0    0    0  0.00000000000E+00  0.00000000000E+00  0.45247433613E+02  0.45247433613E+02  0.00000000000E+00 0. -1.
         22   -1    0    0    0    0 -0.00000000000E+00 -0.00000000000E+00 -0.12450758849E+04  0.12450758849E+04  0.00000000000E+00 0. -1.
        -24    2    1    2    0    0  0.17566028615E+02 -0.26520852786E+02 -0.88788987493E+03  0.89217942035E+03  0.81386528946E+02 0.  0.
         25    2    1    2    0    0 -0.12788976637E+02 -0.23470125529E+02 -0.26534594692E+03  0.29456601113E+03  0.12508500569E+03 0.  0.
         24    2    1    2    0    0 -0.47770519777E+01  0.49990978315E+02 -0.46592629443E+02  0.10357788704E+03  0.77689043164E+02 0.  0.
        -11    1    5    5    0    0 -0.28912573617E+02 -0.34581202266E+01 -0.72879576081E+00  0.29127764280E+02  0.00000000000E+00 0.  1.
         12    1    5    5    0    0  0.24135521640E+02  0.53449098541E+02 -0.45863833682E+02  0.74450122765E+02  0.00000000000E+00 0. -1.
         13    1    3    3    0    0 -0.12624600728E+02 -0.21123713255E+02 -0.76912252628E+03  0.76951611564E+03  0.00000000000E+00 0. -1.
        -14    1    3    3    0    0  0.30190629343E+02 -0.53971395304E+01 -0.11876734866E+03  0.12266330471E+03  0.00000000000E+00 0.  1.
          5    1    4    4  501    0 -0.32678774108E+02  0.27477167734E+02 -0.28624210152E+02  0.51572423162E+02  0.41800000000E+01 0. -1.
         -5    1    4    4    0  501  0.19889797471E+02 -0.50947293263E+02 -0.23672173677E+03  0.24299358797E+03  0.41800000000E+01 0. -1.
</event>
<event>
11    1  0.6455215E-009  0.1548302E+03  0.7561462E-02  0.1092043E+00
         22   -1    0    0    0    0  0.00000000000E+00  0.00000000000E+00  0.20363350339E+04  0.20363350339E+04  0.00000000000E+00 0. -1.
         22   -1    0    0    0    0 -0.00000000000E+00 -0.00000000000E+00 -0.17765471037E+03  0.17765471037E+03  0.00000000000E+00 0.  1.
        -24    2    1    2    0    0  0.11011965691E+02 -0.86806221325E+02 -0.85529904360E+02  0.14653422257E+03  0.80624626472E+02 0.  0.
         25    2    1    2    0    0  0.33180596686E+01  0.10577351893E+03  0.50513591973E+02  0.17145944144E+03  0.12509064817E+03 0.  0.
         24    2    1    2    0    0 -0.14330025360E+02 -0.18967297603E+02  0.18936966360E+04  0.18959960803E+04  0.90272252034E+02 0.  0.
        -11    1    5    5    0    0  0.13179445460E+02  0.28740809859E+02  0.10663169100E+04  0.10667855850E+04  0.00000000000E+00 0.  1.
         12    1    5    5    0    0 -0.27509470820E+02 -0.47708107462E+02  0.82737972597E+03  0.82921049526E+03  0.00000000000E+00 0. -1.
         13    1    3    3    0    0  0.21246797071E+01 -0.23332969457E+02  0.14630786313E+02  0.27622484241E+02  0.00000000000E+00 0. -1.
        -14    1    3    3    0    0  0.88872859840E+01 -0.63473251869E+02 -0.10016069067E+03  0.11891173832E+03  0.00000000000E+00 0.  1.
          5    1    4    4  501    0 -0.37780987266E+02  0.15791037612E+01  0.45434487093E+02  0.59259274252E+02  0.41800000000E+01 0.  1.
         -5    1    4    4    0  501  0.41099046935E+02  0.10419441517E+03  0.50791048802E+01  0.11220016719E+03  0.41800000000E+01 0.  1.
</event>
<event>
11    1  0.1636422E-008  0.1561271E+03  0.7561462E-02  0.1090778E+00
         22   -1    0    0    0    0  0.00000000000E+00  0.00000000000E+00  0.66724303229E+03  0.66724303229E+03  0.00000000000E+00 0.  1.
         22   -1    0    0    0    0 -0.00000000000E+00 -0.00000000000E+00 -0.69897425381E+03  0.69897425381E+03  0.00000000000E+00 0.  1.
         24    2    1    2    0    0 -0.14417793155E+02  0.60117383657E+02 -0.45607811479E+03  0.46883212318E+03  0.89299162136E+02 0.  0.
         25    2    1    2    0    0  0.92006631198E+02 -0.11006319634E+03 -0.19115815550E+03  0.26975514939E+03  0.12508905962E+03 0.  0.
        -24    2    1    2    0    0 -0.77588838042E+02  0.49945812686E+02  0.61550504877E+03  0.62763001352E+03  0.80983682476E+02 0.  0.
        -13    1    3    3    0    0 -0.20514257150E+02  0.59744429228E+02 -0.15083708489E+03  0.16352999036E+03  0.00000000000E+00 0.  1.
         14    1    3    3    0    0  0.60964639944E+01  0.37295442909E+00 -0.30524102990E+03  0.30530213282E+03  0.00000000000E+00 0. -1.
         13    1    5    5    0    0 -0.10876793263E+02 -0.21019178177E+02  0.83805872845E+02  0.87083493305E+02  0.00000000000E+00 0. -1.
        -14    1    5    5    0    0 -0.66712044780E+02  0.70964990862E+02  0.53169917592E+03  0.54054652022E+03  0.00000000000E+00 0.  1.
          5    1    4    4  501    0  0.57835026761E+02  0.89430373342E+01 -0.10001560100E+03  0.11595456473E+03  0.41800000000E+01 0. -1.
         -5    1    4    4    0  501  0.34171604437E+02 -0.11900623368E+03 -0.91142554491E+02  0.15380058466E+03  0.41800000000E+01 0. -1.
</event>
<event>
11    1  0.6455215E-009  0.1705846E+03  0.7561462E-02  0.1077524E+00
         22   -1    0    0    0    0  0.00000000000E+00  0.00000000000E+00  0.24279676050E+04  0.24279676050E+04  0.00000000000E+00 0.  1.
         22   -1    0    0    0    0 -0.00000000000E+00 -0.00000000000E+00 -0.15165950472E+03  0.15165950472E+03  0.00000000000E+00 0.  1.
         24    2    1    2    0    0 -0.22997903485E+02  0.26058493182E+02 -0.11508307323E+03  0.14492947379E+03  0.80947452065E+02 0.  0.
         25    2    1    2    0    0  0.12075992259E+03  0.35002507866E+02  0.39156557193E+03  0.42985641546E+03  0.12507920023E+03 0.  0.
        -24    2    1    2    0    0 -0.97762019106E+02 -0.61061001047E+02  0.19998256016E+04  0.20048412205E+04  0.82462259804E+02 0.  0.
        -11    1    3    3    0    0 -0.10292656001E+02 -0.37148568434E+01 -0.11186509032E+03  0.11239900961E+03  0.00000000000E+00 0.  1.
         12    1    3    3    0    0 -0.12705247483E+02  0.29773350025E+02 -0.32179829096E+01  0.32530464173E+02  0.00000000000E+00 0. -1.
         11    1    5    5    0    0 -0.22841289671E+02  0.20457735755E+02  0.37891351888E+03  0.38015220406E+03  0.00000000000E+00 0. -1.
        -12    1    5    5    0    0 -0.74920729435E+02 -0.81518736803E+02  0.16209120828E+04  0.16246890165E+04  0.00000000000E+00 0.  1.
          5    1    4    4  501    0  0.12426786578E+03  0.69061319957E+02  0.32863308418E+03  0.35809097280E+03  0.41800000000E+01 0. -1.
         -5    1    4    4    0  501 -0.35079431905E+01 -0.34058812091E+02  0.62932487745E+02  0.71765442660E+02  0.41800000000E+01 0. -1.
</event>
<event>
11    1  0.6455215E-009  0.1567937E+03  0.7561462E-02  0.1090132E+00
         22   -1    0    0    0    0  0.00000000000E+00  0.00000000000E+00  0.25059316488E+03  0.25059316488E+03  0.00000000000E+00 0. -1.
         22   -1    0    0    0    0 -0.00000000000E+00 -0.00000000000E+00 -0.29323306638E+04  0.29323306638E+04  0.00000000000E+00 0. -1.
        -24    2    1    2    0    0  0.10448578120E+01 -0.30027432505E+02 -0.18521278183E+04  0.18541459590E+04  0.81098974464E+02 0.  0.
         25    2    1    2    0    0 -0.86448139923E+02 -0.10896693283E+02 -0.10578397423E+04  0.10687684853E+04  0.12509650680E+03 0.  0.
         24    2    1    2    0    0  0.85403282111E+02  0.40924125788E+02  0.22823006157E+03  0.26000938444E+03  0.80916094336E+02 0.  0.
        -13    1    5    5    0    0  0.19371805767E+01  0.13287750890E+02 -0.19868719391E+01  0.13574411678E+02  0.00000000000E+00 0.  1.
         14    1    5    5    0    0  0.83466101534E+02  0.27636374898E+02  0.23021693351E+03  0.24643497276E+03  0.00000000000E+00 0. -1.
         13    1    3    3    0    0 -0.30488302594E+02  0.15657675450E+00 -0.12770365590E+04  0.12774004596E+04  0.00000000000E+00 0. -1.
        -14    1    3    3    0    0  0.31533160406E+02 -0.30184009260E+02 -0.57509125923E+03  0.57674549938E+03  0.00000000000E+00 0.  1.
          5    1    4    4  501    0  0.21073325013E+01 -0.52203359101E+02 -0.46073299194E+03  0.46370464071E+03  0.41800000000E+01 0.  1.
         -5    1    4    4    0  501 -0.88555472424E+02  0.41306665819E+02 -0.59710675033E+03  0.60506384459E+03  0.41800000000E+01 0.  1.
</event>
<event>
11    1  0.6455215E-009  0.2091626E+03  0.7561462E-02  0.1048227E+00
         22   -1    0    0    0    0  0.00000000000E+00  0.00000000000E+00  0.24944803609E+03  0.24944803609E+03  0.00000000000E+00 0.  1.
         22   -1    0    0    0    0 -0.00000000000E+00 -0.00000000000E+00 -0.61042875314E+03  0.61042875314E+03  0.00000000000E+00 0. -1.
        -24    2    1    2    0    0 -0.14530516652E+03  0.86270814359E+02 -0.44404244421E+03  0.48221203983E+03  0.82453103457E+02 0.  0.
         25    2    1    2    0    0  0.13270549841E+03 -0.93992716115E+02 -0.58693039254E+02  0.21339034106E+03  0.12508071319E+03 0.  0.
         24    2    1    2    0    0  0.12599668115E+02  0.77219017559E+01  0.14175476641E+03  0.16427440833E+03  0.81690195427E+02 0.  0.
        -11    1    5    5    0    0  0.38965668307E+02  0.24895286777E+02  0.11112900741E+03  0.12036509003E+03  0.00000000000E+00 0.  1.
         12    1    5    5    0    0 -0.26366000192E+02 -0.17173385021E+02  0.30625759004E+02  0.43909318303E+02  0.00000000000E+00 0. -1.
         13    1    3    3    0    0 -0.83135321157E+02  0.93632237761E+02 -0.30662729798E+03  0.33120805763E+03  0.00000000000E+00 0. -1.
        -14    1    3    3    0    0 -0.62169845368E+02 -0.73614234023E+01 -0.13741514623E+03  0.15100398220E+03  0.00000000000E+00 0.  1.
          5    1    4    4  501    0  0.14800045859E+03 -0.54698012068E+02 -0.64714590270E+02  0.17059149704E+03  0.41800000000E+01 0. -1.
         -5    1    4    4    0  501 -0.15294960184E+02 -0.39294704048E+02  0.60215510160E+01  0.42798844025E+02  0.41800000000E+01 0. -1.
</event>
<event>
11    1  0.6455215E-009  0.1360227E+03  0.7561462E-02  0.1112083E+00
         22   -1    0    0    0    0  0.00000000000E+00  0.00000000000E+00  0.13878430009E+04  0.13878430009E+04  0.00000000000E+00 0. -1.
         22   -1    0    0    0    0 -0.00000000000E+00 -0.00000000000E+00 -0.10075061447E+04  0.10075061447E+04  0.00000000000E+00 0.  1.
         24    2    1    2    0    0  0.31319774454E+01  0.54592823860E+02 -0.94355141782E+03  0.94853251467E+03  0.80215133362E+02 0.  0.
         25    2    1    2    0    0  0.88287131128E+01 -0.20252912304E+02  0.71640045570E+01  0.12722593114E+03  0.12508792092E+03 0.  0.
        -24    2    1    2    0    0 -0.11960690558E+02 -0.34339911556E+02  0.13167242695E+04  0.13195906998E+04  0.78959010395E+02 0.  0.
        -11    1    3    3    0    0 -0.38091884168E+02  0.25326134003E+02 -0.38859014542E+03  0.39127318566E+03  0.00000000000E+00 0.  1.
         12    1    3    3    0    0  0.41223861613E+02  0.29266689857E+02 -0.55496127240E+03  0.55725932901E+03  0.00000000000E+00 0. -1.
         13    1    5    5    0    0 -0.31456984523E+02 -0.42999868621E+02  0.11809062740E+04  0.11821075072E+04  0.00000000000E+00 0. -1.
        -14    1    5    5    0    0  0.19496293965E+02  0.86599570648E+01  0.13581799557E+03  0.13748319263E+03  0.00000000000E+00 0.  1.
          5    1    4    4  501    0 -0.51126699853E+01  0.34031724243E+02  0.46953775909E+02  0.58364605040E+02  0.41800000000E+01 0.  1.
         -5    1    4    4    0  501  0.13941383098E+02 -0.54284636547E+02 -0.39789771352E+02  0.68861326098E+02  0.41800000000E+01 0.  1.
</event>
<event>
11    1  0.6455215E-009  0.1473737E+03  0.7561462E-02  0.1099593E+00
         22   -1    0    0    0    0  0.00000000000E+00  0.00000000000E+00  0.90871851498E+03  0.90871851498E+03  0.00000000000E+00 0.  1.
         22   -1    0    0    0    0 -0.00000000000E+00 -0.00000000000E+00 -0.56506960668E+03  0.56506960668E+03  0.00000000000E+00 0.  1.
         24    2    1    2    0    0 -0.33083046545E+02 -0.13496714158E+02 -0.51185886467E+03  0.51931404011E+03  0.80068256190E+02 0.  0.
         25    2    1    2    0    0  0.73489473228E+02  0.77335831031E+02  0.10300082733E+03  0.19400988191E+03  0.12509648441E+03 0.  0.
        -24    2    1    2    0    0 -0.40406426683E+02 -0.63839116873E+02  0.75250694563E+03  0.76046419964E+03  0.79567477957E+02 0.  0.
        -11    1    3    3    0    0 -0.49426622765E+02 -0.42300840975E+00 -0.46921266505E+03  0.47180896030E+03  0.00000000000E+00 0.  1.
         12    1    3    3    0    0  0.16343576220E+02 -0.13073705749E+02 -0.42646199621E+02  0.47505079811E+02  0.00000000000E+00 0. -1.
         13    1    5    5    0    0  0.22946734897E+01 -0.27616521190E+02  0.64740731105E+02  0.70422297840E+02  0.00000000000E+00 0. -1.
        -14    1    5    5    0    0 -0.42701100173E+02 -0.36222595683E+02  0.68776621453E+03  0.69004190180E+03  0.00000000000E+00 0.  1.
          5    1    4    4  501    0  0.69327980864E+02  0.43004386225E+02 -0.36932713972E+01  0.81773215779E+02  0.41800000000E+01 0.  1.
         -5    1    4    4    0  501  0.41614923643E+01  0.34331444807E+02  0.10669409873E+03  0.11223666613E+03  0.41800000000E+01 0.  1.
</event>
<event>
11    1  0.6455215E-009  0.1416493E+03  0.7561462E-02  0.1105731E+00
         22   -1    0    0    0    0  0.00000000000E+00  0.00000000000E+00  0.14954539359E+03  0.14954539359E+03  0.00000000000E+00 0. -1.
         22   -1    0    0    0    0 -0.00000000000E+00 -0.00000000000E+00 -0.65772022085E+03  0.65772022085E+03  0.00000000000E+00 0. -1.
         24    2    1    2    0    0 -0.42475025781E+02  0.49661786728E+02 -0.54923816179E+03  0.55882214840E+03  0.79681957180E+02 0.  0.
         25    2    1    2    0    0  0.34139250087E+02 -0.81263954593E+02 -0.88102086787E-01  0.15302410124E+03  0.12508816525E+03 0.  0.
        -24    2    1    2    0    0  0.83357756940E+01  0.31602167865E+02  0.41151436617E+02  0.95419364796E+02  0.79644411431E+02 0.  0.
        -13    1    3    3    0    0 -0.40416232096E+02 -0.53793242895E+01 -0.13754771589E+03  0.14346352531E+03  0.00000000000E+00 0.  1.
         14    1    3    3    0    0 -0.20587936846E+01  0.55041111018E+02 -0.41169044590E+03  0.41535862309E+03  0.00000000000E+00 0. -1.
         13    1    5    5    0    0  0.26909745562E+02  0.32513560062E+02  0.57042269551E+02  0.70958343482E+02  0.00000000000E+00 0. -1.
        -14    1    5    5    0    0 -0.18573969868E+02 -0.91139219736E+00 -0.15890832934E+02  0.24461021314E+02  0.00000000000E+00 0.  1.
          5    1    4    4  501    0  0.94389213216E+01 -0.62515107820E+02 -0.58833883792E+02  0.86464618334E+02  0.41800000000E+01 0.  1.
         -5    1    4    4    0  501  0.24700328765E+02 -0.18748846773E+02  0.58745781706E+02  0.66559482905E+02  0.41800000000E+01 0.  1.
</event>
<event>
11    1  0.6455215E-009  0.1638331E+03  0.7561462E-02  0.1083526E+00
         22   -1    0    0    0    0  0.00000000000E+00  0.00000000000E+00  0.30951558493E+03  0.30951558493E+03  0.00000000000E+00 0.  1.
         22   -1    0    0    0    0 -0.00000000000E+00 -0.00000000000E+00 -0.56435352583E+03  0.56435352583E+03  0.00000000000E+00 0.  1.
         24    2    1    2    0    0  0.12669217207E+02  0.11532102858E+03 -0.30842408044E+03  0.33968581332E+03  0.82471750810E+02 0.  0.
         25    2    1    2    0    0  0.24510212537E+02 -0.89856042254E+02 -0.20625525574E+03  0.25857859370E+03  0.12508716862E+03 0.  0.
        -24    2    1    2    0    0 -0.37179429744E+02 -0.25464986321E+02  0.25984139528E+03  0.27560470373E+03  0.80060142973E+02 0.  0.
        -13    1    3    3    0    0  0.30430097555E+01  0.12556322237E+03 -0.29317659663E+03  0.31894811417E+03  0.00000000000E+00 0.  1.
         14    1    3    3    0    0  0.96262074513E+01 -0.10242193797E+02 -0.15247483810E+02  0.20737699154E+02  0.00000000000E+00 0. -1.
         13    1    5    5    0    0  0.12467582611E+02 -0.36884925712E+02  0.85004124509E+02  0.93496735475E+02  0.00000000000E+00 0. -1.
        -14    1    5    5    0    0 -0.49647012355E+02  0.11419939391E+02  0.17483727077E+03  0.18210796825E+03  0.00000000000E+00 0.  1.
          5    1    4    4  501    0  0.37658101929E+02 -0.26900710435E+02 -0.18495154633E+03  0.19069957460E+03  0.41800000000E+01 0.  1.
         -5    1    4    4    0  501 -0.13147889392E+02 -0.62955331819E+02 -0.21303709410E+02  0.67879019104E+02  0.41800000000E+01 0.  1.
</event>
<event>
11    1  0.6455215E-009  0.2170902E+03  0.7561462E-02  0.1043056E+00
         22   -1    0    0    0    0  0.00000000000E+00  0.00000000000E+00  0.27542672662E+03  0.27542672662E+03  0.00000000000E+00 0.  1.
         22   -1    0    0    0    0 -0.00000000000E+00 -0.00000000000E+00 -0.58185790161E+03  0.58185790161E+03  0.00000000000E+00 0. -1.
         24    2    1    2    0    0  0.19367311139E+03 -0.43877967463E+02 -0.36884295317E+03  0.42466370005E+03  0.69710716077E+02 0.  0.
         25    2    1    2    0    0 -0.14143472445E+03 -0.50113783136E+02 -0.10193945391E+03  0.22031816748E+03  0.12503307610E+03 0.  0.
        -24    2    1    2    0    0 -0.52238386949E+02  0.93991750599E+02  0.16435123209E+03  0.21230276069E+03  0.80609158631E+02 0.  0.
        -11    1    3    3    0    0  0.35054060693E+02 -0.25890053198E+02 -0.13230932165E+03  0.13930125132E+03  0.00000000000E+00 0.  1.
         12    1    3    3    0    0  0.15861905070E+03 -0.17987914265E+02 -0.23653363152E+03  0.28536244873E+03  0.00000000000E+00 0. -1.
         13    1    5    5    0    0  0.16268395189E+02  0.49851612019E+01  0.57538370560E+01  0.17961602242E+02  0.00000000000E+00 0. -1.
        -14    1    5    5    0    0 -0.68506782139E+02  0.89006589397E+02  0.15859739503E+03  0.19434115845E+03  0.00000000000E+00 0.  1.
          5    1    4    4  501    0 -0.57939584462E+02  0.26709588265E+02 -0.83698541270E+02  0.10532481077E+03  0.41800000000E+01 0. -1.
         -5    1    4    4    0  501 -0.83495139983E+02 -0.76823371401E+02 -0.18240912643E+02  0.11499335671E+03  0.41800000000E+01 0. -1.
</event>
<event>
11    1  0.6455215E-009  0.2186421E+03  0.7561462E-02  0.1042071E+00
         22   -1    0    0    0    0  0.00000000000E+00  0.00000000000E+00  0.10436603427E+03  0.10436603427E+03  0.00000000000E+00 0. -1.
         22   -1    0    0    0    0 -0.00000000000E+00 -0.00000000000E+00 -0.36659436931E+04  0.36659436931E+04  0.00000000000E+00 0.  1.
        -24    2    1    2    0    0 -0.52681515787E+00 -0.95901621667E+01 -0.21627109715E+04  0.21646114272E+04  0.90175583522E+02 0.  0.
         25    2    1    2    0    0  0.57787690209E+02  0.17888495523E+03 -0.13911083413E+04  0.14093123710E+04  0.12505877639E+03 0.  0.
         24    2    1    2    0    0 -0.57260875051E+02 -0.16929479306E+03 -0.77583460883E+01  0.19638592917E+03  0.81041387399E+02 0.  0.
        -13    1    5    5    0    0 -0.27861577551E+02 -0.49841736396E+02 -0.39387222791E+02  0.69367279821E+02  0.00000000000E+00 0.  1.
         14    1    5    5    0    0 -0.29399297500E+02 -0.11945305667E+03  0.31628876702E+02  0.12701864935E+03  0.00000000000E+00 0. -1.
         13    1    3    3    0    0  0.28163387757E+02 -0.10459963645E+02 -0.26728552536E+03  0.26896865861E+03  0.00000000000E+00 0. -1.
        -14    1    3    3    0    0 -0.28690202914E+02  0.86980147848E+00 -0.18954254461E+04  0.18956427686E+04  0.00000000000E+00 0.  1.
          5    1    4    4  501    0  0.20152123059E+02  0.15019613426E+03 -0.12731892612E+04  0.12821830423E+04  0.41800000000E+01 0.  1.
         -5    1    4    4    0  501  0.37635567149E+02  0.28688820971E+02 -0.11791908012E+03  0.12712932872E+03  0.41800000000E+01 0.  1.
</event>
<event>
11    1  0.6455215E-009  0.1327435E+03  0.7561462E-02  0.1115943E+00
         22   -1    0    0    0    0  0.00000000000E+00  0.00000000000E+00  0.41563707770E+03  0.41563707770E+03  0.00000000000E+00 0. -1.
         22   -1    0    0    0    0 -0.00000000000E+00 -0.00000000000E+00 -0.18135532477E+04  0.18135532477E+04  0.00000000000E+00 0.  1.
         24    2    1    2    0    0  0.38950982445E+02 -0.19545505854E+02 -0.16948321918E+04  0.16973734421E+04  0.81983155827E+02 0.  0.
         25    2    1    2    0    0 -0.59918447952E+02  0.52218963805E+02 -0.63038072590E+02  0.16105263155E+03  0.12508841252E+03 0.  0.
        -24    2    1    2    0    0  0.20967465507E+02 -0.32673457950E+02  0.35995409436E+03  0.37076425175E+03  0.79949927274E+02 0.  0.
        -11    1    3    3    0    0  0.27976913452E+01 -0.27139851582E+02 -0.13959822325E+04  0.13962488289E+04  0.00000000000E+00 0.  1.
         12    1    3    3    0    0  0.36153291100E+02  0.75943457282E+01 -0.29884995932E+03  0.30112461329E+03  0.00000000000E+00 0. -1.
         13    1    5    5    0    0 -0.19979177523E+02 -0.36385409063E+02  0.24902570794E+03  0.25246161836E+03  0.00000000000E+00 0. -1.
        -14    1    5    5    0    0  0.40946643030E+02  0.37119511127E+01  0.11092838641E+03  0.11830263340E+03  0.00000000000E+00 0.  1.
          5    1    4    4  501    0 -0.69825465799E+02 -0.21390707851E+02 -0.38870782469E+02  0.82834583274E+02  0.41800000000E+01 0.  1.
         -5    1    4    4    0  501  0.99070178469E+01  0.73609671655E+02 -0.24167290120E+02  0.78218048273E+02  0.41800000000E+01 0.  1.
</event>
<event>
11    1  0.6455215E-009  0.1569647E+03  0.7561462E-02  0.1089967E+00
         22   -1    0    0    0    0  0.00000000000E+00  0.00000000000E+00  0.26259287453E+04  0.26259287453E+04  0.00000000000E+00 0.  1.
         22   -1    0    0    0    0 -0.00000000000E+00 -0.00000000000E+00 -0.96444838035E+02  0.96444838035E+02  0.00000000000E+00 0.  1.
        -24    2    1    2    0    0  0.37135133733E+02 -0.87896839461E+02 -0.41922021167E+02  0.13165104393E+03  0.80434252428E+02 0.  0.
         25    2    1    2    0    0 -0.56743207366E+00  0.92101177337E+02  0.68997433258E+03  0.70724460388E+03  0.12508957291E+03 0.  0.
         24    2    1    2    0    0 -0.36567701659E+02 -0.42043378765E+01  0.18814315959E+04  0.18834779356E+04  0.79683188273E+02 0.  0.
        -11    1    5    5    0    0 -0.36150319104E+02 -0.37814842823E+02  0.13246666383E+04  0.13256992534E+04  0.00000000000E+00 0.  1.
         12    1    5    5    0    0 -0.41738255524E+00  0.33610504946E+02  0.55676495758E+03  0.55777868213E+03  0.00000000000E+00 0. -1.
         11    1    3    3    0    0 -0.86377425567E+01  0.10368459760E+02 -0.14551577867E+02  0.19846006467E+02  0.00000000000E+00 0. -1.
        -12    1    3    3    0    0  0.45772876290E+02 -0.98265299221E+02 -0.27370443300E+02  0.11180503746E+03  0.00000000000E+00 0.  1.
          5    1    4    4  501    0  0.54964579455E+02  0.38441914842E+02  0.19476988184E+03  0.20603801854E+03  0.41800000000E+01 0. -1.
         -5    1    4    4    0  501 -0.55532011529E+02  0.53659262495E+02  0.49520445073E+03  0.50120658533E+03  0.41800000000E+01 0. -1.
</event>
<event>
11    1  0.6455215E-009  0.1263853E+03  0.7561462E-02  0.1123792E+00
         22   -1    0    0    0    0  0.00000000000E+00  0.00000000000E+00  0.33056947136E+03  0.33056947136E+03  0.00000000000E+00 0.  1.
         22   -1    0    0    0    0 -0.00000000000E+00 -0.00000000000E+00 -0.97182804713E+03  0.97182804713E+03  0.00000000000E+00 0.  1.
         24    2    1    2    0    0  0.17786307658E+02  0.62959919554E+00 -0.72254005039E+03  0.72766572189E+03  0.84359523813E+02 0.  0.
         25    2    1    2    0    0 -0.17613944012E+02 -0.19011264017E+02 -0.22442723676E+03  0.25823954150E+03  0.12509355304E+03 0.  0.
        -24    2    1    2    0    0 -0.17236364591E+00  0.18381664821E+02  0.30570871138E+03  0.31649225510E+03  0.79822402961E+02 0.  0.
        -11    1    3    3    0    0 -0.24096338766E+02 -0.26795384017E+02 -0.32128647414E+03  0.32330113611E+03  0.00000000000E+00 0.  1.
         12    1    3    3    0    0  0.41882646424E+02  0.27424983213E+02 -0.40125357626E+03  0.40436458578E+03  0.00000000000E+00 0. -1.
         13    1    5    5    0    0  0.23823295928E+02 -0.23179504345E+02  0.14559665730E+03  0.14934264451E+03  0.00000000000E+00 0. -1.
        -14    1    5    5    0    0 -0.23995659574E+02  0.41561169167E+02  0.16011205407E+03  0.16714961059E+03  0.00000000000E+00 0.  1.
          5    1    4    4  501    0 -0.61110136888E+02 -0.15182571807E+02 -0.19614838752E+03  0.20605004646E+03  0.41800000000E+01 0. -1.
         -5    1    4    4    0  501  0.43496192876E+02 -0.38286922097E+01 -0.28278849235E+02  0.52189495042E+02  0.41800000000E+01 0. -1.
</event>
<event>
11    1  0.6455215E-009  0.1360109E+03  0.7561462E-02  0.1112096E+00
         22   -1    0    0    0    0  0.00000000000E+00  0.00000000000E+00  0.16627208560E+04  0.16627208560E+04  0.00000000000E+00 0.  1.
         22   -1    0    0    0    0 -0.00000000000E+00 -0.00000000000E+00 -0.34855189177E+03  0.34855189177E+03  0.00000000000E+00 0.  1.
         24    2    1    2    0    0  0.38201172885E+02  0.36819625723E+02 -0.33041354346E+03  0.34874364861E+03  0.98152984133E+02 0.  0.
         25    2    1    2    0    0 -0.49004642390E+02 -0.80847946168E+02  0.95548098623E+03  0.96825985425E+03  0.12508151315E+03 0.  0.
        -24    2    1    2    0    0  0.10803469504E+02  0.44028320445E+02  0.68910152149E+03  0.69426924494E+03  0.71369948820E+02 0.  0.
        -13    1    3    3    0    0  0.13801784705E+01  0.51153320733E+02 -0.28026944688E+03  0.28490266754E+03  0.00000000000E+00 0.  1.
         14    1    3    3    0    0  0.36820994415E+02 -0.14333695010E+02 -0.50144096578E+02  0.63840981070E+02  0.00000000000E+00 0. -1.
         13    1    5    5    0    0  0.15653611749E+02  0.32156748747E+02  0.12483750032E+03  0.12985951462E+03  0.00000000000E+00 0. -1.
        -14    1    5    5    0    0 -0.48501422449E+01  0.11871571698E+02  0.56426402116E+03  0.56440973031E+03  0.00000000000E+00 0.  1.
          5    1    4    4  501    0 -0.18723896675E+02 -0.48393687730E+02  0.11098045008E+03  0.12258330237E+03  0.41800000000E+01 0. -1.
         -5    1    4    4    0  501 -0.30280745715E+02 -0.32454258438E+02  0.84450053615E+03  0.84567655188E+03  0.41800000000E+01 0. -1.
</event>
<event>
11    1  0.6455215E-009  0.2396714E+03  0.7561462E-02  0.1029550E+00
         22   -1    0    0    0    0  0.00000000000E+00  0.00000000000E+00  0.39268622333E+03  0.39268622333E+03  0.00000000000E+00 0.  1.
         22   -1    0    0    0    0 -0.00000000000E+00 -0.00000000000E+00 -0.73269270555E+03  0.73269270555E+03  0.00000000000E+00 0.  1.
        -24    2    1    2    0    0 -0.11486941556E+02 -0.20192499449E+02 -0.48735375738E+03  0.49414550432E+03  0.78271372475E+02 0.  0.
         25    2    1    2    0    0  0.78428062773E+02 -0.17549965596E+03 -0.13968833609E+03  0.26853650553E+03  0.12509169954E+03 0.  0.
         24    2    1    2    0    0 -0.66941121216E+02  0.19569215541E+03  0.28703561124E+03  0.36269691903E+03  0.79894177240E+02 0.  0.
        -11    1    5    5    0    0 -0.41240989010E+02  0.16465366377E+03  0.27005219093E+03  0.31896682272E+03  0.00000000000E+00 0.  1.
         12    1    5    5    0    0 -0.25700132207E+02  0.31038491632E+02  0.16983420315E+02  0.43730096316E+02  0.00000000000E+00 0. -1.
         13    1    3    3    0    0  0.29207469064E+02  0.98449937949E+01 -0.16634464229E+03  0.16917606264E+03  0.00000000000E+00 0. -1.
        -14    1    3    3    0    0 -0.40694410620E+02 -0.30037493244E+02 -0.32100911509E+03  0.32496944168E+03  0.00000000000E+00 0.  1.
          5    1    4    4  501    0  0.49493105342E+02 -0.18882494500E+03 -0.13143065562E+03  0.23536337218E+03  0.41800000000E+01 0.  1.
         -5    1    4    4    0  501  0.28934957431E+02  0.13325289039E+02 -0.82576804653E+01  0.33173133349E+02  0.41800000000E+01 0.  1.
</event>
<event>
11    1  0.6455215E-009  0.1394024E+03  0.7561462E-02  0.1108228E+00
         22   -1    0    0    0    0  0.00000000000E+00  0.00000000000E+00  0.38602210120E+03  0.38602210120E+03  0.00000000000E+00 0. -1.
         22   -1    0    0    0    0 -0.00000000000E+00 -0.00000000000E+00 -0.20020648122E+04  0.20020648122E+04  0.00000000000E+00 0. -1.
         24    2    1    2    0    0  0.21003099632E+02  0.56916040391E+02 -0.18602508779E+04  0.18630445005E+04  0.81981194384E+02 0.  0.
         25    2    1    2    0    0 -0.13937723558E+02 -0.89581921251E+02 -0.90181671398E+02  0.17888223046E+03  0.12508772028E+03 0.  0.
        -24    2    1    2    0    0 -0.70653760739E+01  0.32665880860E+02  0.33438983836E+03  0.34616018240E+03  0.83026071639E+02 0.  0.
        -13    1    3    3    0    0 -0.66510145102E+01  0.30580310910E+02 -0.20697074719E+03  0.20932339000E+03  0.00000000000E+00 0.  1.
         14    1    3    3    0    0  0.27654114142E+02  0.26335729481E+02 -0.16532801307E+04  0.16537211105E+04  0.00000000000E+00 0. -1.
         11    1    5    5    0    0  0.25477165858E+02 -0.15571249426E+02  0.14460218662E+03  0.14765277568E+03  0.00000000000E+00 0. -1.
        -12    1    5    5    0    0 -0.32542541932E+02  0.48237130285E+02  0.18978765173E+03  0.19850740672E+03  0.00000000000E+00 0.  1.
          5    1    4    4  501    0 -0.14984318300E+02 -0.31020441282E+02  0.29515999188E+02  0.45557262652E+02  0.41800000000E+01 0. -1.
         -5    1    4    4    0  501  0.10465947419E+01 -0.58561479969E+02 -0.11969767059E+03  0.13332496781E+03  0.41800000000E+01 0. -1.
</event>
<event>
11    1  0.6455215E-009  0.1455263E+03  0.7561462E-02  0.1101540E+00
         22   -1    0    0    0    0  0.00000000000E+00  0.00000000000E+00  0.86881296761E+03  0.86881296761E+03  0.00000000000E+00 0. -1.
         22   -1    0    0    0    0 -0.00000000000E+00 -0.00000000000E+00 -0.19269999349E+03  0.19269999349E+03  0.00000000000E+00 0. -1.
         24    2    1    2    0    0 -0.33894838451E+02  0.61279957437E+02 -0.11890994044E+03  0.16224417845E+03  0.85320022556E+02 0.  0.
         25    2    1    2    0    0  0.85663603009E+02 -0.68306308950E+02  0.93035339673E+02  0.19054155752E+03  0.12508599439E+03 0.  0.
        -24    2    1    2    0    0 -0.51768764558E+02  0.70263515131E+01  0.70198757490E+03  0.70872722513E+03  0.82330733801E+02 0.  0.
        -13    1    3    3    0    0 -0.15763753352E+02 -0.20689961228E+02 -0.22366415878E+02  0.34304911815E+02  0.00000000000E+00 0.  1.
         14    1    3    3    0    0 -0.18131085098E+02  0.81969918665E+02 -0.96543524565E+02  0.12793926664E+03  0.00000000000E+00 0. -1.
         11    1    5    5    0    0 -0.60736050353E+02  0.33276455600E+02  0.53251069781E+03  0.53699518955E+03  0.00000000000E+00 0. -1.
        -12    1    5    5    0    0  0.89672857946E+01 -0.26250104087E+02  0.16947687708E+03  0.17173203558E+03  0.00000000000E+00 0.  1.
          5    1    4    4  501    0  0.83499844549E+02 -0.98652857409E+02  0.93915924987E+02  0.15981953473E+03  0.41800000000E+01 0.  1.
         -5    1    4    4    0  501  0.21637584600E+01  0.30346548459E+02 -0.88058531407E+00  0.30722022794E+02  0.41800000000E+01 0.  1.
</event>
<event>
11    1  0.6455215E-009  0.1595624E+03  0.7561462E-02  0.1087490E+00
         22   -1    0    0    0    0  0.00000000000E+00  0.00000000000E+00  0.50639011362E+03  0.50639011362E+03  0.00000000000E+00 0.  1.
         22   -1    0    0    0    0 -0.00000000000E+00 -0.00000000000E+00 -0.67986653469E+03  0.67986653469E+03  0.00000000000E+00 0.  1.
         24    2    1    2    0    0  0.32444943171E+02  0.92092378325E+02 -0.54248659202E+03  0.55520494788E+03  0.66536840528E+02 0.  0.
         25    2    1    2    0    0 -0.85266271766E+02 -0.87882170716E+02 -0.64701807555E+02  0.18663029967E+03  0.12510368429E+03 0.  0.
        -24    2    1    2    0    0  0.52821328596E+02 -0.42102076092E+01  0.43371197851E+03  0.44442140076E+03  0.81218732750E+02 0.  0.
        -13    1    3    3    0    0  0.19152743339E+02  0.94096300400E+02 -0.52160749198E+03  0.53037280946E+03  0.00000000000E+00 0.  1.
         14    1    3    3    0    0  0.13292199832E+02 -0.20039220747E+01 -0.20879100044E+02  0.24832138423E+02  0.00000000000E+00 0. -1.
         11    1    5    5    0    0  0.17781940229E+02  0.28415364094E+02  0.70451768874E+02  0.78019754245E+02  0.00000000000E+00 0. -1.
        -12    1    5    5    0    0  0.35039388367E+02 -0.32625571703E+02  0.36326020963E+03  0.36640164651E+03  0.00000000000E+00 0.  1.
          5    1    4    4  501    0 -0.34862611954E+01 -0.30064442868E+02 -0.79623673126E+02  0.85284385817E+02  0.41800000000E+01 0. -1.
         -5    1    4    4    0  501 -0.81780010571E+02 -0.57817727847E+02  0.14921865571E+02  0.10134591385E+03  0.41800000000E+01 0. -1.
</event>
<event>
11    1  0.6455215E-009  0.1511513E+03  0.7561462E-02  0.1095708E+00
         22   -1    0    0    0    0  0.00000000000E+00  0.00000000000E+00  0.14654123687E+04  0.14654123687E+04  0.00000000000E+00 0.  1.
         22   -1    0    0    0    0 -0.00000000000E+00 -0.00000000000E+00 -0.22850049634E+04  0.22850049634E+04  0.00000000000E+00 0.  1.
         24    2    1    2    0    0  0.78132447426E+01 -0.21564622212E+02 -0.22621095936E+04  0.22637488035E+04  0.83022602785E+02 0.  0.
         25    2    1    2    0    0  0.81477911863E+01  0.10215888352E+03  0.32368112588E+03  0.36182919255E+03  0.12509224333E+03 0.  0.
        -24    2    1    2    0    0 -0.15961035929E+02 -0.80594261311E+02  0.11188358730E+04  0.11248393361E+04  0.81973359961E+02 0.  0.
        -13    1    3    3    0    0  0.71276628514E+01 -0.14373272598E+02 -0.22464061932E+04  0.22464634828E+04  0.00000000000E+00 0.  1.
         14    1    3    3    0    0  0.68558189120E+00 -0.71913496147E+01 -0.15703400356E+02  0.17285320782E+02  0.00000000000E+00 0. -1.
         11    1    5    5    0    0 -0.31601683652E+02  0.10998361607E+01  0.38768046731E+03  0.38896789171E+03  0.00000000000E+00 0. -1.
        -12    1    5    5    0    0  0.15640647723E+02 -0.81694097472E+02  0.73115540565E+03  0.73587144437E+03  0.00000000000E+00 0.  1.
          5    1    4    4  501    0 -0.26426993130E+02  0.16376121264E+01  0.69249077786E+01  0.27685636838E+02  0.41800000000E+01 0. -1.
         -5    1    4    4    0  501  0.34574784316E+02  0.10052127140E+03  0.31675621810E+03  0.33414355571E+03  0.41800000000E+01 0. -1.
</event>
<event>
11    1  0.6455215E-009  0.1510514E+03  0.7561462E-02  0.1095809E+00
         22   -1    0    0    0    0  0.00000000000E+00  0.00000000000E+00  0.87238266721E+03  0.87238266721E+03  0.00000000000E+00 0. -1.
         22   -1    0    0    0    0 -0.00000000000E+00 -0.00000000000E+00 -0.48815500701E+03  0.48815500701E+03  0.00000000000E+00 0. -1.
        -24    2    1    2    0    0 -0.16235292590E+02 -0.70786999735E+02 -0.40494435365E+03  0.41989306059E+03  0.83999218558E+02 0.  0.
         25    2    1    2    0    0 -0.33982165380E+02  0.13549510589E+03  0.52000950252E+02  0.19459107142E+03  0.12509146639E+03 0.  0.
         24    2    1    2    0    0  0.50217457970E+02 -0.64708106157E+02  0.73717106360E+03  0.74605354222E+03  0.80410066303E+02 0.  0.
        -13    1    5    5    0    0  0.54032224405E+02 -0.68503570040E+02  0.42633723848E+03  0.43517313945E+03  0.00000000000E+00 0.  1.
         14    1    5    5    0    0 -0.38147664353E+01  0.37954638831E+01  0.31083382512E+03  0.31088040277E+03  0.00000000000E+00 0. -1.
         13    1    3    3    0    0  0.57997466276E+01 -0.72070726762E+02 -0.37897571477E+03  0.38581137762E+03  0.00000000000E+00 0. -1.
        -14    1    3    3    0    0 -0.22035039217E+02  0.12837270273E+01 -0.25968638880E+02  0.34081682964E+02  0.00000000000E+00 0.  1.
          5    1    4    4  501    0 -0.50458285499E+02  0.14445992524E+03  0.69944861798E+02  0.16829873638E+03  0.41800000000E+01 0.  1.
         -5    1    4    4    0  501  0.16476120119E+02 -0.89648193488E+01 -0.17943911546E+02  0.26292335037E+02  0.41800000000E+01 0.  1.
</event>
<event>
11    1  0.6455215E-009  0.1655113E+03  0.7561462E-02  0.1082005E+00
         22   -1    0    0    0    0  0.00000000000E+00  0.00000000000E+00  0.33242404968E+03  0.33242404968E+03  0.00000000000E+00 0.  1.
         22   -1    0    0    0    0 -0.00000000000E+00 -0.00000000000E+00 -0.10701078835E+04  0.10701078835E+04  0.00000000000E+00 0. -1.
        -24    2    1    2    0    0 -0.11771829431E+03 -0.19456888079E+02 -0.93951070797E+03  0.95054140267E+03  0.81316790959E+02 0.  0.
         25    2    1    2    0    0  0.35404792827E+02 -0.36745386371E+01 -0.75890220336E+02  0.15057512167E+03  0.12508613086E+03 0.  0.
         24    2    1    2    0    0  0.82313501479E+02  0.23131426716E+02  0.27771709452E+03  0.30141540880E+03  0.80086757012E+02 0.  0.
        -13    1    5    5    0    0  0.37997807485E+02  0.28782092934E+02  0.23436729991E+03  0.23916578667E+03  0.00000000000E+00 0.  1.
         14    1    5    5    0    0  0.44315693994E+02 -0.56506662180E+01  0.43349794607E+02  0.62249622130E+02  0.00000000000E+00 0. -1.
         11    1    3    3    0    0 -0.66188255951E+02  0.91682056264E+01 -0.72519323821E+03  0.72826518107E+03  0.00000000000E+00 0. -1.
        -12    1    3    3    0    0 -0.51530038355E+02 -0.28625093705E+02 -0.21431746977E+03  0.22227622160E+03  0.00000000000E+00 0.  1.
          5    1    4    4  501    0 -0.13672757733E+02 -0.31870112392E+02 -0.86094487737E+02  0.92910610732E+02  0.41800000000E+01 0. -1.
         -5    1    4    4    0  501  0.49077550560E+02  0.28195573755E+02  0.10204267402E+02  0.57664510936E+02  0.41800000000E+01 0. -1.
</event>
<event>
11    1  0.6455215E-009  0.1416232E+03  0.7561462E-02  0.1105759E+00
         22   -1    0    0    0    0  0.00000000000E+00  0.00000000000E+00  0.87462269045E+03  0.87462269045E+03  0.00000000000E+00 0. -1.
         22   -1    0    0    0    0 -0.00000000000E+00 -0.00000000000E+00 -0.25848537367E+03  0.25848537367E+03  0.00000000000E+00 0.  1.
        -24    2    1    2    0    0 -0.14357090367E+02 -0.65967951312E+02 -0.19755713455E+03  0.22320996536E+03  0.78968161836E+02 0.  0.
         25    2    1    2    0    0 -0.20402763907E+02  0.61756790157E+02  0.62934089346E+02  0.15440360215E+03  0.12509835670E+03 0.  0.
         24    2    1    2    0    0  0.34759854274E+02  0.42111611541E+01  0.75076036197E+03  0.75549449661E+03  0.76842904353E+02 0.  0.
        -11    1    5    5    0    0 -0.49961862359E+01 -0.30961548838E+02  0.27768307088E+03  0.27944850552E+03  0.00000000000E+00 0.  1.
         12    1    5    5    0    0  0.39756040510E+02  0.35172709992E+02  0.47307729109E+03  0.47604599109E+03  0.00000000000E+00 0. -1.
         11    1    3    3    0    0 -0.36248477306E+02 -0.92498017547E+01 -0.42276396592E+02  0.56451790479E+02  0.00000000000E+00 0. -1.
        -12    1    3    3    0    0  0.21891386939E+02 -0.56718149557E+02 -0.15528073795E+03  0.16675817488E+03  0.00000000000E+00 0.  1.
          5    1    4    4  501    0 -0.39154782980E+02  0.93001978423E+02  0.60307206007E+02  0.11763033842E+03  0.41800000000E+01 0.  1.
         -5    1    4    4    0  501  0.18752019073E+02 -0.31245188265E+02  0.26268833387E+01  0.36773263727E+02  0.41800000000E+01 0.  1.
</event>
<event>
11    1  0.6455215E-009  0.1558540E+03  0.7561462E-02  0.1091043E+00
         22   -1    0    0    0    0  0.00000000000E+00  0.00000000000E+00  0.63193290563E+03  0.63193290563E+03  0.00000000000E+00 0.  1.
         22   -1    0    0    0    0 -0.00000000000E+00 -0.00000000000E+00 -0.43628977713E+03  0.43628977713E+03  0.00000000000E+00 0. -1.
        -24    2    1    2    0    0 -0.65324651818E+02  0.31514898164E+02 -0.35238251015E+03  0.36819602922E+03  0.78322305452E+02 0.  0.
         25    2    1    2    0    0  0.13111892330E+03  0.30173078675E+02  0.54306322596E+02  0.19157860845E+03  0.12510235736E+03 0.  0.
         24    2    1    2    0    0 -0.65794271479E+02 -0.61687976839E+02  0.49371931605E+03  0.50844804509E+03  0.81402449999E+02 0.  0.
        -11    1    5    5    0    0 -0.17054777812E+02 -0.46095360395E+02  0.38683915577E+03  0.38994894554E+03  0.00000000000E+00 0.  1.
         12    1    5    5    0    0 -0.48739493668E+02 -0.15592616444E+02  0.10688016029E+03  0.11849909955E+03  0.00000000000E+00 0. -1.
         13    1    3    3    0    0 -0.32481331176E+02  0.29455541929E+02 -0.31644279593E+03  0.31946628761E+03  0.00000000000E+00 0. -1.
        -14    1    3    3    0    0 -0.32843320642E+02  0.20593562359E+01 -0.35939714228E+02  0.48729741613E+02  0.00000000000E+00 0.  1.
          5    1    4    4  501    0  0.11383887545E+03  0.50469508003E+02  0.84911731716E+02  0.15077776820E+03  0.41800000000E+01 0.  1.
         -5    1    4    4    0  501  0.17280047848E+02 -0.20296429328E+02 -0.30605409120E+02  0.40800840242E+02  0.41800000000E+01 0.  1.
</event>
<event>
11    1  0.6455215E-009  0.1460015E+03  0.7561462E-02  0.1101036E+00
         22   -1    0    0    0    0  0.00000000000E+00  0.00000000000E+00  0.10578929332E+04  0.10578929332E+04  0.00000000000E+00 0.  1.
         22   -1    0    0    0    0 -0.00000000000E+00 -0.00000000000E+00 -0.16730602454E+03  0.16730602454E+03  0.00000000000E+00 0. -1.
         24    2    1    2    0    0 -0.79192061469E+02  0.40220784961E+02 -0.12371292036E+03  0.17329152665E+03  0.82679939539E+02 0.  0.
         25    2    1    2    0    0 -0.34106462056E+02 -0.41154549728E+01  0.43933224652E+03  0.45808283534E+03  0.12508746332E+03 0.  0.
        -24    2    1    2    0    0  0.11329852352E+03 -0.36105329989E+02  0.57496758254E+03  0.59382459579E+03  0.88880702682E+02 0.  0.
        -13    1    3    3    0    0 -0.44129484537E+02  0.53120335322E+02 -0.35838185792E+02  0.77804607775E+02  0.00000000000E+00 0.  1.
         14    1    3    3    0    0 -0.35062576931E+02 -0.12899550361E+02 -0.87874734571E+02  0.95486918877E+02  0.00000000000E+00 0. -1.
         13    1    5    5    0    0  0.33403787911E+02  0.20034398554E+02  0.76087163371E+02  0.85477755013E+02  0.00000000000E+00 0. -1.
        -14    1    5    5    0    0  0.79894735613E+02 -0.56139728543E+02  0.49888041917E+03  0.50834684078E+03  0.00000000000E+00 0.  1.
          5    1    4    4  501    0  0.11653541913E+01 -0.19192052943E+02  0.28306394362E+01  0.19879081120E+02  0.41800000000E+01 0.  1.
         -5    1    4    4    0  501 -0.35271816247E+02  0.15076597970E+02  0.43650160708E+03  0.43820375422E+03  0.41800000000E+01 0.  1.
</event>
<event>
11    1  0.6455215E-009  0.1315071E+03  0.7561462E-02  0.1117431E+00
         22   -1    0    0    0    0  0.00000000000E+00  0.00000000000E+00  0.65201301621E+03  0.65201301621E+03  0.00000000000E+00 0.  1.
         22   -1    0    0    0    0 -0.00000000000E+00 -0.00000000000E+00 -0.75127085617E+02  0.75127085617E+02  0.00000000000E+00 0.  1.
         24    2    1    2    0    0 -0.42473209313E+02  0.61376874747E+01 -0.38135839064E+01  0.92207923917E+02  0.81523696519E+02 0.  0.
         25    2    1    2    0    0  0.28087976919E+02 -0.18333795989E+02  0.16029496516E+03  0.20607520057E+03  0.12508976741E+03 0.  0.
        -24    2    1    2    0    0  0.14385232394E+02  0.12196108514E+02  0.42040454934E+03  0.42885697734E+03  0.82599285303E+02 0.  0.
        -11    1    3    3    0    0 -0.57335523246E+02  0.22323371666E+02 -0.20241262337E+02  0.64771937206E+02  0.00000000000E+00 0.  1.
         12    1    3    3    0    0  0.14862313934E+02 -0.16185684191E+02  0.16427678430E+02  0.27435986711E+02  0.00000000000E+00 0. -1.
         11    1    5    5    0    0 -0.40256606101E+01  0.12941823268E+02  0.74008562967E+01  0.15442454687E+02  0.00000000000E+00 0. -1.
        -12    1    5    5    0    0  0.18410893004E+02 -0.74571475405E+00  0.41300369305E+03  0.41341452265E+03  0.00000000000E+00 0.  1.
          5    1    4    4  501    0 -0.14014757930E+02  0.13493551924E+02  0.15101923041E+03  0.15232455395E+03  0.41800000000E+01 0.  1.
         -5    1    4    4    0  501  0.42102734848E+02 -0.31827347913E+02  0.92757347525E+01  0.53750646620E+02  0.41800000000E+01 0.  1.
</event>
<event>
11    1  0.6455215E-009  0.1308775E+03  0.7561462E-02  0.1118195E+00
         22   -1    0    0    0    0  0.00000000000E+00  0.00000000000E+00  0.23693230119E+03  0.23693230119E+03  0.00000000000E+00 0. -1.
         22   -1    0    0    0    0 -0.00000000000E+00 -0.00000000000E+00 -0.66385122346E+03  0.66385122346E+03  0.00000000000E+00 0.  1.
         24    2    1    2    0    0  0.16922431867E+02 -0.92489979075E-01 -0.59385043593E+03  0.59940827409E+03  0.79659033025E+02 0.  0.
         25    2    1    2    0    0 -0.51832315611E+02  0.10501377347E+00  0.33667476490E+02  0.13952103244E+03  0.12508404994E+03 0.  0.
        -24    2    1    2    0    0  0.34909883744E+02 -0.12523794394E-01  0.13326403717E+03  0.16185421813E+03  0.84963428506E+02 0.  0.
        -13    1    3    3    0    0  0.28213497398E+02 -0.62064757405E+01 -0.57923012960E+03  0.57995005373E+03  0.00000000000E+00 0.  1.
         14    1    3    3    0    0 -0.11291065532E+02  0.61139857614E+01 -0.14620306322E+02  0.19458220363E+02  0.00000000000E+00 0. -1.
         13    1    5    5    0    0  0.37793631322E+02 -0.13123936753E+02  0.14085869653E+03  0.14643008117E+03  0.00000000000E+00 0. -1.
        -14    1    5    5    0    0 -0.28837475782E+01  0.13111412958E+02 -0.75946593642E+01  0.15424136952E+02  0.00000000000E+00 0.  1.
          5    1    4    4  501    0  0.35725518336E+02 -0.18361656598E+02  0.29186213622E+02  0.49827407709E+02  0.41800000000E+01 0. -1.
         -5    1    4    4    0  501 -0.87557833947E+02  0.18466670371E+02  0.44812628681E+01  0.89693624729E+02  0.41800000000E+01 0. -1.
</event>
<event>
11    1  0.6455215E-009  0.1277990E+03  0.7561462E-02  0.1122003E+00
         22   -1    0    0    0    0  0.00000000000E+00  0.00000000000E+00  0.18511770786E+04  0.18511770786E+04  0.00000000000E+00 0.  1.
         22   -1    0    0    0    0 -0.00000000000E+00 -0.00000000000E+00 -0.34260042268E+03  0.34260042268E+03  0.00000000000E+00 0.  1.
         24    2    1    2    0    0 -0.93971451562E+01 -0.19860950117E+02 -0.27896122301E+03  0.29127745507E+03  0.80872913970E+02 0.  0.
         25    2    1    2    0    0  0.10549754613E+02 -0.66928908445E+01  0.13917636178E+02  0.12648038035E+03  0.12508994326E+03 0.  0.
        -24    2    1    2    0    0 -0.11526094564E+01  0.26553840962E+02  0.17736202427E+04  0.17760196658E+04  0.88377899002E+02 0.  0.
        -13    1    3    3    0    0  0.22367310553E+02 -0.23185018230E+02 -0.23354069322E+03  0.23575219414E+03  0.00000000000E+00 0.  1.
         14    1    3    3    0    0 -0.31764455709E+02  0.33240681125E+01 -0.45420529785E+02  0.55525260929E+02  0.00000000000E+00 0. -1.
         11    1    5    5    0    0 -0.53283085265E+01 -0.26847147301E+02  0.25691389774E+03  0.25836778252E+03  0.00000000000E+00 0. -1.
        -12    1    5    5    0    0  0.41756990701E+01  0.53400988263E+02  0.15167063450E+04  0.15176518833E+04  0.00000000000E+00 0.  1.
          5    1    4    4  501    0  0.62233563766E+02  0.26644587336E+01 -0.17878003301E+02  0.64940058526E+02  0.41800000000E+01 0.  1.
         -5    1    4    4    0  501 -0.51683809154E+02 -0.93573495781E+01  0.31795639478E+02  0.61540321819E+02  0.41800000000E+01 0.  1.
</event>
<event>
11    1  0.6455215E-009  0.1419946E+03  0.7561462E-02  0.1105351E+00
         22   -1    0    0    0    0  0.00000000000E+00  0.00000000000E+00  0.18790124792E+04  0.18790124792E+04  0.00000000000E+00 0. -1.
         22   -1    0    0    0    0 -0.00000000000E+00 -0.00000000000E+00 -0.74559794916E+02  0.74559794916E+02  0.00000000000E+00 0.  1.
         24    2    1    2    0    0  0.20793217299E+02 -0.60647331781E+02 -0.54681327520E+00  0.10363590024E+03  0.81422626320E+02 0.  0.
         25    2    1    2    0    0 -0.58754240061E+02  0.67073482231E+02  0.25706797456E+03  0.29946974949E+03  0.12508906656E+03 0.  0.
        -24    2    1    2    0    0  0.37961022762E+02 -0.64261504499E+01  0.15479315230E+04  0.15504666244E+04  0.79827431079E+02 0.  0.
        -11    1    3    3    0    0  0.19141493061E+02 -0.56791540488E+02 -0.34683003579E+02  0.69242953178E+02  0.00000000000E+00 0.  1.
         12    1    3    3    0    0  0.16517242379E+01 -0.38557912924E+01  0.34136190303E+02  0.34392947066E+02  0.00000000000E+00 0. -1.
         11    1    5    5    0    0  0.50641053418E+02  0.17748701522E+02  0.12854093193E+04  0.12865289156E+04  0.00000000000E+00 0. -1.
        -12    1    5    5    0    0 -0.12680030656E+02 -0.24174851972E+02  0.26252220372E+03  0.26393770873E+03  0.00000000000E+00 0.  1.
          5    1    4    4  501    0 -0.56230244136E+02 -0.44443059267E+01  0.19999863929E+03  0.20784253735E+03  0.41800000000E+01 0.  1.
         -5    1    4    4    0  501 -0.25239959246E+01  0.71517788157E+02  0.57069335265E+02  0.91627212147E+02  0.41800000000E+01 0.  1.
</event>
<event>
11    1  0.6455215E-009  0.2547190E+03  0.7561462E-02  0.1021415E+00
         22   -1    0    0    0    0  0.00000000000E+00  0.00000000000E+00  0.34691121570E+04  0.34691121570E+04  0.00000000000E+00 0. -1.
         22   -1    0    0    0    0 -0.00000000000E+00 -0.00000000000E+00 -0.15113022402E+03  0.15113022402E+03  0.00000000000E+00 0. -1.
         24    2    1    2    0    0  0.20682926914E+03  0.82077787701E+02  0.10329295596E+03  0.25632282855E+03  0.74275486372E+02 0.  0.
         25    2    1    2    0    0 -0.22276823779E+03 -0.29868019467E+02  0.15015569839E+03  0.29786030504E+03  0.12512490242E+03 0.  0.
        -24    2    1    2    0    0  0.15938968646E+02 -0.52209768234E+02  0.30645332786E+04  0.30660592474E+04  0.79844738904E+02 0.  0.
        -11    1    3    3    0    0  0.10261440904E+02  0.18580640982E+02 -0.67470461517E+01  0.22272404910E+02  0.00000000000E+00 0.  1.
         12    1    3    3    0    0  0.19656782824E+03  0.63497146719E+02  0.11004000211E+03  0.23405042364E+03  0.00000000000E+00 0. -1.
         11    1    5    5    0    0  0.33890693201E+02 -0.13771252289E+02  0.23394158290E+04  0.23397018287E+04  0.00000000000E+00 0. -1.
        -12    1    5    5    0    0 -0.17951724555E+02 -0.38438515945E+02  0.72511744965E+03  0.72635741871E+03  0.00000000000E+00 0.  1.
          5    1    4    4  501    0 -0.80636171345E+00 -0.31559752130E+02  0.40804426117E+01  0.32105927578E+02  0.41800000000E+01 0. -1.
         -5    1    4    4    0  501 -0.22196187607E+03  0.16917326629E+01  0.14607525578E+03  0.26575437746E+03  0.41800000000E+01 0. -1.
</event>
<event>
11    1  0.6455215E-009  0.1292614E+03  0.7561462E-02  0.1120180E+00
         22   -1    0    0    0    0  0.00000000000E+00  0.00000000000E+00  0.77078947483E+02  0.77078947483E+02  0.00000000000E+00 0.  1.
         22   -1    0    0    0    0 -0.00000000000E+00 -0.00000000000E+00 -0.92141889890E+03  0.92141889890E+03  0.00000000000E+00 0.  1.
        -24    2    1    2    0    0 -0.19316266134E+01  0.97661179067E+01 -0.41970805267E+03  0.42757285005E+03  0.81022122779E+02 0.  0.
         25    2    1    2    0    0  0.34316893340E+02 -0.70337728487E+01 -0.45937111329E+03  0.47738517577E+03  0.12509061991E+03 0.  0.
         24    2    1    2    0    0 -0.32385266727E+02 -0.27323450580E+01  0.34739214544E+02  0.93539820566E+02  0.80539516971E+02 0.  0.
        -13    1    5    5    0    0 -0.48647193948E+02 -0.22534304627E+02  0.40604199131E+02  0.67253589876E+02  0.00000000000E+00 0.  1.
         14    1    5    5    0    0  0.16261927221E+02  0.19801959569E+02 -0.58649845872E+01  0.26286230691E+02  0.00000000000E+00 0. -1.
         11    1    3    3    0    0  0.85567338695E+01 -0.34541622461E+02 -0.16068057121E+03  0.16457395706E+03  0.00000000000E+00 0. -1.
        -12    1    3    3    0    0 -0.10488360483E+02  0.44307740368E+02 -0.25902748146E+03  0.26299889299E+03  0.00000000000E+00 0.  1.
          5    1    4    4  501    0  0.20871282402E+01  0.14366475653E+02  0.12171739946E+01  0.15156043003E+02  0.41800000000E+01 0.  1.
         -5    1    4    4    0  501  0.32229765100E+02 -0.21400248502E+02 -0.46058828729E+03  0.46222913277E+03  0.41800000000E+01 0.  1.
</event>
<event>
11    1  0.6455215E-009  0.1756935E+03  0.7561462E-02  0.1073181E+00
         22   -1    0    0    0    0  0.00000000000E+00  0.00000000000E+00  0.11064729534E+04  0.11064729534E+04  0.00000000000E+00 0.  1.
         22   -1    0    0    0    0 -0.00000000000E+00 -0.00000000000E+00 -0.19244198718E+04  0.19244198718E+04  0.00000000000E+00 0. -1.
        -24    2    1    2    0    0 -0.42244189850E+02 -0.27450673629E+02 -0.17135229279E+04  0.17162172796E+04  0.81870723328E+02 0.  0.
         25    2    1    2    0    0  0.14300066797E+03 -0.42917909353E+02 -0.15791408508E+03  0.25074936044E+03  0.12508895040E+03 0.  0.
         24    2    1    2    0    0 -0.10075647812E+03  0.70368582982E+02  0.10534900946E+04  0.10639261852E+04  0.83629796396E+02 0.  0.
        -13    1    5    5    0    0 -0.81458824396E+02  0.87357748379E+02  0.94011005648E+03  0.94766757598E+03  0.00000000000E+00 0.  1.
         14    1    5    5    0    0 -0.19297653729E+02 -0.16989165397E+02  0.11338003812E+03  0.11625860924E+03  0.00000000000E+00 0. -1.
         11    1    3    3    0    0  0.14504335732E+02 -0.24009699357E+02 -0.10139743339E+04  0.10143622584E+04  0.00000000000E+00 0. -1.
        -12    1    3    3    0    0 -0.56748525582E+02 -0.34409742720E+01 -0.69954859397E+03  0.70185502121E+03  0.00000000000E+00 0.  1.
          5    1    4    4  501    0  0.11855000198E+03  0.25632678176E+02 -0.89718648121E+02  0.15092397219E+03  0.41800000000E+01 0.  1.
         -5    1    4    4    0  501  0.24450665991E+02 -0.68550587529E+02 -0.68195436961E+02  0.99825388255E+02  0.41800000000E+01 0.  1.
</event>
<event>
11    1  0.6455215E-009  0.1779231E+03  0.7561462E-02  0.1071335E+00
         22   -1    0    0    0    0  0.00000000000E+00  0.00000000000E+00  0.23121766298E+03  0.23121766298E+03  0.00000000000E+00 0. -1.
         22   -1    0    0    0    0 -0.00000000000E+00 -0.00000000000E+00 -0.21731748807E+04  0.21731748807E+04  0.00000000000E+00 0.  1.
         24    2    1    2    0    0 -0.77555123370E+02  0.10021820983E+03 -0.13466882551E+04  0.13548702895E+04  0.77754474308E+02 0.  0.
         25    2    1    2    0    0  0.61785027313E+02 -0.11104677846E+03 -0.80518424988E+03  0.82469273125E+03  0.12509055970E+03 0.  0.
        -24    2    1    2    0    0  0.15770096058E+02  0.10828568625E+02  0.20991528719E+03  0.22482952296E+03  0.78217215286E+02 0.  0.
        -11    1    3    3    0    0 -0.54815376731E+02  0.12251629394E+02 -0.61581056248E+03  0.61836678178E+03  0.00000000000E+00 0.  1.
         12    1    3    3    0    0 -0.22739746639E+02  0.87966580439E+02 -0.73087769259E+03  0.73650350771E+03  0.00000000000E+00 0. -1.
         13    1    5    5    0    0 -0.25252759248E+02  0.14258554016E+02  0.14565716538E+03  0.14851605313E+03  0.00000000000E+00 0. -1.
        -14    1    5    5    0    0  0.41022855306E+02 -0.34299853909E+01  0.64258121816E+02  0.76313469824E+02  0.00000000000E+00 0.  1.
          5    1    4    4  501    0  0.62276035223E+01 -0.57167702572E+02 -0.63591006634E+03  0.63851860908E+03  0.41800000000E+01 0. -1.
         -5    1    4    4    0  501  0.55557423790E+02 -0.53879075886E+02 -0.16927418353E+03  0.18617412217E+03  0.41800000000E+01 0. -1.
</event>
<event>
11    1  0.6455215E-009  0.1493853E+03  0.7561462E-02  0.1097509E+00
         22   -1    0    0    0    0  0.00000000000E+00  0.00000000000E+00  0.39897031321E+03  0.39897031321E+03  0.00000000000E+00 0. -1.
         22   -1    0    0    0    0 -0.00000000000E+00 -0.00000000000E+00 -0.16322676491E+04  0.16322676491E+04  0.00000000000E+00 0.  1.
         24    2    1    2    0    0  0.14682769653E+02 -0.29632990162E+02 -0.74603409610E+03  0.75116842207E+03  0.81199925704E+02 0.  0.
         25    2    1    2    0    0 -0.92429129242E+02  0.46710841174E+01 -0.86973382617E+03  0.88354049395E+03  0.12506763413E+03 0.  0.
        -24    2    1    2    0    0  0.77746359589E+02  0.24961906045E+02  0.38247058643E+03  0.39652904624E+03  0.65451828472E+02 0.  0.
        -13    1    3    3    0    0  0.71902936493E+01  0.21162016890E+02 -0.46136012407E+03  0.46190117488E+03  0.00000000000E+00 0.  1.
         14    1    3    3    0    0  0.74924760036E+01 -0.50795007053E+02 -0.28467397204E+03  0.28926724719E+03  0.00000000000E+00 0. -1.
         11    1    5    5    0    0  0.78570135258E+02  0.51393298191E+01  0.34763111049E+03  0.35643662529E+03  0.00000000000E+00 0. -1.
        -12    1    5    5    0    0 -0.82377566833E+00  0.19822576226E+02  0.34839475934E+02  0.40092420954E+02  0.00000000000E+00 0.  1.
          5    1    4    4  501    0  0.15494162234E+02 -0.73465856081E+01 -0.19150398308E+02  0.26043262829E+02  0.41800000000E+01 0. -1.
         -5    1    4    4    0  501 -0.10792329148E+03  0.12017669725E+02 -0.85058342786E+03  0.85749723112E+03  0.41800000000E+01 0. -1.
</event>
<event>
11    1  0.6455215E-009  0.1645659E+03  0.7561462E-02  0.1082860E+00
         22   -1    0    0    0    0  0.00000000000E+00  0.00000000000E+00  0.34799141970E+03  0.34799141970E+03  0.00000000000E+00 0.  1.
         22   -1    0    0    0    0 -0.00000000000E+00 -0.00000000000E+00 -0.43790659255E+03  0.43790659255E+03  0.00000000000E+00 0.  1.
        -24    2    1    2    0    0  0.40345007619E+02  0.10211362150E+03 -0.38253294587E+03  0.40587657712E+03  0.79683309703E+02 0.  0.
         25    2    1    2    0    0  0.59246130276E+01 -0.70597898218E+02  0.14645030363E+03  0.20521888055E+03  0.12509169927E+03 0.  0.
         24    2    1    2    0    0 -0.46269620647E+02 -0.31515723283E+02  0.14616746939E+03  0.17480255458E+03  0.77825994196E+02 0.  0.
        -13    1    5    5    0    0 -0.22900650513E+02  0.12576724005E+02  0.11028803722E+03  0.11334048233E+03  0.00000000000E+00 0.  1.
         14    1    5    5    0    0 -0.23368970134E+02 -0.44092447288E+02  0.35879432165E+02  0.61462072252E+02  0.00000000000E+00 0. -1.
         11    1    3    3    0    0  0.67280925298E+01  0.16206291780E+02 -0.65310707895E+01  0.18723408023E+02  0.00000000000E+00 0. -1.
        -12    1    3    3    0    0  0.33616915089E+02  0.85907329721E+02 -0.37600187508E+03  0.38715316910E+03  0.00000000000E+00 0.  1.
          5    1    4    4  501    0  0.33708677772E+01 -0.99126603965E+02  0.14564760552E+03  0.17626157766E+03  0.41800000000E+01 0.  1.
         -5    1    4    4    0  501  0.25537452505E+01  0.28528705747E+02  0.80269811215E+00  0.28957302890E+02  0.41800000000E+01 0.  1.
</event>
<event>
11    1  0.6455215E-009  0.1398222E+03  0.7561462E-02  0.1107757E+00
         22   -1    0    0    0    0  0.00000000000E+00  0.00000000000E+00  0.26405702251E+03  0.26405702251E+03  0.00000000000E+00 0. -1.
         22   -1    0    0    0    0 -0.00000000000E+00 -0.00000000000E+00 -0.43581201981E+03  0.43581201981E+03  0.00000000000E+00 0.  1.
         24    2    1    2    0    0  0.33059436990E+02 -0.53568855331E+02 -0.25366759322E+03  0.27329321735E+03  0.79871059620E+02 0.  0.
         25    2    1    2    0    0 -0.43967539537E+02  0.44133684094E+02 -0.13584015174E+03  0.19488582411E+03  0.12508801306E+03 0.  0.
        -24    2    1    2    0    0  0.10908102547E+02  0.94351712367E+01  0.21775274765E+03  0.23169000085E+03  0.77820230212E+02 0.  0.
        -13    1    3    3    0    0  0.33871722611E+02  0.11653048519E+02 -0.10513651604E+03  0.11107103194E+03  0.00000000000E+00 0.  1.
         14    1    3    3    0    0 -0.81228562056E+00 -0.65221903850E+02 -0.14853107718E+03  0.16222218540E+03  0.00000000000E+00 0. -1.
         13    1    5    5    0    0 -0.32277615648E+02 -0.57413567200E+01  0.10502254461E+03  0.11002064590E+03  0.00000000000E+00 0. -1.
        -14    1    5    5    0    0  0.43185718195E+02  0.15176527957E+02  0.11273020304E+03  0.12166935495E+03  0.00000000000E+00 0.  1.
          5    1    4    4  501    0  0.40224069022E+02  0.37509623352E+02 -0.55578539994E+02  0.78303218839E+02  0.41800000000E+01 0.  1.
         -5    1    4    4    0  501 -0.84191608560E+02  0.66240607423E+01 -0.80261611743E+02  0.11658260527E+03  0.41800000000E+01 0.  1.
</event>
<event>
11    1  0.6455215E-009  0.1405123E+03  0.7561462E-02  0.1106988E+00
         22   -1    0    0    0    0  0.00000000000E+00  0.00000000000E+00  0.30230481498E+03  0.30230481498E+03  0.00000000000E+00 0.  1.
         22   -1    0    0    0    0 -0.00000000000E+00 -0.00000000000E+00 -0.15409347211E+04  0.15409347211E+04  0.00000000000E+00 0. -1.
         24    2    1    2    0    0 -0.25736171703E+02 -0.52533658648E+02 -0.14631954019E+04  0.14666375041E+04  0.81625048272E+02 0.  0.
         25    2    1    2    0    0  0.84263469656E+02  0.50682800631E+02  0.41612104194E+02  0.16446409443E+03  0.12509113695E+03 0.  0.
        -24    2    1    2    0    0 -0.58527297952E+02  0.18508580169E+01  0.18295339154E+03  0.21213793758E+03  0.90009392846E+02 0.  0.
        -13    1    3    3    0    0 -0.75166269409E+01 -0.23781964776E+02 -0.10159765823E+03  0.10461436654E+03  0.00000000000E+00 0.  1.
         14    1    3    3    0    0 -0.18219544762E+02 -0.28751693872E+02 -0.13615977437E+04  0.13620231376E+04  0.00000000000E+00 0. -1.
         11    1    5    5    0    0  0.23123198520E+02 -0.24273370536E+01  0.24155904950E+02  0.33527332416E+02  0.00000000000E+00 0. -1.
        -12    1    5    5    0    0 -0.81650496472E+02  0.42781950705E+01  0.15879748659E+03  0.17861060516E+03  0.00000000000E+00 0.  1.
          5    1    4    4  501    0 -0.14204295763E+02  0.10872338043E+02 -0.30791093825E+02  0.35854338811E+02  0.41800000000E+01 0.  1.
         -5    1    4    4    0  501  0.98467765418E+02  0.39810462589E+02  0.72403198019E+02  0.12860975562E+03  0.41800000000E+01 0.  1.
</event>
<event>
11    1  0.6455215E-009  0.1334191E+03  0.7561462E-02  0.1115138E+00
         22   -1    0    0    0    0  0.00000000000E+00  0.00000000000E+00  0.61805623804E+02  0.61805623804E+02  0.00000000000E+00 0. -1.
         22   -1    0    0    0    0 -0.00000000000E+00 -0.00000000000E+00 -0.27385518065E+04  0.27385518065E+04  0.00000000000E+00 0. -1.
        -24    2    1    2    0    0  0.39741998194E+02  0.17334695685E+02 -0.17726252445E+04  0.17750243872E+04  0.81433405031E+02 0.  0.
         25    2    1    2    0    0 -0.45313355692E+02 -0.43025634589E+02 -0.92790835655E+03  0.93838515831E+03  0.12509309235E+03 0.  0.
         24    2    1    2    0    0  0.55713574980E+01  0.25690938904E+02  0.23787418382E+02  0.86947884808E+02  0.79391618155E+02 0.  0.
        -13    1    5    5    0    0  0.21895538068E+02 -0.22901812034E+02  0.37346972525E+01  0.31903848440E+02  0.00000000000E+00 0.  1.
         14    1    5    5    0    0 -0.16324180570E+02  0.48592750938E+02  0.20052721130E+02  0.55044036368E+02  0.00000000000E+00 0. -1.
         11    1    3    3    0    0 -0.51151802718E+01  0.24595504447E+02 -0.12947092428E+04  0.12949529440E+04  0.00000000000E+00 0. -1.
        -12    1    3    3    0    0  0.44857178466E+02 -0.72608087621E+01 -0.47791600174E+03  0.48007144314E+03  0.00000000000E+00 0.  1.
          5    1    4    4  501    0  0.42883999625E+02 -0.21867902216E+02 -0.36893430227E+03  0.37208498272E+03  0.41800000000E+01 0. -1.
         -5    1    4    4    0  501 -0.88197355318E+02 -0.21157732373E+02 -0.55897405428E+03  0.56630017559E+03  0.41800000000E+01 0. -1.
</event>
<event>
11    1  0.6455215E-009  0.1473079E+03  0.7561462E-02  0.1099662E+00
         22   -1    0    0    0    0  0.00000000000E+00  0.00000000000E+00  0.39171399255E+03  0.39171399255E+03  0.00000000000E+00 0. -1.
         22   -1    0    0    0    0 -0.00000000000E+00 -0.00000000000E+00 -0.43761971261E+03  0.43761971261E+03  0.00000000000E+00 0.  1.
        -24    2    1    2    0    0  0.31165287945E+02 -0.69744371864E+02 -0.37663292926E+03  0.39178574823E+03  0.76211262481E+02 0.  0.
         25    2    1    2    0    0 -0.77322560191E+02  0.83438159615E+02  0.12010096058E+03  0.20739524934E+03  0.12509134231E+03 0.  0.
         24    2    1    2    0    0  0.46157272246E+02 -0.13693787751E+02  0.21062624862E+03  0.23015270759E+03  0.79302197946E+02 0.  0.
        -11    1    5    5    0    0 -0.48668869280E+01  0.25613260989E+02  0.39716718201E+02  0.47509403611E+02  0.00000000000E+00 0.  1.
         12    1    5    5    0    0  0.51024159174E+02 -0.39307048740E+02  0.17090953042E+03  0.18264330398E+03  0.00000000000E+00 0. -1.
         13    1    3    3    0    0  0.45898925497E+02 -0.11604997399E+02 -0.18662653341E+03  0.19253791912E+03  0.00000000000E+00 0. -1.
        -14    1    3    3    0    0 -0.14733637552E+02 -0.58139374466E+02 -0.19000639585E+03  0.19924782910E+03  0.00000000000E+00 0.  1.
          5    1    4    4  501    0 -0.62345994496E+01 -0.27535840648E+02  0.51210586009E+02  0.58626694174E+02  0.41800000000E+01 0.  1.
         -5    1    4    4    0  501 -0.71087960742E+02  0.11097400026E+03  0.68890374569E+02  0.14876855516E+03  0.41800000000E+01 0.  1.
</event>
<event>
11    1  0.6455215E-009  0.1636439E+03  0.7561462E-02  0.1083699E+00
         22   -1    0    0    0    0  0.00000000000E+00  0.00000000000E+00  0.25242105230E+03  0.25242105230E+03  0.00000000000E+00 0.  1.
         22   -1    0    0    0    0 -0.00000000000E+00 -0.00000000000E+00 -0.33427208620E+03  0.33427208620E+03  0.00000000000E+00 0.  1.
         24    2    1    2    0    0  0.10660433307E+03  0.18419412003E+02 -0.13204718894E+03  0.18978294545E+03  0.82929775760E+02 0.  0.
         25    2    1    2    0    0 -0.10222837250E+03 -0.41711209001E+01 -0.12317397091E+03  0.20319313454E+03  0.12509030506E+03 0.  0.
        -24    2    1    2    0    0 -0.43759605662E+01 -0.14248291103E+02  0.17337012595E+03  0.19371705851E+03  0.85128933715E+02 0.  0.
        -13    1    3    3    0    0  0.73778094188E+02 -0.25107773164E+02 -0.99136573555E+02  0.12610181470E+03  0.00000000000E+00 0.  1.
         14    1    3    3    0    0  0.32826238881E+02  0.43527185167E+02 -0.32910615385E+02  0.63681130743E+02  0.00000000000E+00 0. -1.
         11    1    5    5    0    0  0.13374675462E+02  0.28772230651E+02  0.32764109932E+02  0.45609320320E+02  0.00000000000E+00 0. -1.
        -12    1    5    5    0    0 -0.17750636028E+02 -0.43020521755E+02  0.14060601601E+03  0.14810773819E+03  0.00000000000E+00 0.  1.
          5    1    4    4  501    0 -0.84284468354E+02 -0.32752890720E+02 -0.13884783579E+03  0.16574926051E+03  0.41800000000E+01 0.  1.
         -5    1    4    4    0  501 -0.17943904150E+02  0.28581769820E+02  0.15673864882E+02  0.37443874032E+02  0.41800000000E+01 0.  1.
</event>
<event>
11    1  0.6455215E-009  0.2631466E+03  0.7561462E-02  0.1017120E+00
         22   -1    0    0    0    0  0.00000000000E+00  0.00000000000E+00  0.15327388185E+04  0.15327388185E+04  0.00000000000E+00 0. -1.
         22   -1    0    0    0    0 -0.00000000000E+00 -0.00000000000E+00 -0.58489054847E+03  0.58489054847E+03  0.00000000000E+00 0. -1.
         24    2    1    2    0    0 -0.91349594322E+02  0.21204900490E+03 -0.49470234655E+03  0.55179361933E+03  0.80226291079E+02 0.  0.
         25    2    1    2    0    0  0.12321174378E+03 -0.20608856629E+03  0.24506860898E+03  0.36518408908E+03  0.12508862797E+03 0.  0.
        -24    2    1    2    0    0 -0.31862149453E+02 -0.59604386147E+01  0.11974820076E+04  0.12006516585E+04  0.80935303001E+02 0.  0.
        -11    1    3    3    0    0 -0.33395285055E+02  0.11175907863E+02 -0.78266198763E+02  0.85823911873E+02  0.00000000000E+00 0.  1.
         12    1    3    3    0    0 -0.57954309267E+02  0.20087309704E+03 -0.41643614779E+03  0.46596970745E+03  0.00000000000E+00 0. -1.
         13    1    5    5    0    0 -0.43406298861E+02 -0.63152551431E+01  0.11702489833E+04  0.11710707374E+04  0.00000000000E+00 0. -1.
        -14    1    5    5    0    0  0.11544149408E+02  0.35481652843E+00  0.27233024331E+02  0.29580921124E+02  0.00000000000E+00 0.  1.
          5    1    4    4  501    0  0.21396519257E+02  0.14521686169E+02  0.36608204727E+02  0.45014702697E+02  0.41800000000E+01 0. -1.
         -5    1    4    4    0  501  0.10181522452E+03 -0.22061025246E+03  0.20846040426E+03  0.32016938638E+03  0.41800000000E+01 0. -1.
</event>
<event>
11    1  0.6455215E-009  0.1759888E+03  0.7561462E-02  0.1072934E+00
         22   -1    0    0    0    0  0.00000000000E+00  0.00000000000E+00  0.76203510189E+02  0.76203510189E+02  0.00000000000E+00 0. -1.
         22   -1    0    0    0    0 -0.00000000000E+00 -0.00000000000E+00 -0.19681712556E+04  0.19681712556E+04  0.00000000000E+00 0. -1.
        -24    2    1    2    0    0  0.23368702795E+02  0.44150911864E+01 -0.15311288619E+04  0.15333836325E+04  0.79650383577E+02 0.  0.
         25    2    1    2    0    0 -0.35910772717E+02  0.11909920728E+03 -0.30830703966E+03  0.35521074257E+03  0.12508891302E+03 0.  0.
         24    2    1    2    0    0  0.12542069922E+02 -0.12351429846E+03 -0.52531843930E+02  0.15578039073E+03  0.78069520715E+02 0.  0.
        -13    1    5    5    0    0  0.36364895007E+02 -0.60850977890E+02 -0.53374700282E+02  0.88736157958E+02  0.00000000000E+00 0.  1.
         14    1    5    5    0    0 -0.23822825085E+02 -0.62663320575E+02  0.84285635184E+00  0.67044232767E+02  0.00000000000E+00 0. -1.
         11    1    3    3    0    0  0.15252367797E+02  0.26718628299E+02 -0.13848556345E+04  0.13851973319E+04  0.00000000000E+00 0. -1.
        -12    1    3    3    0    0  0.81163349981E+01 -0.22303537112E+02 -0.14627322736E+03  0.14818630067E+03  0.00000000000E+00 0.  1.
          5    1    4    4  501    0 -0.58241401053E+02  0.29564649458E+02 -0.21153899019E+03  0.22143248647E+03  0.41800000000E+01 0.  1.
         -5    1    4    4    0  501  0.22330628336E+02  0.89534557821E+02 -0.96768049468E+02  0.13377825610E+03  0.41800000000E+01 0.  1.
</event>
<event>
11    1  0.6455215E-009  0.1552336E+03  0.7561462E-02  0.1091648E+00
         22   -1    0    0    0    0  0.00000000000E+00  0.00000000000E+00  0.23723250391E+03  0.23723250391E+03  0.00000000000E+00 0.  1.
         22   -1    0    0    0    0 -0.00000000000E+00 -0.00000000000E+00 -0.79970277965E+03  0.79970277965E+03  0.00000000000E+00 0. -1.
        -24    2    1    2    0    0 -0.18807479794E+02 -0.95834346789E+02 -0.33317995731E+03  0.35465251910E+03  0.72329676019E+02 0.  0.
         25    2    1    2    0    0 -0.43381059037E+02  0.85965835644E+02 -0.42921768722E+03  0.45732700884E+03  0.12509248105E+03 0.  0.
         24    2    1    2    0    0  0.62188538831E+02  0.98685111451E+01  0.19992736879E+03  0.22495575561E+03  0.81666010788E+02 0.  0.
        -13    1    5    5    0    0  0.46628852603E+02 -0.26799377518E+02  0.65498844298E+02  0.84749956547E+02  0.00000000000E+00 0.  1.
         14    1    5    5    0    0  0.15559686228E+02  0.36667888663E+02  0.13442852449E+03  0.14020579907E+03  0.00000000000E+00 0. -1.
         13    1    3    3    0    0 -0.18705503912E+02 -0.10542857158E+03 -0.32451696168E+03  0.34172553021E+03  0.00000000000E+00 0. -1.
        -14    1    3    3    0    0 -0.10197588179E+00  0.95942247935E+01 -0.86629956321E+01  0.12926988891E+02  0.00000000000E+00 0.  1.
          5    1    4    4  501    0 -0.80248164901E+02  0.88535531046E+02 -0.30277949337E+03  0.32553218310E+03  0.41800000000E+01 0.  1.
         -5    1    4    4    0  501  0.36867105863E+02 -0.25696954015E+01 -0.12643819384E+03  0.13179482574E+03  0.41800000000E+01 0.  1.
</event>
<event>
11    1  0.6455215E-009  0.1594059E+03  0.7561462E-02  0.1087637E+00
         22   -1    0    0    0    0  0.00000000000E+00  0.00000000000E+00  0.15984649639E+04  0.15984649639E+04  0.00000000000E+00 0.  1.
         22   -1    0    0    0    0 -0.00000000000E+00 -0.00000000000E+00 -0.10478086286E+04  0.10478086286E+04  0.00000000000E+00 0.  1.
        -24    2    1    2    0    0  0.48148743144E+02 -0.85088710965E+02 -0.99189918153E+03  0.99997741197E+03  0.80823560490E+02 0.  0.
         25    2    1    2    0    0 -0.32077770624E+02  0.15612454202E+03  0.15647156995E+03  0.25599729371E+03  0.12508959268E+03 0.  0.
         24    2    1    2    0    0 -0.16070972520E+02 -0.71035831054E+02  0.13860839469E+04  0.13902988869E+04  0.79987009228E+02 0.  0.
        -11    1    5    5    0    0 -0.13919227530E+01 -0.81516105571E+02  0.84734485896E+03  0.85125796497E+03  0.00000000000E+00 0.  1.
         12    1    5    5    0    0 -0.14679049767E+02  0.10480274517E+02  0.53873908790E+03  0.53904092190E+03  0.00000000000E+00 0. -1.
         13    1    3    3    0    0 -0.15254708971E+02 -0.16138691233E+02 -0.72655098597E+02  0.75973198252E+02  0.00000000000E+00 0. -1.
        -14    1    3    3    0    0  0.63403452115E+02 -0.68950019732E+02 -0.91924408293E+03  0.92400421372E+03  0.00000000000E+00 0.  1.
          5    1    4    4  501    0 -0.19630746813E+02  0.15695530289E+03  0.17327703532E+03  0.23465450496E+03  0.41800000000E+01 0.  1.
         -5    1    4    4    0  501 -0.12447023811E+02 -0.83076087555E+00 -0.16805465373E+02  0.21342788754E+02  0.41800000000E+01 0.  1.
</event>
<event>
11    1  0.6455215E-009  0.1491360E+03  0.7561462E-02  0.1097765E+00
         22   -1    0    0    0    0  0.00000000000E+00  0.00000000000E+00  0.45655478295E+03  0.45655478295E+03  0.00000000000E+00 0. -1.
         22   -1    0    0    0    0 -0.00000000000E+00 -0.00000000000E+00 -0.30717792839E+03  0.30717792839E+03  0.00000000000E+00 0. -1.
         24    2    1    2    0    0 -0.10569853225E+03 -0.27436841424E+02 -0.14939697017E+03  0.20229678662E+03  0.81728668126E+02 0.  0.
         25    2    1    2    0    0  0.34927296839E+02  0.31823760069E+02 -0.88117798070E+02  0.16014280005E+03  0.12509317448E+03 0.  0.
        -24    2    1    2    0    0  0.70771235414E+02 -0.43869186446E+01  0.38689162280E+03  0.40129312468E+03  0.79518748125E+02 0.  0.
        -11    1    3    3    0    0  0.10725481205E+02 -0.75570950472E+01 -0.17730111691E+01  0.13239682823E+02  0.00000000000E+00 0.  1.
         12    1    3    3    0    0 -0.11642401346E+03 -0.19879746377E+02 -0.14762395900E+03  0.18905710380E+03  0.00000000000E+00 0. -1.
         11    1    5    5    0    0  0.62904021841E+02  0.30869554437E+02  0.27022830777E+03  0.27916515484E+03  0.00000000000E+00 0. -1.
        -12    1    5    5    0    0  0.78672135730E+01 -0.35256473082E+02  0.11666331503E+03  0.12212796984E+03  0.00000000000E+00 0.  1.
          5    1    4    4  501    0 -0.28231361772E+02  0.49413222305E+02 -0.97637597703E+01  0.57891966031E+02  0.41800000000E+01 0.  1.
         -5    1    4    4    0  501  0.63158658611E+02 -0.17589462236E+02 -0.78354038300E+02  0.10225083402E+03  0.41800000000E+01 0.  1.
</event>
<event>
11    1  0.2029118E-008  0.1754980E+03  0.7561462E-02  0.1073344E+00
         22   -1    0    0    0    0  0.00000000000E+00  0.00000000000E+00  0.76253994040E+03  0.76253994040E+03  0.00000000000E+00 0. -1.
         22   -1    0    0    0    0 -0.00000000000E+00 -0.00000000000E+00 -0.14761627251E+04  0.14761627251E+04  0.00000000000E+00 0. -1.
        -24    2    1    2    0    0  0.78481153354E+02  0.91989670466E+02 -0.11589383211E+04  0.11679293265E+04  0.79369318226E+02 0.  0.
         25    2    1    2    0    0 -0.34877605818E+01 -0.17596382364E+03 -0.26797219302E+03  0.34414102591E+03  0.12509403575E+03 0.  0.
         24    2    1    2    0    0 -0.74993392773E+02  0.83974153172E+02  0.71328772941E+03  0.72663231311E+03  0.80866965806E+02 0.  0.
        -13    1    5    5    0    0 -0.13933824718E+02  0.46414034519E+01  0.14253308597E+02  0.20465847240E+02  0.00000000000E+00 0.  1.
         14    1    5    5    0    0 -0.61059568055E+02  0.79332749720E+02  0.69903442082E+03  0.70616646587E+03  0.00000000000E+00 0. -1.
         11    1    3    3    0    0  0.72505914118E+02  0.86953048572E+02 -0.11517816705E+04  0.11573326906E+04  0.00000000000E+00 0. -1.
        -12    1    3    3    0    0  0.59752392364E+01  0.50366218934E+01 -0.71566505323E+01  0.10596635828E+02  0.00000000000E+00 0.  1.
          5    1    4    4  501    0 -0.27689772775E+02 -0.14809878594E+03 -0.26744624909E+03  0.30699339157E+03  0.41800000000E+01 0. -1.
         -5    1    4    4    0  501  0.24202012193E+02 -0.27865037695E+02 -0.52594392661E+00  0.37147634339E+02  0.41800000000E+01 0. -1.
</event>
<event>
11    1  0.6455215E-009  0.1419420E+03  0.7561462E-02  0.1105409E+00
         22   -1    0    0    0    0  0.00000000000E+00  0.00000000000E+00  0.20985432620E+04  0.20985432620E+04  0.00000000000E+00 0.  1.
         22   -1    0    0    0    0 -0.00000000000E+00 -0.00000000000E+00 -0.18655608242E+03  0.18655608242E+03  0.00000000000E+00 0.  1.
         24    2    1    2    0    0 -0.42831214484E+02 -0.61910001427E+02 -0.28697597259E+02  0.11619491679E+03  0.83727805343E+02 0.  0.
         25    2    1    2    0    0  0.40610587757E+02  0.43482190277E+02 -0.70872061771E+02  0.15559530452E+03  0.12508848445E+03 0.  0.
        -24    2    1    2    0    0  0.22206267272E+01  0.18427811150E+02  0.20115568387E+04  0.20133091232E+04  0.81903570379E+02 0.  0.
        -11    1    3    3    0    0 -0.35702224442E+02 -0.80507058076E+02 -0.35776236708E+02  0.95057742152E+02  0.00000000000E+00 0.  1.
         12    1    3    3    0    0 -0.71289900425E+01  0.18597056649E+02  0.70786394485E+01  0.21137174634E+02  0.00000000000E+00 0. -1.
         13    1    5    5    0    0  0.16959957923E+01 -0.31839582576E+02  0.99406348417E+03  0.99457470609E+03  0.00000000000E+00 0. -1.
        -14    1    5    5    0    0  0.52463093483E+00  0.50267393726E+02  0.10174933545E+04  0.10187344171E+04  0.00000000000E+00 0.  1.
          5    1    4    4  501    0  0.14216041216E+02  0.82867009868E+02 -0.67462344928E+02  0.10787806791E+03  0.41800000000E+01 0. -1.
         -5    1    4    4    0  501  0.26394546541E+02 -0.39384819591E+02 -0.34097168424E+01  0.47717236616E+02  0.41800000000E+01 0. -1.
</event>
<event>
11    1  0.6455215E-009  0.1292478E+03  0.7561462E-02  0.1120197E+00
         22   -1    0    0    0    0  0.00000000000E+00  0.00000000000E+00  0.61289840717E+03  0.61289840717E+03  0.00000000000E+00 0. -1.
         22   -1    0    0    0    0 -0.00000000000E+00 -0.00000000000E+00 -0.46892856671E+03  0.46892856671E+03  0.00000000000E+00 0.  1.
         24    2    1    2    0    0  0.25157220346E+02 -0.28867059198E+02 -0.43910151799E+03  0.44757121131E+03  0.77740936752E+02 0.  0.
         25    2    1    2    0    0 -0.15046010737E+02 -0.86332339012E+01  0.17107825678E+03  0.21264051094E+03  0.12508917532E+03 0.  0.
        -24    2    1    2    0    0 -0.10111209609E+02  0.37500293100E+02  0.41199310166E+03  0.42161525164E+03  0.80700657072E+02 0.  0.
        -11    1    3    3    0    0  0.39892992758E+02 -0.32667825187E+02 -0.41997877749E+03  0.42313214391E+03  0.00000000000E+00 0.  1.
         12    1    3    3    0    0 -0.14735772412E+02  0.38007659889E+01 -0.19122740503E+02  0.24439067393E+02  0.00000000000E+00 0. -1.
         13    1    5    5    0    0  0.32838337952E+02  0.37187744503E+01  0.19894619949E+03  0.20167244734E+03  0.00000000000E+00 0. -1.
        -14    1    5    5    0    0 -0.42949547561E+02  0.33781518649E+02  0.21304690217E+03  0.21994280430E+03  0.00000000000E+00 0.  1.
          5    1    4    4  501    0 -0.25353131821E+02 -0.44748555753E+02  0.17510094439E+02  0.54491195090E+02  0.41800000000E+01 0. -1.
         -5    1    4    4    0  501  0.10307121084E+02  0.36115321851E+02  0.15356816234E+03  0.15814931585E+03  0.41800000000E+01 0. -1.
</event>
<event>
11    1  0.6455215E-009  0.2324306E+03  0.7561462E-02  0.1033698E+00
         22   -1    0    0    0    0  0.00000000000E+00  0.00000000000E+00  0.28581154576E+03  0.28581154576E+03  0.00000000000E+00 0. -1.
         22   -1    0    0    0    0 -0.00000000000E+00 -0.00000000000E+00 -0.19655656180E+04  0.19655656180E+04  0.00000000000E+00 0. -1.
        -24    2    1    2    0    0 -0.93489526070E+02  0.12064662162E+02 -0.14799928244E+04  0.14850872631E+04  0.78864258827E+02 0.  0.
         25    2    1    2    0    0 -0.99830791863E+02 -0.76719261108E+02 -0.41952413655E+03  0.45552476229E+03  0.12510106265E+03 0.  0.
         24    2    1    2    0    0  0.19332031793E+03  0.64654598946E+02  0.21976288868E+03  0.31076513836E+03  0.82013910318E+02 0.  0.
        -13    1    5    5    0    0  0.10744069282E+03  0.50931606112E+02  0.71117030601E+02  0.13854660954E+03  0.00000000000E+00 0.  1.
         14    1    5    5    0    0  0.85879625116E+02  0.13722992834E+02  0.14864585808E+03  0.17221852882E+03  0.00000000000E+00 0. -1.
         11    1    3    3    0    0 -0.98460398645E+02  0.11355725811E+02 -0.14737347635E+04  0.14770638292E+04  0.00000000000E+00 0. -1.
        -12    1    3    3    0    0  0.49708725744E+01  0.70893635041E+00 -0.62580609295E+01  0.80234338969E+01  0.00000000000E+00 0.  1.
          5    1    4    4  501    0 -0.17054759018E+02 -0.41328036553E+02 -0.26158143199E+02  0.51967222998E+02  0.41800000000E+01 0.  1.
         -5    1    4    4    0  501 -0.82776032845E+02 -0.35391224554E+02 -0.39336599335E+03  0.40355753929E+03  0.41800000000E+01 0.  1.
</event>
<event>
11    1  0.6455215E-009  0.2109317E+03  0.7561462E-02  0.1047052E+00
         22   -1    0    0    0    0  0.00000000000E+00  0.00000000000E+00  0.12794728219E+04  0.12794728219E+04  0.00000000000E+00 0. -1.
         22   -1    0    0    0    0 -0.00000000000E+00 -0.00000000000E+00 -0.27286292219E+04  0.27286292219E+04  0.00000000000E+00 0.  1.
         24    2    1    2    0    0  0.99858944952E+02 -0.24698908054E+02 -0.25923192872E+04  0.25960457976E+04  0.93555606919E+02 0.  0.
         25    2    1    2    0    0 -0.17308657096E+03  0.17375997294E+03  0.22330934957E+02  0.27622749725E+03  0.12510583655E+03 0.  0.
        -24    2    1    2    0    0  0.73227626011E+02 -0.14906106489E+03  0.11208319523E+04  0.11358287490E+04  0.79127716585E+02 0.  0.
        -11    1    3    3    0    0  0.95008808169E+02 -0.18549797725E+02 -0.25772102853E+04  0.25790276507E+04  0.00000000000E+00 0.  1.
         12    1    3    3    0    0  0.48501367831E+01 -0.61491103291E+01 -0.15109001891E+02  0.17018146867E+02  0.00000000000E+00 0. -1.
         13    1    5    5    0    0  0.14912666457E+02 -0.10843196813E+03  0.78202914306E+03  0.78965148003E+03  0.00000000000E+00 0. -1.
        -14    1    5    5    0    0  0.58314959555E+02 -0.40629096759E+02  0.33880280920E+03  0.34617726894E+03  0.00000000000E+00 0.  1.
          5    1    4    4  501    0 -0.51183426468E+01  0.67348937883E+02 -0.24386142049E+02  0.71932142950E+02  0.41800000000E+01 0.  1.
         -5    1    4    4    0  501 -0.16796822832E+03  0.10641103506E+03  0.46717077007E+02  0.20429535430E+03  0.41800000000E+01 0.  1.
</event>
<event>
11    1  0.6455215E-009  0.1700352E+03  0.7561462E-02  0.1078001E+00
         22   -1    0    0    0    0  0.00000000000E+00  0.00000000000E+00  0.35336741516E+04  0.35336741516E+04  0.00000000000E+00 0. -1.
         22   -1    0    0    0    0 -0.00000000000E+00 -0.00000000000E+00 -0.88146910690E+03  0.88146910690E+03  0.00000000000E+00 0.  1.
        -24    2    1    2    0    0 -0.31105433777E+02 -0.10793783858E+03 -0.71534609694E+03  0.72845464591E+03  0.79422967258E+02 0.  0.
         25    2    1    2    0    0  0.22638082907E+02  0.13824548276E+03 -0.10350837251E+03  0.21444184244E+03  0.12508806620E+03 0.  0.
         24    2    1    2    0    0  0.84673508707E+01 -0.30307644186E+02  0.34710595141E+04  0.34722467701E+04  0.85165912658E+02 0.  0.
        -11    1    5    5    0    0 -0.17911957447E+02 -0.27762782492E+02  0.51020676215E+03  0.51127541546E+03  0.00000000000E+00 0.  1.
         12    1    5    5    0    0  0.26379308318E+02 -0.25448616938E+01  0.29608527520E+04  0.29609713546E+04  0.00000000000E+00 0. -1.
         13    1    3    3    0    0 -0.31210303469E+02 -0.16212358934E+01 -0.16042242991E+03  0.16343826806E+03  0.00000000000E+00 0. -1.
        -14    1    3    3    0    0  0.10486969170E+00 -0.10631660268E+03 -0.55492366703E+03  0.56501637785E+03  0.00000000000E+00 0.  1.
          5    1    4    4  501    0 -0.61839664182E+01 -0.22037474020E+02 -0.41760824147E+01  0.23639030567E+02  0.41800000000E+01 0.  1.
         -5    1    4    4    0  501  0.28822049325E+02  0.16028295678E+03 -0.99332290095E+02  0.19080281187E+03  0.41800000000E+01 0.  1.
</event>
<event>
11    1  0.6455215E-009  0.1254329E+03  0.7561462E-02  0.1125011E+00
         22   -1    0    0    0    0  0.00000000000E+00  0.00000000000E+00  0.10812253605E+04  0.10812253605E+04  0.00000000000E+00 0.  1.
         22   -1    0    0    0    0 -0.00000000000E+00 -0.00000000000E+00 -0.92587199278E+02  0.92587199278E+02  0.00000000000E+00 0. -1.
        -24    2    1    2    0    0 -0.32362018209E+01  0.38550839964E+01 -0.25012604566E+02  0.90267713730E+02  0.86586922107E+02 0.  0.
         25    2    1    2    0    0  0.18418314763E+02 -0.18910422806E+02  0.90673726593E+02  0.15672265985E+03  0.12507369430E+03 0.  0.
         24    2    1    2    0    0 -0.15182112942E+02  0.15055338810E+02  0.92297703923E+03  0.92682218624E+03  0.81581800455E+02 0.  0.
        -13    1    5    5    0    0 -0.47311172556E+02  0.10673643999E+02  0.67394430501E+03  0.67568720572E+03  0.00000000000E+00 0.  1.
         14    1    5    5    0    0  0.32129059614E+02  0.43816948108E+01  0.24903273423E+03  0.25113498051E+03  0.00000000000E+00 0. -1.
         13    1    3    3    0    0  0.26102175021E+02 -0.28695071522E+02 -0.25540169221E+02  0.46443846894E+02  0.00000000000E+00 0. -1.
        -14    1    3    3    0    0 -0.29338376842E+02  0.32550155518E+02  0.52756465543E+00  0.43823866836E+02  0.00000000000E+00 0.  1.
          5    1    4    4  501    0  0.56627106101E+02  0.11822166898E+02  0.53773995154E+01  0.58247588801E+02  0.41800000000E+01 0. -1.
         -5    1    4    4    0  501 -0.38208791338E+02 -0.30732589705E+02  0.85296327078E+02  0.98475071050E+02  0.41800000000E+01 0. -1.
</event>
<event>
11    1  0.6455215E-009  0.1743622E+03  0.7561462E-02  0.1074297E+00
         22   -1    0    0    0    0  0.00000000000E+00  0.00000000000E+00  0.19821647392E+03  0.19821647392E+03  0.00000000000E+00 0.  1.
         22   -1    0    0    0    0 -0.00000000000E+00 -0.00000000000E+00 -0.11236080477E+04  0.11236080477E+04  0.00000000000E+00 0. -1.
        -24    2    1    2    0    0 -0.39801786349E+02 -0.66593407386E+02 -0.78530430286E+03  0.79324059168E+03  0.80677903448E+02 0.  0.
         25    2    1    2    0    0  0.12792427546E+03  0.13817714964E+03 -0.25531075385E+03  0.34101706184E+03  0.12510599707E+03 0.  0.
         24    2    1    2    0    0 -0.88122489108E+02 -0.71583742250E+02  0.11522348296E+03  0.18756686806E+03  0.94947742085E+02 0.  0.
        -11    1    5    5    0    0 -0.29567243852E+02  0.21462529549E+02  0.41011531120E+02  0.54925474677E+02  0.00000000000E+00 0.  1.
         12    1    5    5    0    0 -0.58555245256E+02 -0.93046271799E+02  0.74211951842E+02  0.13264139338E+03  0.00000000000E+00 0. -1.
         11    1    3    3    0    0 -0.28132019581E+01 -0.73956350923E+02 -0.54236102469E+03  0.54738737385E+03  0.00000000000E+00 0. -1.
        -12    1    3    3    0    0 -0.36988584391E+02  0.73629435368E+01 -0.24294327817E+03  0.24585321783E+03  0.00000000000E+00 0.  1.
          5    1    4    4  501    0  0.61107168873E+02  0.14200007145E+03 -0.20691462472E+03  0.25832003543E+03  0.41800000000E+01 0. -1.
         -5    1    4    4    0  501  0.66817106584E+02 -0.38229218136E+01 -0.48396129133E+02  0.82697026419E+02  0.41800000000E+01 0. -1.
</event>
<event>
11    1  0.6455215E-009  0.1556639E+03  0.7561462E-02  0.1091228E+00
         22   -1    0    0    0    0  0.00000000000E+00  0.00000000000E+00  0.38243968070E+03  0.38243968070E+03  0.00000000000E+00 0. -1.
         22   -1    0    0    0    0 -0.00000000000E+00 -0.00000000000E+00 -0.48857024115E+03  0.48857024115E+03  0.00000000000E+00 0.  1.
         24    2    1    2    0    0 -0.22964786329E+02 -0.89743150876E+02 -0.42563492395E+03  0.44282382096E+03  0.79665760424E+02 0.  0.
         25    2    1    2    0    0  0.16919458046E+02  0.91464620412E+02  0.79661848056E+02  0.17505987908E+03  0.12509159196E+03 0.  0.
        -24    2    1    2    0    0  0.60453282829E+01 -0.17214695367E+01  0.23984251544E+03  0.25312622181E+03  0.80678017482E+02 0.  0.
        -13    1    3    3    0    0 -0.18029866436E+02 -0.10465004688E+03 -0.38022686065E+03  0.39477737265E+03  0.00000000000E+00 0.  1.
         14    1    3    3    0    0 -0.49349198934E+01  0.14906896002E+02 -0.45408063297E+02  0.48046448309E+02  0.00000000000E+00 0. -1.
         11    1    5    5    0    0 -0.82339629567E+01  0.33350314204E+02  0.17231739547E+03  0.17570807149E+03  0.00000000000E+00 0. -1.
        -12    1    5    5    0    0  0.14279291240E+02 -0.35071783740E+02  0.67525119967E+02  0.77418150324E+02  0.00000000000E+00 0.  1.
          5    1    4    4  501    0  0.75059439340E+01  0.57025247853E+02 -0.26141235464E+02  0.63317096259E+02  0.41800000000E+01 0.  1.
         -5    1    4    4    0  501  0.94135141124E+01  0.34439372559E+02  0.10580308352E+03  0.11174278282E+03  0.41800000000E+01 0.  1.
</event>
<event>
11    1  0.6455215E-009  0.2872644E+03  0.7561462E-02  0.1005730E+00
         22   -1    0    0    0    0  0.00000000000E+00  0.00000000000E+00  0.33549674974E+03  0.33549674974E+03  0.00000000000E+00 0. -1.
         22   -1    0    0    0    0 -0.00000000000E+00 -0.00000000000E+00 -0.18902189501E+04  0.18902189501E+04  0.00000000000E+00 0. -1.
         24    2    1    2    0    0 -0.16983330897E+03  0.19470522444E+03 -0.14957296292E+04  0.15200107184E+04  0.80448636238E+02 0.  0.
         25    2    1    2    0    0  0.20800709682E+03 -0.16212191239E+03 -0.31768098486E+03  0.43140713514E+03  0.12506174995E+03 0.  0.
        -24    2    1    2    0    0 -0.38173787851E+02 -0.32583312053E+02  0.25868841370E+03  0.27429784633E+03  0.76162345148E+02 0.  0.
        -11    1    3    3    0    0 -0.98054732934E+02  0.54436741993E+02 -0.68322966067E+03  0.69237335213E+03  0.00000000000E+00 0.  1.
         12    1    3    3    0    0 -0.71778576034E+02  0.14026848245E+03 -0.81249996850E+03  0.82763736622E+03  0.00000000000E+00 0. -1.
         11    1    5    5    0    0 -0.23319243885E+02  0.78388272921E+01  0.19998198734E+03  0.20148952729E+03  0.00000000000E+00 0. -1.
        -12    1    5    5    0    0 -0.14854543966E+02 -0.40422139345E+02  0.58706426358E+02  0.72808319040E+02  0.00000000000E+00 0.  1.
          5    1    4    4  501    0  0.12815053316E+03 -0.14120169148E+03 -0.14375035977E+03  0.23883491194E+03  0.41800000000E+01 0. -1.
         -5    1    4    4    0  501  0.79856563654E+02 -0.20920220908E+02 -0.17393062510E+03  0.19257222320E+03  0.41800000000E+01 0. -1.
</event>
<event>
11    1  0.6455215E-009  0.1775125E+03  0.7561462E-02  0.1071673E+00
         22   -1    0    0    0    0  0.00000000000E+00  0.00000000000E+00  0.51233784935E+03  0.51233784935E+03  0.00000000000E+00 0. -1.
         22   -1    0    0    0    0 -0.00000000000E+00 -0.00000000000E+00 -0.95992809140E+03  0.95992809140E+03  0.00000000000E+00 0. -1.
         24    2    1    2    0    0 -0.41532269604E+02 -0.12016189931E+03 -0.91419519492E+03  0.92686268712E+03  0.84603633998E+02 0.  0.
         25    2    1    2    0    0  0.90679439170E+02  0.49043672817E+02  0.23906586735E+03  0.28883932348E+03  0.12509046057E+03 0.  0.
        -24    2    1    2    0    0 -0.49147169566E+02  0.71118226493E+02  0.22753908553E+03  0.25656393016E+03  0.81103442574E+02 0.  0.
        -11    1    3    3    0    0  0.19761120882E+02 -0.16504446724E+02 -0.80554553394E+02  0.84569112167E+02  0.00000000000E+00 0.  1.
         12    1    3    3    0    0 -0.61293390486E+02 -0.10365745259E+03 -0.83364064153E+03  0.84229357495E+03  0.00000000000E+00 0. -1.
         13    1    5    5    0    0 -0.64754630701E+02  0.57930030102E+02  0.12640331797E+03  0.15338464519E+03  0.00000000000E+00 0. -1.
        -14    1    5    5    0    0  0.15607461135E+02  0.13188196391E+02  0.10113576756E+03  0.10317928497E+03  0.00000000000E+00 0.  1.
          5    1    4    4  501    0  0.61830708004E+01  0.68463619115E+02  0.14685554563E+03  0.16220209983E+03  0.41800000000E+01 0.  1.
         -5    1    4    4    0  501  0.84496368370E+02 -0.19419946298E+02  0.92210321717E+02  0.12663722365E+03  0.41800000000E+01 0.  1.
</event>
<event>
11    1  0.6455215E-009  0.1444636E+03  0.7561462E-02  0.1102674E+00
         22   -1    0    0    0    0  0.00000000000E+00  0.00000000000E+00  0.17205337538E+03  0.17205337538E+03  0.00000000000E+00 0.  1.
         22   -1    0    0    0    0 -0.00000000000E+00 -0.00000000000E+00 -0.18430886870E+04  0.18430886870E+04  0.00000000000E+00 0.  1.
         24    2    1    2    0    0 -0.28903199861E+02  0.67169966144E+02 -0.13288903727E+04  0.13333811765E+04  0.81292926390E+02 0.  0.
         25    2    1    2    0    0  0.48059300957E+02 -0.52952627550E+02 -0.49044829954E+03  0.51117573621E+03  0.12508965422E+03 0.  0.
        -24    2    1    2    0    0 -0.19156101096E+02 -0.14217338594E+02  0.14830336066E+03  0.17058514963E+03  0.80847495738E+02 0.  0.
        -11    1    3    3    0    0 -0.49111279016E+02  0.70445043092E+02 -0.92677670998E+03  0.93074673891E+03  0.00000000000E+00 0.  1.
         12    1    3    3    0    0  0.20208079154E+02 -0.32750769485E+01 -0.40211366272E+03  0.40263443760E+03  0.00000000000E+00 0. -1.
         13    1    5    5    0    0  0.31373395882E+01  0.25428402770E+02  0.14894856268E+02  0.29636182452E+02  0.00000000000E+00 0. -1.
        -14    1    5    5    0    0 -0.22293440684E+02 -0.39645741363E+02  0.13340850439E+03  0.14094896718E+03  0.00000000000E+00 0.  1.
          5    1    4    4  501    0  0.82706861204E+02 -0.63205319426E+02 -0.30812738839E+03  0.32526189013E+03  0.41800000000E+01 0.  1.
         -5    1    4    4    0  501 -0.34647560247E+02  0.10252691876E+02 -0.18232091114E+03  0.18591384607E+03  0.41800000000E+01 0.  1.
</event>
<event>
11    1  0.6455215E-009  0.1292526E+03  0.7561462E-02  0.1120191E+00
         22   -1    0    0    0    0  0.00000000000E+00  0.00000000000E+00  0.20209075193E+03  0.20209075193E+03  0.00000000000E+00 0. -1.
         22   -1    0    0    0    0 -0.00000000000E+00 -0.00000000000E+00 -0.32034557248E+03  0.32034557248E+03  0.00000000000E+00 0.  1.
        -24    2    1    2    0    0 -0.39613213911E+01 -0.35004138397E+02 -0.23551830536E+03  0.25260922578E+03  0.84270795741E+02 0.  0.
         25    2    1    2    0    0 -0.23932350906E+01  0.13924281077E+02 -0.56927749914E+01  0.12601424659E+03  0.12509024534E+03 0.  0.
         24    2    1    2    0    0  0.63545564818E+01  0.21079857320E+02  0.12295625980E+03  0.14381285205E+03  0.71268182366E+02 0.  0.
        -11    1    5    5    0    0  0.30197094380E+02 -0.11210254055E+02  0.37742256033E+02  0.49618667812E+02  0.00000000000E+00 0.  1.
         12    1    5    5    0    0 -0.23842537899E+02  0.32290111375E+02  0.85214003769E+02  0.94194184239E+02  0.00000000000E+00 0. -1.
         13    1    3    3    0    0 -0.68786623479E+01  0.27422111629E+02 -0.86992070028E+02  0.91470806543E+02  0.00000000000E+00 0. -1.
        -14    1    3    3    0    0  0.29173409568E+01 -0.62426250026E+02 -0.14852623533E+03  0.16113841923E+03  0.00000000000E+00 0.  1.
          5    1    4    4  501    0 -0.57275632417E+02  0.12589763306E+02 -0.29796886187E+02  0.65911509126E+02  0.41800000000E+01 0.  1.
         -5    1    4    4    0  501  0.54882397326E+02  0.13345177711E+01  0.24104111196E+02  0.60102737462E+02  0.41800000000E+01 0.  1.
</event>
<event>
11    1  0.6455215E-009  0.2188880E+03  0.7561462E-02  0.1041916E+00
         22   -1    0    0    0    0  0.00000000000E+00  0.00000000000E+00  0.61687253439E+03  0.61687253439E+03  0.00000000000E+00 0. -1.
         22   -1    0    0    0    0 -0.00000000000E+00 -0.00000000000E+00 -0.15877826967E+04  0.15877826967E+04  0.00000000000E+00 0.  1.
         24    2    1    2    0    0 -0.62410417175E+01 -0.17634304816E+03 -0.11579515762E+04  0.11740070254E+04  0.79402906476E+02 0.  0.
         25    2    1    2    0    0  0.67927424074E+02  0.18851901130E+03 -0.38377368308E+03  0.45064762769E+03  0.12508993546E+03 0.  0.
        -24    2    1    2    0    0 -0.61686382356E+02 -0.12175963146E+02  0.57081509694E+03  0.58000057807E+03  0.81346984079E+02 0.  0.
        -13    1    3    3    0    0 -0.16085145954E+02 -0.18130146665E+03 -0.11083293533E+04  0.11231753688E+04  0.00000000000E+00 0.  1.
         14    1    3    3    0    0  0.98441042361E+01  0.49584184980E+01 -0.49622222861E+02  0.50831656513E+02  0.00000000000E+00 0. -1.
         11    1    5    5    0    0 -0.37251610874E+02  0.15636367928E+02  0.48318582541E+03  0.48487185977E+03  0.00000000000E+00 0. -1.
        -12    1    5    5    0    0 -0.24434771482E+02 -0.27812331074E+02  0.87629271521E+02  0.95128718295E+02  0.00000000000E+00 0.  1.
          5    1    4    4  501    0 -0.12582898232E+02  0.11618590892E+03 -0.13074598454E+03  0.17541231323E+03  0.41800000000E+01 0. -1.
         -5    1    4    4    0  501  0.80510322306E+02  0.72333102385E+02 -0.25302769854E+03  0.27523531446E+03  0.41800000000E+01 0. -1.
</event>
<event>
11    1  0.6455215E-009  0.1496589E+03  0.7561462E-02  0.1097228E+00
         22   -1    0    0    0    0  0.00000000000E+00  0.00000000000E+00  0.57645378608E+03  0.57645378608E+03  0.00000000000E+00 0.  1.
         22   -1    0    0    0    0 -0.00000000000E+00 -0.00000000000E+00 -0.63812842274E+03  0.63812842274E+03  0.00000000000E+00 0.  1.
         24    2    1    2    0    0  0.58404755406E+02 -0.16429013812E+02 -0.56802974511E+03  0.57695709313E+03  0.80874396711E+02 0.  0.
         25    2    1    2    0    0  0.14987148732E+02  0.62287716519E+02  0.26293054408E+02  0.14298105340E+03  0.12509149717E+03 0.  0.
        -24    2    1    2    0    0 -0.73391904138E+02 -0.45858702707E+02  0.48006205404E+03  0.49464406229E+03  0.81998661081E+02 0.  0.
        -11    1    3    3    0    0  0.40460639051E+02  0.12369663612E+01 -0.95090194319E+02  0.10334765819E+03  0.00000000000E+00 0.  1.
         12    1    3    3    0    0  0.17944116355E+02 -0.17665980173E+02 -0.47293955079E+03  0.47360943494E+03  0.00000000000E+00 0. -1.
         13    1    5    5    0    0 -0.11221719228E+02 -0.49857164226E+01  0.41658078841E+01  0.12966815569E+02  0.00000000000E+00 0. -1.
        -14    1    5    5    0    0 -0.62170184909E+02 -0.40872986284E+02  0.47589624616E+03  0.48167724672E+03  0.00000000000E+00 0.  1.
          5    1    4    4  501    0 -0.52828481801E+02  0.29331619875E+02 -0.59691602605E+01  0.60862925399E+02  0.41800000000E+01 0.  1.
         -5    1    4    4    0  501  0.67815630533E+02  0.32956096643E+02  0.32262214669E+02  0.82118127998E+02  0.41800000000E+01 0.  1.
</event>
<event>
11    1  0.6455215E-009  0.1434417E+03  0.7561462E-02  0.1103775E+00
         22   -1    0    0    0    0  0.00000000000E+00  0.00000000000E+00  0.96819627326E+03  0.96819627326E+03  0.00000000000E+00 0.  1.
         22   -1    0    0    0    0 -0.00000000000E+00 -0.00000000000E+00 -0.59308840665E+03  0.59308840665E+03  0.00000000000E+00 0.  1.
         24    2    1    2    0    0 -0.98423622317E+01 -0.69610780504E+02 -0.57188936601E+03  0.58173349096E+03  0.80086669868E+02 0.  0.
         25    2    1    2    0    0  0.55551776137E+01  0.61355515158E+02  0.34728523846E+03  0.37423516729E+03  0.12509821879E+03 0.  0.
        -24    2    1    2    0    0  0.42871846179E+01  0.82552653463E+01  0.59971199415E+03  0.60531602165E+03  0.81648519767E+02 0.  0.
        -11    1    3    3    0    0 -0.28586777350E+02 -0.79810499653E+02 -0.47691706956E+03  0.48439323997E+03  0.00000000000E+00 0.  1.
         12    1    3    3    0    0  0.18744415119E+02  0.10199719148E+02 -0.94972296456E+02  0.97340250991E+02  0.00000000000E+00 0. -1.
         13    1    5    5    0    0 -0.36539765232E+02 -0.80280588372E+01  0.31849899264E+03  0.32068865350E+03  0.00000000000E+00 0. -1.
        -14    1    5    5    0    0  0.40826949850E+02  0.16283324183E+02  0.28121300151E+03  0.28462736815E+03  0.00000000000E+00 0.  1.
          5    1    4    4  501    0  0.19866650371E+02  0.49944524708E+02  0.41918556381E+02  0.68291852474E+02  0.41800000000E+01 0. -1.
         -5    1    4    4    0  501 -0.14311472757E+02  0.11410990450E+02  0.30536668208E+03  0.30594331482E+03  0.41800000000E+01 0. -1.
</event>
<event>
11    1  0.6455215E-009  0.1560632E+03  0.7561462E-02  0.1090840E+00
         22   -1    0    0    0    0  0.00000000000E+00  0.00000000000E+00  0.74193110027E+03  0.74193110027E+03  0.00000000000E+00 0.  1.
         22   -1    0    0    0    0 -0.00000000000E+00 -0.00000000000E+00 -0.80131748693E+03  0.80131748693E+03  0.00000000000E+00 0.  1.
         24    2    1    2    0    0  0.44103900962E+02  0.34715567887E+02 -0.76926332140E+03  0.77565482160E+03  0.82000121236E+02 0.  0.
         25    2    1    2    0    0 -0.47637138931E+02 -0.11443157706E+03  0.38714686151E+03  0.42531604919E+03  0.12508863452E+03 0.  0.
        -24    2    1    2    0    0  0.35332379689E+01  0.79716009171E+02  0.32273007323E+03  0.34227771641E+03  0.81438376088E+02 0.  0.
        -11    1    3    3    0    0  0.48377952150E+02  0.47905471119E+02 -0.37387818754E+03  0.38002665635E+03  0.00000000000E+00 0.  1.
         12    1    3    3    0    0 -0.42740511877E+01 -0.13189903232E+02 -0.39538513386E+03  0.39562816525E+03  0.00000000000E+00 0. -1.
         13    1    5    5    0    0  0.13415774143E+02  0.30825690080E+02  0.29167613210E+02  0.44507929913E+02  0.00000000000E+00 0. -1.
        -14    1    5    5    0    0 -0.98825361737E+01  0.48890319092E+02  0.29356246002E+03  0.29776978650E+03  0.00000000000E+00 0.  1.
          5    1    4    4  501    0 -0.65987697311E+02 -0.71162356505E+02  0.12172887275E+03  0.15573646985E+03  0.41800000000E+01 0. -1.
         -5    1    4    4    0  501  0.18350558380E+02 -0.43269220554E+02  0.26541798876E+03  0.26957957934E+03  0.41800000000E+01 0. -1.
</event>
<event>
11    1  0.6455215E-009  0.1574417E+03  0.7561462E-02  0.1089508E+00
         22   -1    0    0    0    0  0.00000000000E+00  0.00000000000E+00  0.44753416368E+03  0.44753416368E+03  0.00000000000E+00 0.  1.
         22   -1    0    0    0    0 -0.00000000000E+00 -0.00000000000E+00 -0.11388479433E+04  0.11388479433E+04  0.00000000000E+00 0. -1.
        -24    2    1    2    0    0 -0.90635633604E+02  0.76826091342E+01 -0.88232325689E+03  0.89065909882E+03  0.80656432437E+02 0.  0.
         25    2    1    2    0    0  0.13122074209E+03 -0.35960115486E+02 -0.21239345635E+03  0.28155038038E+03  0.12509046059E+03 0.  0.
         24    2    1    2    0    0 -0.40585108490E+02  0.28277506352E+02  0.40340293366E+03  0.41417262776E+03  0.79738762885E+02 0.  0.
        -11    1    5    5    0    0 -0.62633545562E+02  0.26410303897E+02  0.34679129838E+03  0.35339025144E+03  0.00000000000E+00 0.  1.
         12    1    5    5    0    0  0.22048437072E+02  0.18672024552E+01  0.56611635278E+02  0.60782376320E+02  0.00000000000E+00 0. -1.
         13    1    3    3    0    0 -0.48101024307E+02  0.41987589258E+02 -0.57298810994E+03  0.57653450922E+03  0.00000000000E+00 0. -1.
        -14    1    3    3    0    0 -0.42534609297E+02 -0.34304980124E+02 -0.30933514695E+03  0.31412458959E+03  0.00000000000E+00 0.  1.
          5    1    4    4  501    0  0.31309520321E+02 -0.71439030527E+02 -0.10142763542E+03  0.12801897817E+03  0.41800000000E+01 0. -1.
         -5    1    4    4    0  501  0.99911221773E+02  0.35478915041E+02 -0.11096582093E+03  0.15353140220E+03  0.41800000000E+01 0. -1.
</event>
<event>
11    1  0.6455215E-009  0.2020370E+03  0.7561462E-02  0.1053092E+00
         22   -1    0    0    0    0  0.00000000000E+00  0.00000000000E+00  0.51216452548E+03  0.51216452548E+03  0.00000000000E+00 0. -1.
         22   -1    0    0    0    0 -0.00000000000E+00 -0.00000000000E+00 -0.83655073559E+03  0.83655073559E+03  0.00000000000E+00 0. -1.
        -24    2    1    2    0    0  0.30792971778E+02  0.21072679728E+02 -0.63670050518E+03  0.64281274717E+03  0.80177488612E+02 0.  0.
         25    2    1    2    0    0 -0.12809474800E+03  0.10393666211E+03 -0.11937988441E+03  0.23897845527E+03  0.12509217037E+03 0.  0.
         24    2    1    2    0    0  0.97301776224E+02 -0.12500934183E+03  0.43169417947E+03  0.46692405863E+03  0.81013830506E+02 0.  0.
        -11    1    5    5    0    0  0.51740373720E+02 -0.84487091048E+02  0.15777974969E+03  0.18630508377E+03  0.00000000000E+00 0.  1.
         12    1    5    5    0    0  0.45561402504E+02 -0.40522250785E+02  0.27391442979E+03  0.28061897486E+03  0.00000000000E+00 0. -1.
         13    1    3    3    0    0  0.32669180985E+01 -0.27856555382E+02 -0.31538238158E+03  0.31662707882E+03  0.00000000000E+00 0. -1.
        -14    1    3    3    0    0  0.27526053680E+02  0.48929235110E+02 -0.32131812360E+03  0.32618566835E+03  0.00000000000E+00 0.  1.
          5    1    4    4  501    0 -0.97518665038E+02  0.76338569131E+02 -0.14465429412E+03  0.19047258169E+03  0.41800000000E+01 0.  1.
         -5    1    4    4    0  501 -0.30576082964E+02  0.27598092974E+02  0.25274409715E+02  0.48505873580E+02  0.41800000000E+01 0.  1.
</event>
<event>
11    1  0.6455215E-009  0.1489273E+03  0.7561462E-02  0.1097980E+00
         22   -1    0    0    0    0  0.00000000000E+00  0.00000000000E+00  0.11124067723E+04  0.11124067723E+04  0.00000000000E+00 0.  1.
         22   -1    0    0    0    0 -0.00000000000E+00 -0.00000000000E+00 -0.48126598471E+03  0.48126598471E+03  0.00000000000E+00 0.  1.
         24    2    1    2    0    0 -0.19027418743E+02 -0.48959383651E+02 -0.45922921354E+03  0.46762442128E+03  0.70866528776E+02 0.  0.
         25    2    1    2    0    0  0.26155201297E+02 -0.45609307600E+02  0.35697437235E+03  0.38189084911E+03  0.12508243132E+03 0.  0.
        -24    2    1    2    0    0 -0.71277825537E+01  0.94568691251E+02  0.73339562875E+03  0.74415748660E+03  0.83109409480E+02 0.  0.
        -11    1    3    3    0    0 -0.41832755261E+02 -0.50044689356E+02 -0.35186521186E+03  0.35785971786E+03  0.00000000000E+00 0.  1.
         12    1    3    3    0    0  0.22805336518E+02  0.10853057050E+01 -0.10736400167E+03  0.10976470342E+03  0.00000000000E+00 0. -1.
         11    1    5    5    0    0  0.36157286992E+02  0.41250699145E+02  0.25303815582E+03  0.25891558061E+03  0.00000000000E+00 0. -1.
        -12    1    5    5    0    0 -0.43285069545E+02  0.53317992106E+02  0.48035747293E+03  0.48524190599E+03  0.00000000000E+00 0.  1.
          5    1    4    4  501    0  0.61874716582E+02  0.13683854518E+02  0.20971415809E+03  0.21911921169E+03  0.41800000000E+01 0.  1.
         -5    1    4    4    0  501 -0.35719515285E+02 -0.59293162118E+02  0.14726021425E+03  0.16277163742E+03  0.41800000000E+01 0.  1.
</event>
<event>
11    1  0.6455215E-009  0.1609070E+03  0.7561462E-02  0.1086227E+00
         22   -1    0    0    0    0  0.00000000000E+00  0.00000000000E+00  0.14524473082E+04  0.14524473082E+04  0.00000000000E+00 0.  1.
         22   -1    0    0    0    0 -0.00000000000E+00 -0.00000000000E+00 -0.62277101655E+03  0.62277101655E+03  0.00000000000E+00 0. -1.
         24    2    1    2    0    0 -0.12311816245E+02 -0.11908770174E+02 -0.51551681720E+03  0.52229162157E+03  0.82082577399E+02 0.  0.
         25    2    1    2    0    0  0.41338494193E+02 -0.85299429361E+02 -0.39586972046E+02  0.16186177976E+03  0.12508894292E+03 0.  0.
        -24    2    1    2    0    0 -0.29026677948E+02  0.97208199535E+02  0.13847800809E+04  0.13910649234E+04  0.84579942208E+02 0.  0.
        -11    1    3    3    0    0  0.42328095353E+01 -0.36419900163E+00  0.17766013002E+01  0.46049570741E+01  0.00000000000E+00 0.  1.
         12    1    3    3    0    0 -0.16544625780E+02 -0.11544571172E+02 -0.51729341850E+03  0.51768666449E+03  0.00000000000E+00 0. -1.
         11    1    5    5    0    0 -0.25771111953E+01  0.10628174142E+02  0.16511950235E+02  0.19805153074E+02  0.00000000000E+00 0. -1.
        -12    1    5    5    0    0 -0.26449566752E+02  0.86580025392E+02  0.13682681306E+04  0.13712597703E+04  0.00000000000E+00 0.  1.
          5    1    4    4  501    0 -0.15726326554E+02 -0.33569613331E+02  0.37439587795E+02  0.52852922534E+02  0.41800000000E+01 0.  1.
         -5    1    4    4    0  501  0.57064820747E+02 -0.51729816030E+02 -0.77026559841E+02  0.10900885723E+03  0.41800000000E+01 0.  1.
</event>
<event>
11    1  0.6455215E-009  0.1384380E+03  0.7561462E-02  0.1109315E+00
         22   -1    0    0    0    0  0.00000000000E+00  0.00000000000E+00  0.45008775345E+03  0.45008775345E+03  0.00000000000E+00 0.  1.
         22   -1    0    0    0    0 -0.00000000000E+00 -0.00000000000E+00 -0.61189789740E+03  0.61189789740E+03  0.00000000000E+00 0.  1.
        -24    2    1    2    0    0 -0.23827144337E+01 -0.44341049011E+02 -0.49378171238E+03  0.50196412758E+03  0.78586257965E+02 0.  0.
         25    2    1    2    0    0  0.41574342001E+02 -0.24801071474E+01 -0.67493199710E+02  0.14811244987E+03  0.12508952376E+03 0.  0.
         24    2    1    2    0    0 -0.39191627568E+02  0.46821156159E+02  0.39946476814E+03  0.41190907340E+03  0.79804632890E+02 0.  0.
        -11    1    5    5    0    0 -0.30927822078E+02  0.20066900598E+02  0.36778416529E+03  0.36962738388E+03  0.00000000000E+00 0.  1.
         12    1    5    5    0    0 -0.82638054896E+01  0.26754255560E+02  0.31680602854E+02  0.42281689523E+02  0.00000000000E+00 0. -1.
         11    1    3    3    0    0  0.41963389358E+01 -0.71848528756E+01 -0.17689445373E+01  0.85064996375E+01  0.00000000000E+00 0. -1.
        -12    1    3    3    0    0 -0.65790533694E+01 -0.37156196136E+02 -0.49201276784E+03  0.49345762794E+03  0.00000000000E+00 0.  1.
          5    1    4    4  501    0  0.36460943346E+02  0.58612942474E+02 -0.25596333454E+02  0.73739555880E+02  0.41800000000E+01 0.  1.
         -5    1    4    4    0  501  0.51133986553E+01 -0.61093049622E+02 -0.41896866257E+02  0.74372893987E+02  0.41800000000E+01 0.  1.
</event>
<event>
11    1  0.6455215E-009  0.1995616E+03  0.7561462E-02  0.1054834E+00
         22   -1    0    0    0    0  0.00000000000E+00  0.00000000000E+00  0.60032514723E+03  0.60032514723E+03  0.00000000000E+00 0. -1.
         22   -1    0    0    0    0 -0.00000000000E+00 -0.00000000000E+00 -0.63025396985E+03  0.63025396985E+03  0.00000000000E+00 0. -1.
        -24    2    1    2    0    0  0.13137444974E+03 -0.98245994816E+02 -0.45710153413E+03  0.49245390015E+03  0.81593564235E+02 0.  0.
         25    2    1    2    0    0 -0.99585875257E+02  0.83199805811E+02 -0.98527600191E+02  0.20541392936E+03  0.12509052778E+03 0.  0.
         24    2    1    2    0    0 -0.31788574485E+02  0.15046189005E+02  0.52570031170E+03  0.53271128756E+03  0.78635850005E+02 0.  0.
        -11    1    5    5    0    0  0.19306199455E+02 -0.11133543192E+02  0.71390191386E+02  0.74787997349E+02  0.00000000000E+00 0.  1.
         12    1    5    5    0    0 -0.51094773940E+02  0.26179732197E+02  0.45431012031E+03  0.45792329022E+03  0.00000000000E+00 0. -1.
         13    1    3    3    0    0  0.98110293194E+02 -0.44117377495E+02 -0.36531582629E+03  0.38082492771E+03  0.00000000000E+00 0. -1.
        -14    1    3    3    0    0  0.33264156548E+02 -0.54128617321E+02 -0.91785707845E+02  0.11162897244E+03  0.00000000000E+00 0.  1.
          5    1    4    4  501    0 -0.11371305701E+03  0.10308774467E+03 -0.94623702440E+02  0.18035758897E+03  0.41800000000E+01 0.  1.
         -5    1    4    4    0  501  0.14127181756E+02 -0.19887938855E+02 -0.39038977506E+01  0.25056340393E+02  0.41800000000E+01 0.  1.
</event>
<event>
11    1  0.6455215E-009  0.2244580E+03  0.7561462E-02  0.1038460E+00
         22   -1    0    0    0    0  0.00000000000E+00  0.00000000000E+00  0.70461052052E+03  0.70461052052E+03  0.00000000000E+00 0.  1.
         22   -1    0    0    0    0 -0.00000000000E+00 -0.00000000000E+00 -0.14827320404E+04  0.14827320404E+04  0.00000000000E+00 0.  1.
        -24    2    1    2    0    0 -0.45200777922E+02  0.22265074351E+02 -0.12764584794E+04  0.12799877974E+04  0.80521226864E+02 0.  0.
         25    2    1    2    0    0  0.18200034331E+03  0.10204379014E+03 -0.10939616815E+03  0.26674646163E+03  0.12509633532E+03 0.  0.
         24    2    1    2    0    0 -0.13679956539E+03 -0.12430886449E+03  0.60773312762E+03  0.64060830197E+03  0.82901310389E+02 0.  0.
        -11    1    5    5    0    0 -0.95219663901E+02 -0.46642213293E+02  0.42085789815E+03  0.43400881430E+03  0.00000000000E+00 0.  1.
         12    1    5    5    0    0 -0.41579901490E+02 -0.77666651198E+02  0.18687522946E+03  0.20659948766E+03  0.00000000000E+00 0. -1.
         13    1    3    3    0    0 -0.10113121790E+02 -0.29329571564E+02 -0.32162759649E+03  0.32312042619E+03  0.00000000000E+00 0. -1.
        -14    1    3    3    0    0 -0.35087656132E+02  0.51594645915E+02 -0.95483088290E+03  0.95686737118E+03  0.00000000000E+00 0.  1.
          5    1    4    4  501    0  0.75188801181E+01  0.36603141893E+02  0.17277664394E+02  0.41380111667E+02  0.41800000000E+01 0. -1.
         -5    1    4    4    0  501  0.17448146319E+03  0.65440648247E+02 -0.12667383255E+03  0.22536634996E+03  0.41800000000E+01 0. -1.
</event>
<event>
11    1  0.6455215E-009  0.1362520E+03  0.7561462E-02  0.1111817E+00
         22   -1    0    0    0    0  0.00000000000E+00  0.00000000000E+00  0.18448251826E+04  0.18448251826E+04  0.00000000000E+00 0.  1.
         22   -1    0    0    0    0 -0.00000000000E+00 -0.00000000000E+00 -0.10540655712E+03  0.10540655712E+03  0.00000000000E+00 0. -1.
         24    2    1    2    0    0 -0.51285953373E+01 -0.53300920824E+02 -0.73359104363E+02  0.12229087592E+03  0.81891449427E+02 0.  0.
         25    2    1    2    0    0 -0.12765700922E+02  0.73706963702E+02  0.95919532628E+03  0.97020561955E+03  0.12509032986E+03 0.  0.
        -24    2    1    2    0    0  0.17894296260E+02 -0.20406042878E+02  0.85358240356E+03  0.85773524425E+03  0.79813640050E+02 0.  0.
        -13    1    3    3    0    0  0.11164384203E+02 -0.35535136397E+02  0.74305515577E+01  0.37981607257E+02  0.00000000000E+00 0.  1.
         14    1    3    3    0    0 -0.16292979540E+02 -0.17765784427E+02 -0.80789655920E+02  0.84309268662E+02  0.00000000000E+00 0. -1.
         11    1    5    5    0    0  0.18779261968E+02  0.25776312990E+02  0.20041082622E+03  0.20293244753E+03  0.00000000000E+00 0. -1.
        -12    1    5    5    0    0 -0.88496570866E+00 -0.46182355869E+02  0.65317157734E+03  0.65480279673E+03  0.00000000000E+00 0.  1.
          5    1    4    4  501    0  0.35575301618E+01  0.88646467832E+02  0.92504500675E+03  0.92929897729E+03  0.41800000000E+01 0. -1.
         -5    1    4    4    0  501 -0.16323231084E+02 -0.14939504130E+02  0.34150319529E+02  0.40906642255E+02  0.41800000000E+01 0. -1.
</event>
<event>
11    1  0.6455215E-009  0.1954874E+03  0.7561462E-02  0.1057761E+00
         22   -1    0    0    0    0  0.00000000000E+00  0.00000000000E+00  0.33483078875E+03  0.33483078875E+03  0.00000000000E+00 0.  1.
         22   -1    0    0    0    0 -0.00000000000E+00 -0.00000000000E+00 -0.71698787801E+03  0.71698787801E+03  0.00000000000E+00 0.  1.
        -24    2    1    2    0    0 -0.36629373089E+02 -0.14757220891E+03 -0.57186838431E+03  0.59709578582E+03  0.79816418492E+02 0.  0.
         25    2    1    2    0    0  0.86392675677E+02  0.12030599715E+03 -0.45431388861E+02  0.19913288474E+03  0.12511062037E+03 0.  0.
         24    2    1    2    0    0 -0.49763302589E+02  0.27266211754E+02  0.23514268391E+03  0.25558999619E+03  0.82548965891E+02 0.  0.
        -11    1    5    5    0    0  0.59862612915E+00  0.29633704608E+02  0.17322199523E+03  0.17573950732E+03  0.00000000000E+00 0.  1.
         12    1    5    5    0    0 -0.50361928718E+02 -0.23674928538E+01  0.61920688684E+02  0.79850488875E+02  0.00000000000E+00 0. -1.
         11    1    3    3    0    0 -0.33583558427E+02 -0.22462035127E+02 -0.80892823602E+02  0.90421498157E+02  0.00000000000E+00 0. -1.
        -12    1    3    3    0    0 -0.30458146617E+01 -0.12511017378E+03 -0.49097556071E+03  0.50667428767E+03  0.00000000000E+00 0.  1.
          5    1    4    4  501    0  0.11456936357E+03  0.65306125365E+02 -0.31257981160E+02  0.13559337323E+03  0.41800000000E+01 0.  1.
         -5    1    4    4    0  501 -0.28176687889E+02  0.54999871787E+02 -0.14173407701E+02  0.63539511509E+02  0.41800000000E+01 0.  1.
</event>
<event>
11    1  0.6455215E-009  0.1440447E+03  0.7561462E-02  0.1103124E+00
         22   -1    0    0    0    0  0.00000000000E+00  0.00000000000E+00  0.30325392660E+03  0.30325392660E+03  0.00000000000E+00 0. -1.
         22   -1    0    0    0    0 -0.00000000000E+00 -0.00000000000E+00 -0.13875897582E+04  0.13875897582E+04  0.00000000000E+00 0. -1.
        -24    2    1    2    0    0  0.49170691471E+02  0.49412991860E+02 -0.10764871814E+04  0.10821392555E+04  0.85681478359E+02 0.  0.
         25    2    1    2    0    0 -0.66975021080E+02 -0.49830797840E+02 -0.28319592333E+03  0.32065206024E+03  0.12509616655E+03 0.  0.
         24    2    1    2    0    0  0.17804329608E+02  0.41780597952E+00  0.27534727322E+03  0.28805236904E+03  0.82709598730E+02 0.  0.
        -13    1    5    5    0    0  0.33053484694E+02  0.16957551343E+02  0.53881895777E+02  0.65447307741E+02  0.00000000000E+00 0.  1.
         14    1    5    5    0    0 -0.15249155086E+02 -0.16539745364E+02  0.22146537745E+03  0.22260506130E+03  0.00000000000E+00 0. -1.
         11    1    3    3    0    0  0.65863074028E+02  0.27061599238E+02 -0.94740139230E+03  0.95007350916E+03  0.00000000000E+00 0. -1.
        -12    1    3    3    0    0 -0.16692382557E+02  0.22351392622E+02 -0.12908578915E+03  0.13206574631E+03  0.00000000000E+00 0.  1.
          5    1    4    4  501    0  0.43533770046E+01 -0.61926518111E+02 -0.61791850751E+02  0.87690083566E+02  0.41800000000E+01 0. -1.
         -5    1    4    4    0  501 -0.71328398084E+02  0.12095720271E+02 -0.22140407258E+03  0.23296197668E+03  0.41800000000E+01 0. -1.
</event>
<event>
11    1  0.6455215E-009  0.1682066E+03  0.7561462E-02  0.1079603E+00
         22   -1    0    0    0    0  0.00000000000E+00  0.00000000000E+00  0.10364445416E+03  0.10364445416E+03  0.00000000000E+00 0.  1.
         22   -1    0    0    0    0 -0.00000000000E+00 -0.00000000000E+00 -0.54382628608E+03  0.54382628608E+03  0.00000000000E+00 0. -1.
        -24    2    1    2    0    0  0.21470768065E+02  0.14734132222E+03 -0.11414553570E+03  0.20349633035E+03  0.78810494430E+02 0.  0.
         25    2    1    2    0    0  0.54064152890E+02 -0.88088888367E+02 -0.24386340867E+03  0.29291646674E+03  0.12509240392E+03 0.  0.
         24    2    1    2    0    0 -0.75534920955E+02 -0.59252433855E+02 -0.82172887561E+02  0.15105794315E+03  0.82763177414E+02 0.  0.
        -11    1    5    5    0    0 -0.31703864465E+02 -0.27246990082E+02  0.11003793990E+02  0.43227502504E+02  0.00000000000E+00 0.  1.
         12    1    5    5    0    0 -0.43831056491E+02 -0.32005443774E+02 -0.93176681551E+02  0.10783044064E+03  0.00000000000E+00 0. -1.
         11    1    3    3    0    0  0.32857453304E+01  0.34840528899E+02 -0.75405965412E+02  0.83130729554E+02  0.00000000000E+00 0. -1.
        -12    1    3    3    0    0  0.18185022735E+02  0.11250079332E+03 -0.38739570286E+02  0.12036560080E+03  0.00000000000E+00 0.  1.
          5    1    4    4  501    0 -0.34314646250E+02 -0.47330327081E+02 -0.13296184709E+03  0.14530650361E+03  0.41800000000E+01 0. -1.
         -5    1    4    4    0  501  0.88378799141E+02 -0.40758561286E+02 -0.11090156158E+03  0.14760996313E+03  0.41800000000E+01 0. -1.
</event>
<event>
11    1  0.6455215E-009  0.1541970E+03  0.7561462E-02  0.1092666E+00
         22   -1    0    0    0    0  0.00000000000E+00  0.00000000000E+00  0.33834711990E+03  0.33834711990E+03  0.00000000000E+00 0. -1.
         22   -1    0    0    0    0 -0.00000000000E+00 -0.00000000000E+00 -0.23405429613E+04  0.23405429613E+04  0.00000000000E+00 0. -1.
         24    2    1    2    0    0 -0.73996443724E+02 -0.38275182981E+02 -0.22326754887E+04  0.22357257647E+04  0.81788714745E+02 0.  0.
         25    2    1    2    0    0  0.72370347960E+02  0.12292321894E+03  0.56349565157E+01  0.18980770970E+03  0.12509048289E+03 0.  0.
        -24    2    1    2    0    0  0.16260957649E+01 -0.84648035963E+02  0.22484469081E+03  0.25335660675E+03  0.80414557242E+02 0.  0.
        -11    1    3    3    0    0 -0.10051868546E+02  0.24903497640E+02 -0.51403183241E+03  0.51473289091E+03  0.00000000000E+00 0.  1.
         12    1    3    3    0    0 -0.63944575178E+02 -0.63178680621E+02 -0.17186436563E+04  0.17209928738E+04  0.00000000000E+00 0. -1.
         11    1    5    5    0    0 -0.54892963585E+01 -0.99819814000E+02  0.19023089048E+03  0.21489978905E+03  0.00000000000E+00 0. -1.
        -12    1    5    5    0    0  0.71153921234E+01  0.15171778037E+02  0.34613800334E+02  0.38456817698E+02  0.00000000000E+00 0.  1.
          5    1    4    4  501    0  0.73317024106E+02  0.11830491023E+03 -0.39101301148E+02  0.14462994835E+03  0.41800000000E+01 0.  1.
         -5    1    4    4    0  501 -0.94667614643E+00  0.46183087117E+01  0.44736257663E+02  0.45177761352E+02  0.41800000000E+01 0.  1.
</event>
<event>
11    1  0.6455215E-009  0.1560331E+03  0.7561462E-02  0.1090869E+00
         22   -1    0    0    0    0  0.00000000000E+00  0.00000000000E+00  0.26070203359E+04  0.26070203359E+04  0.00000000000E+00 0. -1.
         22   -1    0    0    0    0 -0.00000000000E+00 -0.00000000000E+00 -0.56673325550E+03  0.56673325550E+03  0.00000000000E+00 0. -1.
        -24    2    1    2    0    0 -0.93701730056E+02 -0.22589022361E+01 -0.54916352543E+03  0.56308869862E+03  0.81872999227E+02 0.  0.
         25    2    1    2    0    0  0.59521468059E+02 -0.43827919902E+02  0.54941541387E+03  0.56829840684E+03  0.12506834329E+03 0.  0.
         24    2    1    2    0    0  0.34180261997E+02  0.46086822138E+02  0.20400351920E+04  0.20423664859E+04  0.78898624791E+02 0.  0.
        -11    1    5    5    0    0  0.23413213683E+02  0.73949783545E+01  0.15745147469E+03  0.15935441997E+03  0.00000000000E+00 0.  1.
         12    1    5    5    0    0  0.10767048314E+02  0.38691843784E+02  0.18825837173E+04  0.18830120660E+04  0.00000000000E+00 0. -1.
         11    1    3    3    0    0 -0.51413836161E+02  0.11202247959E+02 -0.46475925872E+03  0.46772859809E+03  0.00000000000E+00 0. -1.
        -12    1    3    3    0    0 -0.42287893895E+02 -0.13461150196E+02 -0.84404266708E+02  0.95360100530E+02  0.00000000000E+00 0.  1.
          5    1    4    4  501    0  0.85252173785E+02 -0.46591590410E+02  0.25818681969E+03  0.27589239876E+03  0.41800000000E+01 0.  1.
         -5    1    4    4    0  501 -0.25730705726E+02  0.27636705077E+01  0.29122859418E+03  0.29240600808E+03  0.41800000000E+01 0.  1.
</event>
<event>
11    1  0.6455215E-009  0.1394221E+03  0.7561462E-02  0.1108205E+00
         22   -1    0    0    0    0  0.00000000000E+00  0.00000000000E+00  0.15878903071E+03  0.15878903071E+03  0.00000000000E+00 0. -1.
         22   -1    0    0    0    0 -0.00000000000E+00 -0.00000000000E+00 -0.38377579625E+03  0.38377579625E+03  0.00000000000E+00 0. -1.
         24    2    1    2    0    0  0.52512704751E+02 -0.34598362762E+02 -0.26340725054E+03  0.28249766471E+03  0.80417162730E+02 0.  0.
         25    2    1    2    0    0 -0.18890420348E+02  0.64627354819E+02 -0.27857481185E+02  0.14476683132E+03  0.12509137948E+03 0.  0.
        -24    2    1    2    0    0 -0.33622284403E+02 -0.30028992058E+02  0.66277966191E+02  0.11530033093E+03  0.82880631861E+02 0.  0.
        -11    1    3    3    0    0  0.58095345647E+02 -0.15790073938E+02 -0.91847023216E+02  0.10981926650E+03  0.00000000000E+00 0.  1.
         12    1    3    3    0    0 -0.55826408962E+01 -0.18808288824E+02 -0.17156022733E+03  0.17267839821E+03  0.00000000000E+00 0. -1.
         13    1    5    5    0    0 -0.11047603715E+02 -0.16647268310E+02  0.82207930160E+02  0.84600974411E+02  0.00000000000E+00 0. -1.
        -14    1    5    5    0    0 -0.22574680688E+02 -0.13381723748E+02 -0.15929963969E+02  0.30699356519E+02  0.00000000000E+00 0.  1.
          5    1    4    4  501    0 -0.47824692981E+02  0.46489807466E+02 -0.65636266317E+02  0.93670140989E+02  0.41800000000E+01 0. -1.
         -5    1    4    4    0  501  0.28934272633E+02  0.18137547354E+02  0.37778785132E+02  0.51096690332E+02  0.41800000000E+01 0. -1.
</event>
<event>
11    1  0.6455215E-009  0.1337263E+03  0.7561462E-02  0.1114774E+00
         22   -1    0    0    0    0  0.00000000000E+00  0.00000000000E+00  0.12246560302E+04  0.12246560302E+04  0.00000000000E+00 0.  1.
         22   -1    0    0    0    0 -0.00000000000E+00 -0.00000000000E+00 -0.11906929692E+04  0.11906929692E+04  0.00000000000E+00 0. -1.
        -24    2    1    2    0    0 -0.59636358395E+01  0.46758279480E+02 -0.11589679260E+04  0.11627137054E+04  0.80464933449E+02 0.  0.
         25    2    1    2    0    0  0.38333157526E+01 -0.60004097724E+02  0.14188342813E+03  0.19847840412E+03  0.12509030207E+03 0.  0.
         24    2    1    2    0    0  0.21303200869E+01  0.13245818244E+02  0.10510475589E+04  0.10541568898E+04  0.79785884367E+02 0.  0.
        -13    1    5    5    0    0  0.36786362791E+02 -0.10873035232E+02  0.45348865937E+03  0.45510814491E+03  0.00000000000E+00 0.  1.
         14    1    5    5    0    0 -0.34656042704E+02  0.24118853476E+02  0.59755889954E+03  0.59904874493E+03  0.00000000000E+00 0. -1.
         11    1    3    3    0    0  0.54728201853E+01  0.68157752568E+02 -0.91048577869E+03  0.91304971617E+03  0.00000000000E+00 0. -1.
        -12    1    3    3    0    0 -0.11436456025E+02 -0.21399473088E+02 -0.24848214733E+03  0.24966398923E+03  0.00000000000E+00 0.  1.
          5    1    4    4  501    0  0.68857637298E+01 -0.69692993702E+02  0.16145272791E+03  0.17603687927E+03  0.41800000000E+01 0. -1.
         -5    1    4    4    0  501 -0.30524479772E+01  0.96888959776E+01 -0.19569299778E+02  0.22441524853E+02  0.41800000000E+01 0. -1.
</event>
<event>
11    1  0.6455215E-009  0.1585203E+03  0.7561462E-02  0.1088477E+00
         22   -1    0    0    0    0  0.00000000000E+00  0.00000000000E+00  0.34691176873E+02  0.34691176873E+02  0.00000000000E+00 0.  1.
         22   -1    0    0    0    0 -0.00000000000E+00 -0.00000000000E+00 -0.20113125964E+04  0.20113125964E+04  0.00000000000E+00 0.  1.
        -24    2    1    2    0    0 -0.29969517544E+01  0.11920037455E+02 -0.13213346870E+04  0.13246628405E+04  0.93033418762E+02 0.  0.
         25    2    1    2    0    0 -0.95819846059E+01  0.88118013679E+02 -0.48149874814E+03  0.50531678676E+03  0.12508961491E+03 0.  0.
         24    2    1    2    0    0  0.12578936360E+02 -0.10003805113E+03 -0.17378798436E+03  0.21602414596E+03  0.79361998542E+02 0.  0.
        -13    1    5    5    0    0  0.42283330147E+02 -0.48762095903E+02 -0.61976825233E+02  0.89480438483E+02  0.00000000000E+00 0.  1.
         14    1    5    5    0    0 -0.29704393787E+02 -0.51275955231E+02 -0.11181115913E+03  0.12654370747E+03  0.00000000000E+00 0. -1.
         11    1    3    3    0    0 -0.16396011232E+02 -0.80175517573E+01 -0.52162430087E+02  0.55263273818E+02  0.00000000000E+00 0. -1.
        -12    1    3    3    0    0  0.13399059478E+02  0.19937589213E+02 -0.12691722569E+04  0.12693995667E+04  0.00000000000E+00 0.  1.
          5    1    4    4  501    0 -0.55827534412E+02  0.15781823254E+02 -0.28444396748E+03  0.29033019578E+03  0.41800000000E+01 0. -1.
         -5    1    4    4    0  501  0.46245549806E+02  0.72336190424E+02 -0.19705478066E+03  0.21498659098E+03  0.41800000000E+01 0. -1.
</event>
<event>
11    1  0.6455215E-009  0.1276850E+03  0.7561462E-02  0.1122146E+00
         22   -1    0    0    0    0  0.00000000000E+00  0.00000000000E+00  0.66083087998E+03  0.66083087998E+03  0.00000000000E+00 0.  1.
         22   -1    0    0    0    0 -0.00000000000E+00 -0.00000000000E+00 -0.13162440125E+04  0.13162440125E+04  0.00000000000E+00 0. -1.
        -24    2    1    2    0    0 -0.36568986258E+01 -0.27583677342E+02 -0.11563497683E+04  0.11594772046E+04  0.80426171401E+02 0.  0.
         25    2    1    2    0    0  0.17071727312E+02 -0.13803156014E+02 -0.12985460351E+03  0.18163627787E+03  0.12509016107E+03 0.  0.
         24    2    1    2    0    0 -0.13414828686E+02  0.41386833356E+02  0.63079123938E+03  0.63596140998E+03  0.68238549982E+02 0.  0.
        -13    1    5    5    0    0 -0.15904288084E+02  0.27856745504E+02  0.61109535477E+03  0.61193666116E+03  0.00000000000E+00 0.  1.
         14    1    5    5    0    0  0.24894593979E+01  0.13530087851E+02  0.19695884604E+02  0.24024748816E+02  0.00000000000E+00 0. -1.
         13    1    3    3    0    0 -0.19694019614E+02 -0.10209258269E+02 -0.10612622716E+04  0.10614940850E+04  0.00000000000E+00 0. -1.
        -14    1    3    3    0    0  0.16037120988E+02 -0.17374419073E+02 -0.95087496759E+02  0.97983119606E+02  0.00000000000E+00 0.  1.
          5    1    4    4  501    0 -0.15847335121E+02 -0.31249414082E+01  0.20991622807E+02  0.26814621335E+02  0.41800000000E+01 0.  1.
         -5    1    4    4    0  501  0.32919062433E+02 -0.10678214605E+02 -0.15084622632E+03  0.15482165654E+03  0.41800000000E+01 0.  1.
</event>
<event>
11    1  0.6455215E-009  0.1713739E+03  0.7561462E-02  0.1076842E+00
         22   -1    0    0    0    0  0.00000000000E+00  0.00000000000E+00  0.60571219614E+03  0.60571219614E+03  0.00000000000E+00 0. -1.
         22   -1    0    0    0    0 -0.00000000000E+00 -0.00000000000E+00 -0.20510855080E+04  0.20510855080E+04  0.00000000000E+00 0. -1.
        -24    2    1    2    0    0  0.39786307720E+02  0.11009845463E+03 -0.20111396275E+04  0.20161090705E+04  0.79426462444E+02 0.  0.
         25    2    1    2    0    0 -0.63870186506E+02 -0.10878298747E+03  0.20701202947E+03  0.27279072488E+03  0.12509060775E+03 0.  0.
         24    2    1    2    0    0  0.24083878786E+02 -0.13154671603E+01  0.35875428614E+03  0.36789790876E+03  0.77861863433E+02 0.  0.
        -11    1    5    5    0    0  0.97080912596E+01 -0.18277548713E+02  0.21252580585E+02  0.29664591762E+02  0.00000000000E+00 0.  1.
         12    1    5    5    0    0  0.14375787526E+02  0.16962081552E+02  0.33750170555E+03  0.33823331700E+03  0.00000000000E+00 0. -1.
         13    1    3    3    0    0  0.33664309590E+02  0.70971446206E+02 -0.70383673666E+03  0.70820645562E+03  0.00000000000E+00 0. -1.
        -14    1    3    3    0    0  0.61219981295E+01  0.39127008428E+02 -0.13073028909E+04  0.13079026149E+04  0.00000000000E+00 0.  1.
          5    1    4    4  501    0 -0.97899464650E+02 -0.56387265328E+02  0.11307832971E+03  0.15989999975E+03  0.41800000000E+01 0. -1.
         -5    1    4    4    0  501  0.34029278144E+02 -0.52395722145E+02  0.93933699759E+02  0.11289072513E+03  0.41800000000E+01 0. -1.
</event>
<event>
11    1  0.6455215E-009  0.1254868E+03  0.7561462E-02  0.1124942E+00
         22   -1    0    0    0    0  0.00000000000E+00  0.00000000000E+00  0.92674098872E+03  0.92674098872E+03  0.00000000000E+00 0.  1.
         22   -1    0    0    0    0 -0.00000000000E+00 -0.00000000000E+00 -0.34634138826E+03  0.34634138826E+03  0.00000000000E+00 0.  1.
         24    2    1    2    0    0  0.33540319030E+02  0.74696824323E+01 -0.31325303598E+03  0.32610310251E+03  0.83875024643E+02 0.  0.
         25    2    1    2    0    0 -0.25664085508E+02  0.27084733000E+01  0.15109745705E+03  0.19784764554E+03  0.12508904111E+03 0.  0.
        -24    2    1    2    0    0 -0.78762335220E+01 -0.10178155732E+02  0.74255517939E+03  0.74913162893E+03  0.98205769224E+02 0.  0.
        -11    1    3    3    0    0  0.52768784802E+02  0.19633217550E+02 -0.28128689728E+03  0.28686639131E+03  0.00000000000E+00 0.  1.
         12    1    3    3    0    0 -0.19228465772E+02 -0.12163535117E+02 -0.31966138703E+02  0.39236711203E+02  0.00000000000E+00 0. -1.
         13    1    5    5    0    0 -0.42741563912E+02  0.16602522126E+02  0.53555703518E+03  0.53751634669E+03  0.00000000000E+00 0. -1.
        -14    1    5    5    0    0  0.34865330390E+02 -0.26780677858E+02  0.20699814421E+03  0.21161528224E+03  0.00000000000E+00 0.  1.
          5    1    4    4  501    0 -0.32590661117E+02 -0.39651811272E+02  0.12914211679E+02  0.53091115947E+02  0.41800000000E+01 0.  1.
         -5    1    4    4    0  501  0.69265756087E+01  0.42360284572E+02  0.13818324537E+03  0.14475652959E+03  0.41800000000E+01 0.  1.
</event>
<event>
11    1  0.6455215E-009  0.1387374E+03  0.7561462E-02  0.1108977E+00
         22   -1    0    0    0    0  0.00000000000E+00  0.00000000000E+00  0.30264910214E+03  0.30264910214E+03  0.00000000000E+00 0.  1.
         22   -1    0    0    0    0 -0.00000000000E+00 -0.00000000000E+00 -0.10639575801E+04  0.10639575801E+04  0.00000000000E+00 0.  1.
        -24    2    1    2    0    0  0.41002403370E+01 -0.66211216441E+02 -0.75076330245E+03  0.75764333104E+03  0.77311988771E+02 0.  0.
         25    2    1    2    0    0  0.29526975551E+02  0.33421111820E+02 -0.28753259310E+03  0.31672028175E+03  0.12509169347E+03 0.  0.
         24    2    1    2    0    0 -0.33627215888E+02  0.32790104620E+02  0.27698741762E+03  0.29224306942E+03  0.80486032906E+02 0.  0.
        -11    1    5    5    0    0 -0.43437291042E+02  0.50305029355E+02  0.24952856355E+03  0.25822838392E+03  0.00000000000E+00 0.  1.
         12    1    5    5    0    0  0.98100751542E+01 -0.17514924735E+02  0.27458854069E+02  0.34014685501E+02  0.00000000000E+00 0. -1.
         13    1    3    3    0    0 -0.11897799070E+02 -0.45845075279E+02 -0.17495200764E+03  0.18124992008E+03  0.00000000000E+00 0. -1.
        -14    1    3    3    0    0  0.15998039407E+02 -0.20366141162E+02 -0.57581129481E+03  0.57639341096E+03  0.00000000000E+00 0.  1.
          5    1    4    4  501    0  0.24468972634E+02 -0.31550239335E+02 -0.21666812883E+03  0.22035584557E+03  0.41800000000E+01 0.  1.
         -5    1    4    4    0  501  0.50580029169E+01  0.64971351155E+02 -0.70864464267E+02  0.96364436180E+02  0.41800000000E+01 0.  1.
</event>
<event>
11    1  0.6455215E-009  0.1596237E+03  0.7561462E-02  0.1087432E+00
         22   -1    0    0    0    0  0.00000000000E+00  0.00000000000E+00  0.18536006934E+04  0.18536006934E+04  0.00000000000E+00 0.  1.
         22   -1    0    0    0    0 -0.00000000000E+00 -0.00000000000E+00 -0.74492256900E+03  0.74492256900E+03  0.00000000000E+00 0.  1.
         24    2    1    2    0    0 -0.38586722794E+02  0.91740401832E+02 -0.72184670092E+03  0.73459398839E+03  0.93061440112E+02 0.  0.
         25    2    1    2    0    0  0.54974524353E+02 -0.61705814654E+02  0.34805306115E+03  0.37896971766E+03  0.12508919873E+03 0.  0.
        -24    2    1    2    0    0 -0.16387801559E+02 -0.30034587178E+02  0.14824717642E+04  0.14849595564E+04  0.78814440142E+02 0.  0.
        -13    1    3    3    0    0 -0.22297052632E+02  0.35519282139E+02 -0.57476588637E+03  0.57629385047E+03  0.00000000000E+00 0.  1.
         14    1    3    3    0    0 -0.16289670162E+02  0.56221119693E+02 -0.14708081455E+03  0.15830013791E+03  0.00000000000E+00 0. -1.
         13    1    5    5    0    0 -0.16684409629E+01  0.20930291514E+02  0.15348846530E+03  0.15491794531E+03  0.00000000000E+00 0. -1.
        -14    1    5    5    0    0 -0.14719360596E+02 -0.50964878692E+02  0.13289832989E+04  0.13300416111E+04  0.00000000000E+00 0.  1.
          5    1    4    4  501    0 -0.25520641699E+02  0.21805063403E+02  0.81883816042E+02  0.88595686534E+02  0.41800000000E+01 0.  1.
         -5    1    4    4    0  501  0.80495166052E+02 -0.83510878057E+02  0.26616924511E+03  0.29037403113E+03  0.41800000000E+01 0.  1.
</event>
<event>
11    1  0.6455215E-009  0.1372842E+03  0.7561462E-02  0.1110629E+00
         22   -1    0    0    0    0  0.00000000000E+00  0.00000000000E+00  0.40975425418E+03  0.40975425418E+03  0.00000000000E+00 0.  1.
         22   -1    0    0    0    0 -0.00000000000E+00 -0.00000000000E+00 -0.23045489138E+03  0.23045489138E+03  0.00000000000E+00 0. -1.
        -24    2    1    2    0    0  0.15899024281E+02  0.32250776809E+02 -0.14702513069E+03  0.17163942375E+03  0.80937081436E+02 0.  0.
         25    2    1    2    0    0  0.31568318078E+02 -0.62045386624E+02  0.17010674979E+02  0.14416423717E+03  0.12509106886E+03 0.  0.
         24    2    1    2    0    0 -0.47467342359E+02  0.29794609815E+02  0.30931381851E+03  0.32440548465E+03  0.80143700832E+02 0.  0.
        -13    1    5    5    0    0 -0.61827153793E+02  0.39112439010E+02  0.28757933470E+03  0.29673936978E+03  0.00000000000E+00 0.  1.
         14    1    5    5    0    0  0.14359811434E+02 -0.93178291953E+01  0.21734483813E+02  0.27666114869E+02  0.00000000000E+00 0. -1.
         11    1    3    3    0    0 -0.11263574726E+02  0.26312107849E+02 -0.14008921741E+03  0.14298315974E+03  0.00000000000E+00 0. -1.
        -12    1    3    3    0    0  0.27162599007E+02  0.59386689599E+01 -0.69359132845E+01  0.28656264008E+02  0.00000000000E+00 0.  1.
          5    1    4    4  501    0 -0.43765678486E+02 -0.47158175814E+02 -0.35106935000E+01  0.64568765888E+02  0.41800000000E+01 0.  1.
         -5    1    4    4    0  501  0.75333996564E+02 -0.14887210810E+02  0.20521368480E+02  0.79595471280E+02  0.41800000000E+01 0.  1.
</event>
<event>
11    1  0.6455215E-009  0.1354870E+03  0.7561462E-02  0.1112705E+00
         22   -1    0    0    0    0  0.00000000000E+00  0.00000000000E+00  0.81095661393E+03  0.81095661393E+03  0.00000000000E+00 0. -1.
         22   -1    0    0    0    0 -0.00000000000E+00 -0.00000000000E+00 -0.16999593236E+03  0.16999593236E+03  0.00000000000E+00 0. -1.
         24    2    1    2    0    0 -0.43472848232E+02  0.29380056585E+02 -0.11694386517E+03  0.15249796292E+03  0.82623754663E+02 0.  0.
         25    2    1    2    0    0  0.52255069986E+02 -0.86123175836E+01  0.10977984894E+03  0.17465541018E+03  0.12509249666E+03 0.  0.
        -24    2    1    2    0    0 -0.87822217531E+01 -0.20767739001E+02  0.64812469780E+03  0.65379917319E+03  0.82941597288E+02 0.  0.
        -11    1    3    3    0    0 -0.76047317052E+00  0.13752989750E+01  0.12886824259E+02  0.12982295876E+02  0.00000000000E+00 0.  1.
         12    1    3    3    0    0 -0.42712375062E+02  0.28004757610E+02 -0.12983068943E+03  0.13951566704E+03  0.00000000000E+00 0. -1.
         11    1    5    5    0    0 -0.92170217222E+01 -0.15775449061E+02  0.64851545289E+03  0.64877277295E+03  0.00000000000E+00 0. -1.
        -12    1    5    5    0    0  0.43479996911E+00 -0.49922899404E+01 -0.39075508644E+00  0.50264002426E+01  0.00000000000E+00 0.  1.
          5    1    4    4  501    0  0.10722653440E+02  0.56954323460E+02  0.45936820305E+02  0.74070467241E+02  0.41800000000E+01 0. -1.
         -5    1    4    4    0  501  0.41532416546E+02 -0.65566641043E+02  0.63843028630E+02  0.10058494294E+03  0.41800000000E+01 0. -1.
</event>
<event>
11    1  0.6455215E-009  0.1682695E+03  0.7561462E-02  0.1079547E+00
         22   -1    0    0    0    0  0.00000000000E+00  0.00000000000E+00  0.94232676075E+02  0.94232676075E+02  0.00000000000E+00 0.  1.
         22   -1    0    0    0    0 -0.00000000000E+00 -0.00000000000E+00 -0.93131337168E+03  0.93131337168E+03  0.00000000000E+00 0.  1.
         24    2    1    2    0    0 -0.37300859398E+01 -0.10204662675E+03 -0.53904547479E+03  0.55456097880E+03  0.80872911019E+02 0.  0.
         25    2    1    2    0    0  0.18184927120E+02  0.14880579036E+03 -0.31877986913E+03  0.37382296579E+03  0.12509656259E+03 0.  0.
        -24    2    1    2    0    0 -0.14454841181E+02 -0.46759163616E+02  0.20744648318E+02  0.97162103165E+02  0.81331248866E+02 0.  0.
        -11    1    3    3    0    0 -0.60191079610E+01 -0.26039842675E+02 -0.34672061904E+03  0.34774917791E+03  0.00000000000E+00 0.  1.
         12    1    3    3    0    0  0.22890220212E+01 -0.76006784071E+02 -0.19232485576E+03  0.20681180089E+03  0.00000000000E+00 0. -1.
         11    1    5    5    0    0  0.15951914300E+01  0.15752075137E+02 -0.16319481362E+02  0.22737589555E+02  0.00000000000E+00 0. -1.
        -12    1    5    5    0    0 -0.16050032611E+02 -0.62511238753E+02  0.37064129680E+02  0.74424513611E+02  0.00000000000E+00 0.  1.
          5    1    4    4  501    0  0.26876670601E+02  0.14499331781E+03 -0.17167059691E+03  0.22634858929E+03  0.41800000000E+01 0. -1.
         -5    1    4    4    0  501 -0.86917434800E+01  0.38124725564E+01 -0.14710927222E+03  0.14747437650E+03  0.41800000000E+01 0. -1.
</event>
<event>
11    1  0.6455215E-009  0.1434247E+03  0.7561462E-02  0.1103793E+00
         22   -1    0    0    0    0  0.00000000000E+00  0.00000000000E+00  0.54109764376E+03  0.54109764376E+03  0.00000000000E+00 0. -1.
         22   -1    0    0    0    0 -0.00000000000E+00 -0.00000000000E+00 -0.18388976983E+04  0.18388976983E+04  0.00000000000E+00 0. -1.
         24    2    1    2    0    0 -0.29132236170E+02  0.44500452149E+02 -0.16378099551E+04  0.16404875279E+04  0.77129130154E+02 0.  0.
         25    2    1    2    0    0 -0.30252174481E+02 -0.43955477191E+01 -0.17230664129E+03  0.21510442770E+03  0.12508325740E+03 0.  0.
        -24    2    1    2    0    0  0.59384410652E+02 -0.40104904430E+02  0.51231654187E+03  0.52440338645E+03  0.85998610818E+02 0.  0.
        -11    1    3    3    0    0  0.13969796141E+02 -0.10508451591E+01 -0.68132878077E+02  0.69558238583E+02  0.00000000000E+00 0.  1.
         12    1    3    3    0    0 -0.43102032311E+02  0.45551297308E+02 -0.15696770770E+04  0.15709292893E+04  0.00000000000E+00 0. -1.
         13    1    5    5    0    0  0.39021450169E+02 -0.48425886738E+02  0.48661721616E+03  0.49057522883E+03  0.00000000000E+00 0. -1.
        -14    1    5    5    0    0  0.20362960482E+02  0.83209823078E+01  0.25699325711E+02  0.33828157623E+02  0.00000000000E+00 0.  1.
          5    1    4    4  501    0  0.35645176215E+02  0.24098415869E+02 -0.11592208659E+03  0.12372030874E+03  0.41800000000E+01 0.  1.
         -5    1    4    4    0  501 -0.65897350696E+02 -0.28493963589E+02 -0.56384554702E+02  0.91384118963E+02  0.41800000000E+01 0.  1.
</event>
<event>
11    1  0.6455215E-009  0.1636104E+03  0.7561462E-02  0.1083730E+00
         22   -1    0    0    0    0  0.00000000000E+00  0.00000000000E+00  0.12456232252E+03  0.12456232252E+03  0.00000000000E+00 0.  1.
         22   -1    0    0    0    0 -0.00000000000E+00 -0.00000000000E+00 -0.10078800892E+04  0.10078800892E+04  0.00000000000E+00 0.  1.
        -24    2    1    2    0    0 -0.20367683447E+02 -0.30323546681E+01 -0.79641791497E+03  0.80091019150E+03  0.82168131712E+02 0.  0.
         25    2    1    2    0    0  0.79928080561E+01  0.10743659491E+03 -0.10847185897E+03  0.19754074759E+03  0.12509874446E+03 0.  0.
         24    2    1    2    0    0  0.12374875391E+02 -0.10440424024E+03  0.21572007225E+02  0.13399147266E+03  0.80218329133E+02 0.  0.
        -11    1    5    5    0    0 -0.14211815743E+02 -0.19665344934E+02  0.36605231982E+02  0.43916335304E+02  0.00000000000E+00 0.  1.
         12    1    5    5    0    0  0.26586691134E+02 -0.84738895304E+02 -0.15033224757E+02  0.90075137354E+02  0.00000000000E+00 0. -1.
         13    1    3    3    0    0 -0.13798575365E+02 -0.95748030249E+01 -0.29574347256E+02  0.34010579982E+02  0.00000000000E+00 0. -1.
        -14    1    3    3    0    0 -0.65691080820E+01  0.65424483568E+01 -0.76684356771E+03  0.76689961152E+03  0.00000000000E+00 0.  1.
          5    1    4    4  501    0 -0.54586073225E+02  0.36449807802E+02 -0.67783379951E+02  0.94447270349E+02  0.41800000000E+01 0. -1.
         -5    1    4    4    0  501  0.62578881281E+02  0.70986787103E+02 -0.40688479016E+02  0.10309347724E+03  0.41800000000E+01 0. -1.
</event>
<event>
11    1  0.6455215E-009  0.1679655E+03  0.7561462E-02  0.1079816E+00
         22   -1    0    0    0    0  0.00000000000E+00  0.00000000000E+00  0.34620007157E+03  0.34620007157E+03  0.00000000000E+00 0.  1.
         22   -1    0    0    0    0 -0.00000000000E+00 -0.00000000000E+00 -0.23071668534E+03  0.23071668534E+03  0.00000000000E+00 0.  1.
         24    2    1    2    0    0 -0.29287331399E+00 -0.30846575749E+02 -0.11048182700E+03  0.14019290387E+03  0.80599126469E+02 0.  0.
         25    2    1    2    0    0  0.63573743265E+02 -0.67261223868E+02 -0.15941134252E+02  0.15641933165E+03  0.12508874643E+03 0.  0.
        -24    2    1    2    0    0 -0.63280869951E+02  0.98107799617E+02  0.24190634748E+03  0.28030452139E+03  0.80139471629E+02 0.  0.
        -11    1    3    3    0    0 -0.47473128916E+01 -0.14584728365E+02 -0.11990193340E+03  0.12087896804E+03  0.00000000000E+00 0.  1.
         12    1    3    3    0    0  0.44544395776E+01 -0.16261847384E+02  0.94201064059E+01  0.19313935824E+02  0.00000000000E+00 0. -1.
         13    1    5    5    0    0 -0.77206706293E+02  0.83561192074E+02  0.16238618578E+03  0.19827410736E+03  0.00000000000E+00 0. -1.
        -14    1    5    5    0    0  0.13925836342E+02  0.14546607543E+02  0.79520161706E+02  0.82030414034E+02  0.00000000000E+00 0.  1.
          5    1    4    4  501    0  0.34690805683E+02 -0.37793273754E+02  0.54318883568E+02  0.74831791720E+02  0.41800000000E+01 0.  1.
         -5    1    4    4    0  501  0.28882937582E+02 -0.29467950114E+02 -0.70260017820E+02  0.81587539927E+02  0.41800000000E+01 0.  1.
</event>
<event>
11    1  0.6455215E-009  0.1326230E+03  0.7561462E-02  0.1116087E+00
         22   -1    0    0    0    0  0.00000000000E+00  0.00000000000E+00  0.58547497052E+03  0.58547497052E+03  0.00000000000E+00 0. -1.
         22   -1    0    0    0    0 -0.00000000000E+00 -0.00000000000E+00 -0.21127702792E+03  0.21127702792E+03  0.00000000000E+00 0. -1.
        -24    2    1    2    0    0  0.21411844735E+02  0.34828759116E+02 -0.15473328942E+03  0.18025021937E+03  0.82923103974E+02 0.  0.
         25    2    1    2    0    0 -0.43661883880E+02 -0.63421156609E+02  0.90446336110E+02  0.17249859783E+03  0.12508646341E+03 0.  0.
         24    2    1    2    0    0  0.22250039145E+02  0.28592397493E+02  0.43848489591E+03  0.44400318123E+03  0.59642531526E+02 0.  0.
        -11    1    5    5    0    0  0.34154052717E+02  0.67406331834E+01  0.13212526677E+03  0.13663462802E+03  0.00000000000E+00 0.  1.
         12    1    5    5    0    0 -0.11904013572E+02  0.21851764309E+02  0.30635962913E+03  0.30736855322E+03  0.00000000000E+00 0. -1.
         11    1    3    3    0    0  0.34436084277E+02  0.10143005489E+02 -0.14695434384E+03  0.15127558836E+03  0.00000000000E+00 0. -1.
        -12    1    3    3    0    0 -0.13024239542E+02  0.24685753627E+02 -0.77789455768E+01  0.28974631008E+02  0.00000000000E+00 0.  1.
          5    1    4    4  501    0 -0.78927062123E+02 -0.74975261520E+02  0.60381013350E+02  0.12455565081E+03  0.41800000000E+01 0.  1.
         -5    1    4    4    0  501  0.35265178244E+02  0.11554104910E+02  0.30065322760E+02  0.47942947025E+02  0.41800000000E+01 0.  1.
</event>
<event>
11    1  0.6455215E-009  0.1447472E+03  0.7561462E-02  0.1102370E+00
         22   -1    0    0    0    0  0.00000000000E+00  0.00000000000E+00  0.51627397526E+03  0.51627397526E+03  0.00000000000E+00 0.  1.
         22   -1    0    0    0    0 -0.00000000000E+00 -0.00000000000E+00 -0.73021329935E+03  0.73021329935E+03  0.00000000000E+00 0.  1.
         24    2    1    2    0    0 -0.59161204255E+02 -0.44790545589E+02 -0.64677012730E+03  0.65610475839E+03  0.81581954852E+02 0.  0.
         25    2    1    2    0    0  0.54676305047E+02  0.16362750127E+02 -0.72979547146E+01  0.13768769759E+03  0.12508958389E+03 0.  0.
        -24    2    1    2    0    0  0.44848992083E+01  0.28427795462E+02  0.44012875792E+03  0.45269481863E+03  0.10193635951E+03 0.  0.
        -13    1    3    3    0    0 -0.40201380386E+02 -0.51494499930E+00 -0.50042755007E+03  0.50203998747E+03  0.00000000000E+00 0.  1.
         14    1    3    3    0    0 -0.18959823868E+02 -0.44275600590E+02 -0.14634257723E+03  0.15406477092E+03  0.00000000000E+00 0. -1.
         13    1    5    5    0    0  0.12821180336E+02 -0.99441256918E+01  0.68037446787E+01  0.17594295742E+02  0.00000000000E+00 0. -1.
        -14    1    5    5    0    0 -0.83362811280E+01  0.38371921154E+02  0.43332501324E+03  0.43510052289E+03  0.00000000000E+00 0.  1.
          5    1    4    4  501    0  0.29805188573E+02 -0.28210814656E+02  0.47345925792E+02  0.62795767521E+02  0.41800000000E+01 0.  1.
         -5    1    4    4    0  501  0.24871116473E+02  0.44573564782E+02 -0.54643880507E+02  0.74891930065E+02  0.41800000000E+01 0.  1.
</event>
<event>
11    1  0.6455215E-009  0.1771982E+03  0.7561462E-02  0.1071932E+00
         22   -1    0    0    0    0  0.00000000000E+00  0.00000000000E+00  0.10105530356E+04  0.10105530356E+04  0.00000000000E+00 0.  1.
         22   -1    0    0    0    0 -0.00000000000E+00 -0.00000000000E+00 -0.12044382390E+03  0.12044382390E+03  0.00000000000E+00 0.  1.
        -24    2    1    2    0    0  0.60127396045E+02 -0.10116649929E+03  0.26888312240E+02  0.14478630782E+03  0.79938284084E+02 0.  0.
         25    2    1    2    0    0 -0.98168424334E+00  0.15429392625E+03  0.11587191154E+03  0.22995878308E+03  0.12508861918E+03 0.  0.
         24    2    1    2    0    0 -0.59145711802E+02 -0.53127426961E+02  0.74734898791E+03  0.75625176860E+03  0.84056463497E+02 0.  0.
        -11    1    5    5    0    0 -0.52078617987E+01 -0.56996794800E+02  0.48659850624E+03  0.48995291888E+03  0.00000000000E+00 0.  1.
         12    1    5    5    0    0 -0.53937850003E+02  0.38693678389E+01  0.26075048167E+03  0.26629884971E+03  0.00000000000E+00 0. -1.
         11    1    3    3    0    0  0.34061249725E+01 -0.14205351566E+02  0.37670158130E+02  0.40403397307E+02  0.00000000000E+00 0. -1.
        -12    1    3    3    0    0  0.56721271073E+02 -0.86961147722E+02 -0.10781845890E+02  0.10438291051E+03  0.00000000000E+00 0.  1.
          5    1    4    4  501    0 -0.45680806219E+02  0.60469833716E+02  0.98747647778E+02  0.12454680722E+03  0.41800000000E+01 0.  1.
         -5    1    4    4    0  501  0.44699121976E+02  0.93824092533E+02  0.17124263761E+02  0.10541197586E+03  0.41800000000E+01 0.  1.
</event>
<event>
11    1  0.6455215E-009  0.1318348E+03  0.7561462E-02  0.1117035E+00
         22   -1    0    0    0    0  0.00000000000E+00  0.00000000000E+00  0.31364263782E+03  0.31364263782E+03  0.00000000000E+00 0.  1.
         22   -1    0    0    0    0 -0.00000000000E+00 -0.00000000000E+00 -0.25685605141E+03  0.25685605141E+03  0.00000000000E+00 0. -1.
        -24    2    1    2    0    0 -0.31281373604E+02 -0.22370220609E+02 -0.20531223901E+03  0.22336041646E+03  0.79106314857E+02 0.  0.
         25    2    1    2    0    0 -0.21220158230E+02  0.12652438474E+02  0.11914118158E+03  0.17450605421E+03  0.12508941799E+03 0.  0.
         24    2    1    2    0    0  0.52501531835E+02  0.97177821353E+01  0.14295764384E+03  0.17263221856E+03  0.80710277025E+02 0.  0.
        -11    1    5    5    0    0  0.63452170178E+02  0.32648823263E+02  0.10592740606E+03  0.12772133304E+03  0.00000000000E+00 0.  1.
         12    1    5    5    0    0 -0.10950638344E+02 -0.22931041128E+02  0.37030237789E+02  0.44910885518E+02  0.00000000000E+00 0. -1.
         11    1    3    3    0    0 -0.20675214885E+02 -0.13516280631E+02 -0.20785052260E+03  0.20931314841E+03  0.00000000000E+00 0. -1.
        -12    1    3    3    0    0 -0.10606158720E+02 -0.88539399782E+01  0.25382835962E+01  0.14047268045E+02  0.00000000000E+00 0.  1.
          5    1    4    4  501    0 -0.12020114842E+02  0.27485232040E+00  0.14421391187E+03  0.14477459543E+03  0.41800000000E+01 0. -1.
         -5    1    4    4    0  501 -0.92000433887E+01  0.12377586153E+02 -0.25072730287E+02  0.29731458783E+02  0.41800000000E+01 0. -1.
</event>
<event>
11    1  0.6455215E-009  0.1341912E+03  0.7561462E-02  0.1114224E+00
         22   -1    0    0    0    0  0.00000000000E+00  0.00000000000E+00  0.20408472339E+03  0.20408472339E+03  0.00000000000E+00 0. -1.
         22   -1    0    0    0    0 -0.00000000000E+00 -0.00000000000E+00 -0.19717749619E+04  0.19717749619E+04  0.00000000000E+00 0.  1.
        -24    2    1    2    0    0  0.13188669052E+02 -0.41339065816E+01 -0.18757258214E+04  0.18776414813E+04  0.83660893421E+02 0.  0.
         25    2    1    2    0    0  0.29195608601E+02  0.30340632707E+02 -0.28675007146E+02  0.13505886611E+03  0.12508278749E+03 0.  0.
         24    2    1    2    0    0 -0.42384277652E+02 -0.26206726126E+02  0.13671059007E+03  0.16315933783E+03  0.73810328514E+02 0.  0.
        -11    1    5    5    0    0  0.15228339829E+02 -0.25338955720E+02  0.31469685793E+02  0.43177611500E+02  0.00000000000E+00 0.  1.
         12    1    5    5    0    0 -0.57612617481E+02 -0.86777040529E+00  0.10524090428E+03  0.11998172633E+03  0.00000000000E+00 0. -1.
         11    1    3    3    0    0 -0.27908185288E+00 -0.32787035246E+02 -0.33729495137E+03  0.33888486509E+03  0.00000000000E+00 0. -1.
        -12    1    3    3    0    0  0.13467750904E+02  0.28653128664E+02 -0.15384308701E+04  0.15387566162E+04  0.00000000000E+00 0.  1.
          5    1    4    4  501    0  0.17384664678E+02 -0.67872397352E+01  0.46502704217E+02  0.50281876344E+02  0.41800000000E+01 0. -1.
         -5    1    4    4    0  501  0.11810943923E+02  0.37127872442E+02 -0.75177711363E+02  0.84776989769E+02  0.41800000000E+01 0. -1.
</event>
<event>
11    1  0.6455215E-009  0.1296122E+03  0.7561462E-02  0.1119746E+00
         22   -1    0    0    0    0  0.00000000000E+00  0.00000000000E+00  0.21548974782E+04  0.21548974782E+04  0.00000000000E+00 0. -1.
         22   -1    0    0    0    0 -0.00000000000E+00 -0.00000000000E+00 -0.12836665276E+03  0.12836665276E+03  0.00000000000E+00 0.  1.
        -24    2    1    2    0    0 -0.35191557279E+02  0.38095062943E+01 -0.10357301358E+03  0.13077164564E+03  0.71560436827E+02 0.  0.
         25    2    1    2    0    0  0.29517601048E+01  0.14637798814E+02  0.38365120960E+03  0.40380546719E+03  0.12509047394E+03 0.  0.
         24    2    1    2    0    0  0.32239797174E+02 -0.18447305109E+02  0.17464526294E+04  0.17486870181E+04  0.80185989823E+02 0.  0.
        -11    1    5    5    0    0  0.34391641198E+02 -0.13586171961E+02  0.30622001992E+03  0.30844459738E+03  0.00000000000E+00 0.  1.
         12    1    5    5    0    0 -0.21518440240E+01 -0.48611331477E+01  0.14402326095E+04  0.14402424207E+04  0.00000000000E+00 0. -1.
         13    1    3    3    0    0 -0.19821175785E+02  0.26713768359E+02 -0.12371734314E+02  0.35490340085E+02  0.00000000000E+00 0. -1.
        -14    1    3    3    0    0 -0.15370381494E+02 -0.22904262065E+02 -0.91201279268E+02  0.95281305554E+02  0.00000000000E+00 0.  1.
          5    1    4    4  501    0  0.36460945838E+02 -0.43382639923E+02  0.14046518816E+03  0.15152358068E+03  0.41800000000E+01 0.  1.
         -5    1    4    4    0  501 -0.33509185733E+02  0.58020438738E+02  0.24318602143E+03  0.25228188651E+03  0.41800000000E+01 0.  1.
</event>
<event>
11    1  0.6455215E-009  0.1962159E+03  0.7561462E-02  0.1057232E+00
         22   -1    0    0    0    0  0.00000000000E+00  0.00000000000E+00  0.46312637757E+03  0.46312637757E+03  0.00000000000E+00 0. -1.
         22   -1    0    0    0    0 -0.00000000000E+00 -0.00000000000E+00 -0.13307490712E+04  0.13307490712E+04  0.00000000000E+00 0.  1.
        -24    2    1    2    0    0 -0.13402143076E+03  0.27364321464E+02 -0.10565569041E+04  0.10684767211E+04  0.81360075817E+02 0.  0.
         25    2    1    2    0    0  0.15339645191E+03 -0.17399198190E+03 -0.18069985607E+03  0.31953682947E+03  0.12509063186E+03 0.  0.
         24    2    1    2    0    0 -0.19375021153E+02  0.14662766043E+03  0.36963406662E+03  0.40586189813E+03  0.78863647480E+02 0.  0.
        -11    1    5    5    0    0 -0.35688432034E+02  0.22851006848E+02  0.10613829997E+03  0.11428548208E+03  0.00000000000E+00 0.  1.
         12    1    5    5    0    0  0.16313410881E+02  0.12377665359E+03  0.26349576666E+03  0.29157641604E+03  0.00000000000E+00 0. -1.
         11    1    3    3    0    0  0.21687349106E+01 -0.11197352290E+02 -0.28118055312E+02  0.30343189416E+02  0.00000000000E+00 0. -1.
        -12    1    3    3    0    0 -0.13619016567E+03  0.38561673754E+02 -0.10284388488E+04  0.10381335317E+04  0.00000000000E+00 0.  1.
          5    1    4    4  501    0 -0.90278542302E+01 -0.28447718505E+02  0.79223402229E+01  0.31161044828E+02  0.41800000000E+01 0. -1.
         -5    1    4    4    0  501  0.16242430614E+03 -0.14554426339E+03 -0.18862219630E+03  0.28837578464E+03  0.41800000000E+01 0. -1.
</event>
<event>
11    1  0.6455215E-009  0.1621138E+03  0.7561462E-02  0.1085106E+00
         22   -1    0    0    0    0  0.00000000000E+00  0.00000000000E+00  0.34217958592E+03  0.34217958592E+03  0.00000000000E+00 0.  1.
         22   -1    0    0    0    0 -0.00000000000E+00 -0.00000000000E+00 -0.70926269896E+03  0.70926269896E+03  0.00000000000E+00 0. -1.
        -24    2    1    2    0    0 -0.36155123675E+02  0.94846577151E+02 -0.58898514250E+03  0.60281639803E+03  0.78619625246E+02 0.  0.
         25    2    1    2    0    0  0.54119257681E+02 -0.10745718909E+03 -0.36262251313E+02  0.17729978573E+03  0.12507726257E+03 0.  0.
         24    2    1    2    0    0 -0.17964134006E+02  0.12610611935E+02  0.25816428077E+03  0.27132610112E+03  0.80543898823E+02 0.  0.
        -13    1    5    5    0    0  0.77357817703E+01  0.33390054313E+02  0.21081703493E+03  0.21358501882E+03  0.00000000000E+00 0.  1.
         14    1    5    5    0    0 -0.25699915776E+02 -0.20779442378E+02  0.47347245842E+02  0.57741082301E+02  0.00000000000E+00 0. -1.
         13    1    3    3    0    0 -0.50937114184E+02  0.92065071006E+02 -0.56337357838E+03  0.57311460958E+03  0.00000000000E+00 0. -1.
        -14    1    3    3    0    0  0.14781990509E+02  0.27815061451E+01 -0.25611564123E+02  0.29701788442E+02  0.00000000000E+00 0.  1.
          5    1    4    4  501    0  0.24372100070E+02 -0.14691076104E+02 -0.68747808826E+02  0.74522215461E+02  0.41800000000E+01 0.  1.
         -5    1    4    4    0  501  0.29747157611E+02 -0.92766112983E+02  0.32485557513E+02  0.10277757027E+03  0.41800000000E+01 0.  1.
</event>
<event>
11    1  0.6455215E-009  0.1369730E+03  0.7561462E-02  0.1110986E+00
         22   -1    0    0    0    0  0.00000000000E+00  0.00000000000E+00  0.11653599529E+04  0.11653599529E+04  0.00000000000E+00 0.  1.
         22   -1    0    0    0    0 -0.00000000000E+00 -0.00000000000E+00 -0.47303402098E+03  0.47303402098E+03  0.00000000000E+00 0.  1.
         24    2    1    2    0    0 -0.52760974009E+01 -0.21451444211E+02 -0.39671343056E+03  0.40568048004E+03  0.81896912235E+02 0.  0.
         25    2    1    2    0    0  0.16195376620E+02  0.75499589056E+02  0.78545579623E+01  0.14721341403E+03  0.12509043535E+03 0.  0.
        -24    2    1    2    0    0 -0.10919279219E+02 -0.54048144845E+02  0.10811848045E+04  0.10855000798E+04  0.79431789071E+02 0.  0.
        -11    1    3    3    0    0 -0.36747215062E+02  0.74476343717E+01 -0.12100105061E+03  0.12667706707E+03  0.00000000000E+00 0.  1.
         12    1    3    3    0    0  0.31471117661E+02 -0.28899078582E+02 -0.27571237995E+03  0.27900341297E+03  0.00000000000E+00 0. -1.
         13    1    5    5    0    0  0.63796796225E+01  0.73487809702E+01  0.18507805091E+02  0.20910374055E+02  0.00000000000E+00 0. -1.
        -14    1    5    5    0    0 -0.17298958841E+02 -0.61396925815E+02  0.10626769994E+04  0.10645897057E+04  0.00000000000E+00 0.  1.
          5    1    4    4  501    0 -0.16764246687E+02 -0.61194688192E+01 -0.42100095329E+02  0.45917080616E+02  0.41800000000E+01 0. -1.
         -5    1    4    4    0  501  0.32959623307E+02  0.81619057875E+02  0.49954653291E+02  0.10129633341E+03  0.41800000000E+01 0. -1.
</event>
<event>
11    1  0.6455215E-009  0.2191128E+03  0.7561462E-02  0.1041775E+00
         22   -1    0    0    0    0  0.00000000000E+00  0.00000000000E+00  0.56239709095E+02  0.56239709095E+02  0.00000000000E+00 0. -1.
         22   -1    0    0    0    0 -0.00000000000E+00 -0.00000000000E+00 -0.24961232234E+04  0.24961232234E+04  0.00000000000E+00 0.  1.
        -24    2    1    2    0    0  0.30427711209E+02 -0.17708335692E+03 -0.18509181458E+04  0.18613016327E+04  0.79129163173E+02 0.  0.
         25    2    1    2    0    0  0.13394237127E+02  0.18472202146E+03 -0.54175572262E+03  0.58604458201E+03  0.12508940124E+03 0.  0.
         24    2    1    2    0    0 -0.43821948336E+02 -0.76386645434E+01 -0.47209645797E+02  0.10501671772E+03  0.82589636109E+02 0.  0.
        -11    1    5    5    0    0 -0.92560597446E+01 -0.39464249234E+02 -0.40943559750E+02  0.57614899936E+02  0.00000000000E+00 0.  1.
         12    1    5    5    0    0 -0.34565888592E+02  0.31825584690E+02 -0.62660860462E+01  0.47401817785E+02  0.00000000000E+00 0. -1.
         11    1    3    3    0    0  0.49686931719E+02 -0.63563219352E+02 -0.69745086876E+03  0.70210169375E+03  0.00000000000E+00 0. -1.
        -12    1    3    3    0    0 -0.19259220510E+02 -0.11352013757E+03 -0.11534672771E+04  0.11591999390E+04  0.00000000000E+00 0.  1.
          5    1    4    4  501    0 -0.22100546293E+02  0.96837285244E+02 -0.42045318732E+03  0.43204658208E+03  0.41800000000E+01 0. -1.
         -5    1    4    4    0  501  0.35494783420E+02  0.87884736220E+02 -0.12130253530E+03  0.15399799993E+03  0.41800000000E+01 0. -1.
</event>
<event>
11    1  0.6455215E-009  0.1694512E+03  0.7561462E-02  0.1078510E+00
         22   -1    0    0    0    0  0.00000000000E+00  0.00000000000E+00  0.43735337723E+03  0.43735337723E+03  0.00000000000E+00 0. -1.
         22   -1    0    0    0    0 -0.00000000000E+00 -0.00000000000E+00 -0.83765656804E+03  0.83765656804E+03  0.00000000000E+00 0.  1.
         24    2    1    2    0    0 -0.47939407388E+02 -0.10454803931E+03 -0.79731191786E+03  0.80972373504E+03  0.81961902274E+02 0.  0.
         25    2    1    2    0    0  0.40745134161E+02  0.78419428057E+02  0.20279411927E+03  0.25413118026E+03  0.12508968510E+03 0.  0.
        -24    2    1    2    0    0  0.71942732266E+01  0.26128611253E+02  0.19421460777E+03  0.21115502997E+03  0.78311371561E+02 0.  0.
        -13    1    3    3    0    0 -0.34451653331E+02 -0.32592880738E+01 -0.30237232546E+03  0.30434612300E+03  0.00000000000E+00 0.  1.
         14    1    3    3    0    0 -0.13487754057E+02 -0.10128875124E+03 -0.49493959239E+03  0.50537761204E+03  0.00000000000E+00 0. -1.
         13    1    5    5    0    0  0.17180679709E+02 -0.69155714111E+01  0.16469828746E+03  0.16573631701E+03  0.00000000000E+00 0. -1.
        -14    1    5    5    0    0 -0.99864064821E+01  0.33044182664E+02  0.29516320317E+02  0.45418712965E+02  0.00000000000E+00 0.  1.
          5    1    4    4  501    0 -0.38718176985E+02  0.65532598973E+01  0.25731680086E+02  0.47134214795E+02  0.41800000000E+01 0.  1.
         -5    1    4    4    0  501  0.79463311146E+02  0.71866168159E+02  0.17706243918E+03  0.20699696547E+03  0.41800000000E+01 0.  1.
</event>
<event>
11    1  0.6455215E-009  0.1821721E+03  0.7561462E-02  0.1067899E+00
         22   -1    0    0    0    0  0.00000000000E+00  0.00000000000E+00  0.55832839834E+03  0.55832839834E+03  0.00000000000E+00 0. -1.
         22   -1    0    0    0    0 -0.00000000000E+00 -0.00000000000E+00 -0.49373746339E+03  0.49373746339E+03  0.00000000000E+00 0.  1.
         24    2    1    2    0    0 -0.69967296217E+02 -0.37146924513E+02 -0.38712067868E+03  0.40320616372E+03  0.80233871023E+02 0.  0.
         25    2    1    2    0    0  0.16749184762E+03  0.10962990990E+03  0.79380147986E+02  0.24903678000E+03  0.12508346707E+03 0.  0.
        -24    2    1    2    0    0 -0.97524551400E+02 -0.72482985390E+02  0.37233146565E+03  0.39982291801E+03  0.80391692063E+02 0.  0.
        -13    1    3    3    0    0 -0.77705504495E+02 -0.40974606604E+02 -0.38416517707E+03  0.39408114277E+03  0.00000000000E+00 0.  1.
         14    1    3    3    0    0  0.77382082779E+01  0.38276820914E+01 -0.29555016111E+01  0.91250209490E+01  0.00000000000E+00 0. -1.
         11    1    5    5    0    0 -0.11021195567E+03 -0.66883974538E+02  0.35462901243E+03  0.37733523249E+03  0.00000000000E+00 0. -1.
        -12    1    5    5    0    0  0.12687404275E+02 -0.55990108517E+01  0.17702453227E+02  0.22487685519E+02  0.00000000000E+00 0.  1.
          5    1    4    4  501    0  0.28697522304E+02  0.50984418928E+02  0.78885462794E+02  0.98302326524E+02  0.41800000000E+01 0.  1.
         -5    1    4    4    0  501  0.13879432531E+03  0.58645490974E+02  0.49468519191E+00  0.15073445347E+03  0.41800000000E+01 0.  1.
</event>
<event>
11    1  0.6455215E-009  0.1343548E+03  0.7561462E-02  0.1114031E+00
         22   -1    0    0    0    0  0.00000000000E+00  0.00000000000E+00  0.37122296693E+03  0.37122296693E+03  0.00000000000E+00 0.  1.
         22   -1    0    0    0    0 -0.00000000000E+00 -0.00000000000E+00 -0.98541193567E+03  0.98541193567E+03  0.00000000000E+00 0. -1.
         24    2    1    2    0    0  0.13465964221E+02  0.21770350572E+02 -0.47019717034E+03  0.47748475934E+03  0.79063493793E+02 0.  0.
         25    2    1    2    0    0 -0.21507837403E+02  0.26832943649E+02 -0.49708977630E+03  0.51373909779E+03  0.12508805284E+03 0.  0.
        -24    2    1    2    0    0  0.80418731818E+01 -0.48603294220E+02  0.35309797791E+03  0.36541104547E+03  0.80125515356E+02 0.  0.
        -11    1    3    3    0    0 -0.30064151669E+02 -0.70561050139E+01 -0.17894912550E+03  0.18159413909E+03  0.00000000000E+00 0.  1.
         12    1    3    3    0    0  0.43530115890E+02  0.28826455586E+02 -0.29124804484E+03  0.29589062025E+03  0.00000000000E+00 0. -1.
         13    1    5    5    0    0  0.20880165928E+02  0.15723207420E+02  0.67667035956E+02  0.72539839646E+02  0.00000000000E+00 0. -1.
        -14    1    5    5    0    0 -0.12838292746E+02 -0.64326501640E+02  0.28543094195E+03  0.29287120582E+03  0.00000000000E+00 0.  1.
          5    1    4    4  501    0 -0.23993873620E+02  0.73556355647E+02 -0.37505435867E+03  0.38297452628E+03  0.41800000000E+01 0.  1.
         -5    1    4    4    0  501  0.24860362173E+01 -0.46723411999E+02 -0.12203541763E+03  0.13076457151E+03  0.41800000000E+01 0.  1.
</event>
<event>
11    1  0.6455215E-009  0.3217144E+03  0.7561462E-02  0.9913981E-01
         22   -1    0    0    0    0  0.00000000000E+00  0.00000000000E+00  0.15234630692E+04  0.15234630692E+04  0.00000000000E+00 0. -1.
         22   -1    0    0    0    0 -0.00000000000E+00 -0.00000000000E+00 -0.14084281974E+04  0.14084281974E+04  0.00000000000E+00 0. -1.
        -24    2    1    2    0    0 -0.15755836532E+03  0.25427141763E+03 -0.12483565916E+04  0.12862030091E+04  0.80283301815E+02 0.  0.
         25    2    1    2    0    0  0.19775024666E+03 -0.19678614248E+03  0.29036728863E+02  0.30711708340E+03  0.12509126815E+03 0.  0.
         24    2    1    2    0    0 -0.40191881341E+02 -0.57485275145E+02  0.13343547345E+04  0.13385711742E+04  0.79688685136E+02 0.  0.
        -13    1    5    5    0    0  0.10548173441E+01 -0.50500433540E+02  0.38556029927E+03  0.38885492256E+03  0.00000000000E+00 0.  1.
         14    1    5    5    0    0 -0.41246698685E+02 -0.69848416048E+01  0.94879443527E+03  0.94971625161E+03  0.00000000000E+00 0. -1.
         11    1    3    3    0    0 -0.15810817489E+03  0.25634288310E+03 -0.12482351218E+04  0.12840563804E+04  0.00000000000E+00 0. -1.
        -12    1    3    3    0    0  0.54980957156E+00 -0.20714654700E+01 -0.12146973214E+00  0.21466286718E+01  0.00000000000E+00 0.  1.
          5    1    4    4  501    0  0.13434435719E+02  0.10498721840E+02 -0.18677654804E+02  0.25632682504E+02  0.41800000000E+01 0. -1.
         -5    1    4    4    0  501  0.18431581094E+03 -0.20728486432E+03  0.47714383667E+02  0.28148440090E+03  0.41800000000E+01 0. -1.
</event>
<event>
11    1  0.6455215E-009  0.1768337E+03  0.7561462E-02  0.1072233E+00
         22   -1    0    0    0    0  0.00000000000E+00  0.00000000000E+00  0.36816774073E+03  0.36816774073E+03  0.00000000000E+00 0. -1.
         22   -1    0    0    0    0 -0.00000000000E+00 -0.00000000000E+00 -0.76369801686E+03  0.76369801686E+03  0.00000000000E+00 0. -1.
         24    2    1    2    0    0 -0.65677517504E+02  0.21949635567E+02 -0.60430172961E+03  0.61336992278E+03  0.79036440632E+02 0.  0.
         25    2    1    2    0    0  0.95504170783E+02  0.99822095751E+02 -0.74691621055E+02  0.20078779913E+03  0.12510557377E+03 0.  0.
        -24    2    1    2    0    0 -0.29826653279E+02 -0.12177173132E+03  0.28346307454E+03  0.31770803569E+03  0.69778918880E+02 0.  0.
        -11    1    3    3    0    0 -0.11235772037E+02 -0.28529685938E+02 -0.16092237487E+03  0.16381757014E+03  0.00000000000E+00 0.  1.
         12    1    3    3    0    0 -0.54441745467E+02  0.50479321505E+02 -0.44337935475E+03  0.44955235264E+03  0.00000000000E+00 0. -1.
         13    1    5    5    0    0  0.18389496968E+02 -0.67383578283E+02  0.15720309682E+03  0.17202189939E+03  0.00000000000E+00 0. -1.
        -14    1    5    5    0    0 -0.48216150247E+02 -0.54388153036E+02  0.12625997772E+03  0.14568613630E+03  0.00000000000E+00 0.  1.
          5    1    4    4  501    0  0.12272260965E+03  0.86956599015E+02 -0.42146103752E+02  0.15625637745E+03  0.41800000000E+01 0. -1.
         -5    1    4    4    0  501 -0.27218438868E+02  0.12865496737E+02 -0.32545517304E+02  0.44531421684E+02  0.41800000000E+01 0. -1.
</event>
<event>
11    1  0.6455215E-009  0.1485736E+03  0.7561462E-02  0.1098345E+00
         22   -1    0    0    0    0  0.00000000000E+00  0.00000000000E+00  0.28978342195E+04  0.28978342195E+04  0.00000000000E+00 0. -1.
         22   -1    0    0    0    0 -0.00000000000E+00 -0.00000000000E+00 -0.43003336094E+03  0.43003336094E+03  0.00000000000E+00 0. -1.
        -24    2    1    2    0    0  0.16413743361E+02 -0.16421472604E+02 -0.41920154584E+03  0.42735976263E+03  0.79795707576E+02 0.  0.
         25    2    1    2    0    0  0.30871093140E+02 -0.55612333340E+02  0.98605594965E+03  0.99599167568E+03  0.12508927287E+03 0.  0.
         24    2    1    2    0    0 -0.47284836502E+02  0.72033805944E+02  0.19009464547E+04  0.19045161421E+04  0.78483035210E+02 0.  0.
        -13    1    5    5    0    0 -0.45314897354E+02  0.83174482601E+02  0.12930650767E+04  0.12965294933E+04  0.00000000000E+00 0.  1.
         14    1    5    5    0    0 -0.19699391475E+01 -0.11140676658E+02  0.60788137807E+03  0.60798664882E+03  0.00000000000E+00 0. -1.
         11    1    3    3    0    0 -0.28801691504E+01  0.31299042418E+02 -0.17356455643E+03  0.17638758652E+03  0.00000000000E+00 0. -1.
        -12    1    3    3    0    0  0.19293912512E+02 -0.47720515022E+02 -0.24563698941E+03  0.25097217611E+03  0.00000000000E+00 0.  1.
          5    1    4    4  501    0 -0.21339950943E+02 -0.56040782967E+02  0.21753104369E+03  0.22568382802E+03  0.41800000000E+01 0. -1.
         -5    1    4    4    0  501  0.52211044083E+02  0.42844962751E+00  0.76852490596E+03  0.77030784767E+03  0.41800000000E+01 0. -1.
</event>
<event>
11    1  0.6455215E-009  0.1481452E+03  0.7561462E-02  0.1098789E+00
         22   -1    0    0    0    0  0.00000000000E+00  0.00000000000E+00  0.36788829652E+03  0.36788829652E+03  0.00000000000E+00 0.  1.
         22   -1    0    0    0    0 -0.00000000000E+00 -0.00000000000E+00 -0.99352301144E+03  0.99352301144E+03  0.00000000000E+00 0.  1.
         24    2    1    2    0    0  0.69418153461E+02 -0.27454507338E+02 -0.73115921522E+03  0.73928563756E+03  0.79855030502E+02 0.  0.
         25    2    1    2    0    0 -0.84806251248E+02  0.95949527412E+02 -0.21808532492E+03  0.28214830533E+03  0.12509214681E+03 0.  0.
        -24    2    1    2    0    0  0.15388097787E+02 -0.68495020073E+02  0.32360982522E+03  0.33997736507E+03  0.77025505219E+02 0.  0.
        -13    1    3    3    0    0  0.70648054719E+02  0.10130503366E+02 -0.50576884470E+03  0.51077969713E+03  0.00000000000E+00 0.  1.
         14    1    3    3    0    0 -0.12299012585E+01 -0.37585010704E+02 -0.22539037053E+03  0.22850594043E+03  0.00000000000E+00 0. -1.
         11    1    5    5    0    0 -0.20070820796E+02 -0.63657993083E+02  0.18004266173E+03  0.19201702522E+03  0.00000000000E+00 0. -1.
        -12    1    5    5    0    0  0.35458918583E+02 -0.48370269901E+01  0.14356716349E+03  0.14796033986E+03  0.00000000000E+00 0.  1.
          5    1    4    4  501    0 -0.40295089836E+02  0.69843855123E+02 -0.28505116205E+02  0.85626353497E+02  0.41800000000E+01 0.  1.
         -5    1    4    4    0  501 -0.44511161412E+02  0.26105672289E+02 -0.18958020872E+03  0.19652195183E+03  0.41800000000E+01 0.  1.
</event>
<event>
11    1  0.6455215E-009  0.1459707E+03  0.7561462E-02  0.1101068E+00
         22   -1    0    0    0    0  0.00000000000E+00  0.00000000000E+00  0.12610221827E+04  0.12610221827E+04  0.00000000000E+00 0. -1.
         22   -1    0    0    0    0 -0.00000000000E+00 -0.00000000000E+00 -0.18701420842E+03  0.18701420842E+03  0.00000000000E+00 0.  1.
        -24    2    1    2    0    0  0.18027580137E+02  0.14683753146E+02 -0.12031406299E+03  0.14650207810E+03  0.80291835704E+02 0.  0.
         25    2    1    2    0    0  0.54897668573E+02  0.77749132939E+01  0.40966103100E+02  0.14282904754E+03  0.12509081472E+03 0.  0.
         24    2    1    2    0    0 -0.72925248709E+02 -0.22458666440E+02  0.11533559341E+04  0.11587052655E+04  0.80904250801E+02 0.  0.
        -11    1    5    5    0    0 -0.43380974366E+02  0.27929264862E+02  0.62666631844E+03  0.62878663109E+03  0.00000000000E+00 0.  1.
         12    1    5    5    0    0 -0.29544274343E+02 -0.50387931302E+02  0.52668961571E+03  0.52991863438E+03  0.00000000000E+00 0. -1.
         13    1    3    3    0    0 -0.48059311621E+01 -0.28036237314E+02 -0.19009636967E+02  0.34212481270E+02  0.00000000000E+00 0. -1.
        -14    1    3    3    0    0  0.22833511299E+02  0.42719990459E+02 -0.10130442602E+03  0.11228959683E+03  0.00000000000E+00 0.  1.
          5    1    4    4  501    0  0.12974242080E+02  0.46908784720E+02  0.64318583037E+02  0.80765819288E+02  0.41800000000E+01 0. -1.
         -5    1    4    4    0  501  0.41923426492E+02 -0.39133871426E+02 -0.23352479937E+02  0.62063228250E+02  0.41800000000E+01 0. -1.
</event>
<event>
11    1  0.6455215E-009  0.1354464E+03  0.7561462E-02  0.1112752E+00
         22   -1    0    0    0    0  0.00000000000E+00  0.00000000000E+00  0.61990526164E+03  0.61990526164E+03  0.00000000000E+00 0.  1.
         22   -1    0    0    0    0 -0.00000000000E+00 -0.00000000000E+00 -0.21842538986E+04  0.21842538986E+04  0.00000000000E+00 0. -1.
         24    2    1    2    0    0  0.55029594698E+01 -0.25565832880E+02 -0.21197222872E+04  0.21214439444E+04  0.81350721270E+02 0.  0.
         25    2    1    2    0    0  0.45484432375E+02  0.35576612305E+02  0.20246057030E+02  0.13924987280E+03  0.12508435281E+03 0.  0.
        -24    2    1    2    0    0 -0.50987391845E+02 -0.10010779425E+02  0.53512759324E+03  0.54346534303E+03  0.79329113168E+02 0.  0.
        -13    1    3    3    0    0  0.14389840857E+02 -0.19665823513E+02 -0.17458785980E+03  0.17628026811E+03  0.00000000000E+00 0.  1.
         14    1    3    3    0    0 -0.88868813877E+01 -0.59000093666E+01 -0.19451344274E+04  0.19451636763E+04  0.00000000000E+00 0. -1.
         13    1    5    5    0    0  0.20437815083E+02  0.65933026175E+01  0.12671243189E+03  0.12851932275E+03  0.00000000000E+00 0. -1.
        -14    1    5    5    0    0 -0.71425206928E+02 -0.16604082042E+02  0.40841516136E+03  0.41494602029E+03  0.00000000000E+00 0.  1.
          5    1    4    4  501    0  0.49519211111E+02  0.43469559301E+02 -0.40673407890E+02  0.77547104164E+02  0.41800000000E+01 0.  1.
         -5    1    4    4    0  501 -0.40347787355E+01 -0.78929469959E+01  0.60919464920E+02  0.61702768640E+02  0.41800000000E+01 0.  1.
</event>
<event>
11    1  0.6455215E-009  0.1461499E+03  0.7561462E-02  0.1100879E+00
         22   -1    0    0    0    0  0.00000000000E+00  0.00000000000E+00  0.48221863837E+03  0.48221863837E+03  0.00000000000E+00 0.  1.
         22   -1    0    0    0    0 -0.00000000000E+00 -0.00000000000E+00 -0.15731684942E+03  0.15731684942E+03  0.00000000000E+00 0.  1.
         24    2    1    2    0    0 -0.71143736700E+02  0.23287753647E+02 -0.74200295926E+02  0.13274897822E+03  0.80702271107E+02 0.  0.
         25    2    1    2    0    0  0.67336576080E+02 -0.44189913157E+02  0.63325710073E+02  0.16169342519E+03  0.12509058833E+03 0.  0.
        -24    2    1    2    0    0  0.38071606203E+01  0.20902159510E+02  0.33577637481E+03  0.34509308438E+03  0.76759808919E+02 0.  0.
        -13    1    3    3    0    0 -0.71118086104E+02  0.21901768734E+01 -0.83490819695E+02  0.10969638107E+03  0.00000000000E+00 0.  1.
         14    1    3    3    0    0 -0.25650596188E-01  0.21097576774E+02  0.92905237687E+01  0.23052597155E+02  0.00000000000E+00 0. -1.
         13    1    5    5    0    0  0.82877502628E+01 -0.25073563488E+02  0.61145448888E+02  0.66604326512E+02  0.00000000000E+00 0. -1.
        -14    1    5    5    0    0 -0.44805896425E+01  0.45975722997E+02  0.27463092592E+03  0.27848875787E+03  0.00000000000E+00 0.  1.
          5    1    4    4  501    0  0.96869696591E+02 -0.58862679387E+02  0.59908315022E+02  0.12827716769E+03  0.41800000000E+01 0. -1.
         -5    1    4    4    0  501 -0.29533120511E+02  0.14672766229E+02  0.34173950508E+01  0.33416257494E+02  0.41800000000E+01 0. -1.
</event>
<event>
11    1  0.6455215E-009  0.1476012E+03  0.7561462E-02  0.1099355E+00
         22   -1    0    0    0    0  0.00000000000E+00  0.00000000000E+00  0.22893476702E+04  0.22893476702E+04  0.00000000000E+00 0. -1.
         22   -1    0    0    0    0 -0.00000000000E+00 -0.00000000000E+00 -0.81793715783E+02  0.81793715783E+02  0.00000000000E+00 0.  1.
         24    2    1    2    0    0 -0.53059764450E+02  0.68096805637E+02 -0.22482401947E+02  0.11798039627E+03  0.77210115699E+02 0.  0.
         25    2    1    2    0    0  0.19919751512E+02  0.31969704714E+01  0.39892017988E+03  0.41856159733E+03  0.12509789654E+03 0.  0.
        -24    2    1    2    0    0  0.33140012938E+02 -0.71293776108E+02  0.18311161765E+04  0.18345993924E+04  0.81162896598E+02 0.  0.
        -13    1    3    3    0    0 -0.35035451205E+02  0.70776829517E+02  0.11122249769E+02  0.79753036792E+02  0.00000000000E+00 0.  1.
         14    1    3    3    0    0 -0.18024313246E+02 -0.26800238808E+01 -0.33604651717E+02  0.38227359482E+02  0.00000000000E+00 0. -1.
         11    1    5    5    0    0 -0.23830917701E+02 -0.18620094476E+02  0.79839852795E+03  0.79897110711E+03  0.00000000000E+00 0. -1.
        -12    1    5    5    0    0  0.56970930640E+02 -0.52673681632E+02  0.10327176485E+04  0.10356282852E+04  0.00000000000E+00 0.  1.
          5    1    4    4  501    0  0.72770282345E+02  0.11648238866E+01  0.20790320982E+03  0.22031361252E+03  0.41800000000E+01 0.  1.
         -5    1    4    4    0  501 -0.52850530833E+02  0.20321465847E+01  0.19101697006E+03  0.19824798481E+03  0.41800000000E+01 0.  1.
</event>
<event>
11    1  0.6455215E-009  0.1618052E+03  0.7561462E-02  0.1085392E+00
         22   -1    0    0    0    0  0.00000000000E+00  0.00000000000E+00  0.55467766784E+03  0.55467766784E+03  0.00000000000E+00 0. -1.
         22   -1    0    0    0    0 -0.00000000000E+00 -0.00000000000E+00 -0.32478021528E+04  0.32478021528E+04  0.00000000000E+00 0.  1.
         24    2    1    2    0    0  0.53469339528E+01  0.10285414281E+03 -0.24903316440E+04  0.24937514404E+04  0.80230822460E+02 0.  0.
         25    2    1    2    0    0 -0.92019895270E+02 -0.90836010891E+02 -0.73853477566E+03  0.76012759810E+03  0.12506601667E+03 0.  0.
        -24    2    1    2    0    0  0.86672961318E+02 -0.12018131915E+02  0.53574193467E+03  0.54860078220E+03  0.79289090954E+02 0.  0.
        -13    1    3    3    0    0  0.21297639566E+02  0.10977721497E+03 -0.22597301942E+04  0.22624953430E+04  0.00000000000E+00 0.  1.
         14    1    3    3    0    0 -0.15950705613E+02 -0.69230721665E+01 -0.23060144979E+03  0.23125609740E+03  0.00000000000E+00 0. -1.
         13    1    5    5    0    0 -0.70794852233E+01 -0.70236623156E+01  0.19227289919E+03  0.19253134474E+03  0.00000000000E+00 0. -1.
        -14    1    5    5    0    0  0.93752446541E+02 -0.49944695997E+01  0.34346903548E+03  0.35606943746E+03  0.00000000000E+00 0.  1.
          5    1    4    4  501    0 -0.86915765625E+02 -0.12844259202E+02 -0.53271137000E+03  0.53992425528E+03  0.41800000000E+01 0.  1.
         -5    1    4    4    0  501 -0.51041296449E+01 -0.77991751689E+02 -0.20582340566E+03  0.22020334282E+03  0.41800000000E+01 0.  1.
</event>
<event>
11    1  0.6455215E-009  0.5567810E+03  0.7561462E-02  0.9274889E-01
         22   -1    0    0    0    0  0.00000000000E+00  0.00000000000E+00  0.10426109736E+04  0.10426109736E+04  0.00000000000E+00 0.  1.
         22   -1    0    0    0    0 -0.00000000000E+00 -0.00000000000E+00 -0.18046095095E+04  0.18046095095E+04  0.00000000000E+00 0. -1.
         24    2    1    2    0    0 -0.16340446791E+02  0.15790251180E+03 -0.14891448473E+04  0.14998203506E+04  0.81905399333E+02 0.  0.
         25    2    1    2    0    0 -0.90995881087E+02  0.43959718156E+03  0.11187565504E+03  0.47925958113E+03  0.12509057320E+03 0.  0.
        -24    2    1    2    0    0  0.10733632788E+03 -0.59749969336E+03  0.61527065637E+03  0.86814055131E+03  0.81136091787E+02 0.  0.
        -11    1    3    3    0    0 -0.42222461487E+02  0.13797497470E+03 -0.11255175816E+04  0.11347288912E+04  0.00000000000E+00 0.  1.
         12    1    3    3    0    0  0.25882014696E+02  0.19927537094E+02 -0.36362726571E+03  0.36509145948E+03  0.00000000000E+00 0. -1.
         13    1    5    5    0    0  0.26148426888E+02 -0.31091540613E+03  0.27487089689E+03  0.41581984074E+03  0.00000000000E+00 0. -1.
        -14    1    5    5    0    0  0.81187900989E+02 -0.28658428723E+03  0.34039975948E+03  0.45232071057E+03  0.00000000000E+00 0.  1.
          5    1    4    4  501    0  0.47656503305E+01  0.27590397751E+03  0.57166362420E+02  0.28183538035E+03  0.41800000000E+01 0. -1.
         -5    1    4    4    0  501 -0.95761531417E+02  0.16369320406E+03  0.54709292617E+02  0.19742420078E+03  0.41800000000E+01 0. -1.
</event>
<event>
11    1  0.6455215E-009  0.1402658E+03  0.7561462E-02  0.1107262E+00
         22   -1    0    0    0    0  0.00000000000E+00  0.00000000000E+00  0.10161369948E+04  0.10161369948E+04  0.00000000000E+00 0. -1.
         22   -1    0    0    0    0 -0.00000000000E+00 -0.00000000000E+00 -0.12266375553E+04  0.12266375553E+04  0.00000000000E+00 0. -1.
        -24    2    1    2    0    0 -0.18637196133E+02 -0.32000144879E+02 -0.70879101876E+03  0.71421350526E+03  0.79654682639E+02 0.  0.
         25    2    1    2    0    0  0.40209849319E+01  0.93614990500E+02 -0.50065536233E+03  0.52448377735E+03  0.12508999204E+03 0.  0.
         24    2    1    2    0    0  0.14616211201E+02 -0.61614845621E+02  0.99894582054E+03  0.10040772675E+04  0.79173126275E+02 0.  0.
        -11    1    5    5    0    0  0.37456234849E+01 -0.47900534739E+02  0.23156937530E+03  0.23650130338E+03  0.00000000000E+00 0.  1.
         12    1    5    5    0    0  0.10870587716E+02 -0.13714310882E+02  0.76737644524E+03  0.76757596412E+03  0.00000000000E+00 0. -1.
         11    1    3    3    0    0  0.19677279521E+02 -0.90119254249E+01 -0.51016360715E+03  0.51062247913E+03  0.00000000000E+00 0. -1.
        -12    1    3    3    0    0 -0.38314475655E+02 -0.22988219454E+02 -0.19862741161E+03  0.20359102613E+03  0.00000000000E+00 0.  1.
          5    1    4    4  501    0  0.26201144956E+02  0.11746172301E+02 -0.17421609294E+02  0.33844607120E+02  0.41800000000E+01 0. -1.
         -5    1    4    4    0  501 -0.22180160024E+02  0.81868818199E+02 -0.48323375304E+03  0.49063917023E+03  0.41800000000E+01 0. -1.
</event>
<event>
11    1  0.6455215E-009  0.1451295E+03  0.7561462E-02  0.1101962E+00
         22   -1    0    0    0    0  0.00000000000E+00  0.00000000000E+00  0.18281701308E+03  0.18281701308E+03  0.00000000000E+00 0.  1.
         22   -1    0    0    0    0 -0.00000000000E+00 -0.00000000000E+00 -0.18339025572E+04  0.18339025572E+04  0.00000000000E+00 0.  1.
        -24    2    1    2    0    0  0.85904511047E+02 -0.19662194478E+02 -0.12502242047E+04  0.12558882508E+04  0.80178236045E+02 0.  0.
         25    2    1    2    0    0 -0.37905191379E+02 -0.25342740001E+02 -0.55660628107E+03  0.57230852969E+03  0.12508973990E+03 0.  0.
         24    2    1    2    0    0 -0.47999319667E+02  0.45004934479E+02  0.15574494169E+03  0.18852278977E+03  0.83396502240E+02 0.  0.
        -11    1    5    5    0    0 -0.44018878588E+02  0.60089389490E+02  0.15605309567E+03  0.17291895521E+03  0.00000000000E+00 0.  1.
         12    1    5    5    0    0 -0.39804410788E+01 -0.15084455012E+02 -0.30815398482E+00  0.15603834563E+02  0.00000000000E+00 0. -1.
         13    1    3    3    0    0  0.82317213834E+01  0.26724814184E+02 -0.35728991337E+03  0.35838255974E+03  0.00000000000E+00 0. -1.
        -14    1    3    3    0    0  0.77672789663E+02 -0.46387008662E+02 -0.89293429131E+03  0.89750569103E+03  0.00000000000E+00 0.  1.
          5    1    4    4  501    0 -0.68242245753E+01 -0.56731486487E+02 -0.11502769291E+03  0.12850631944E+03  0.41800000000E+01 0.  1.
         -5    1    4    4    0  501 -0.31080966804E+02  0.31388746486E+02 -0.44157858816E+03  0.44380221025E+03  0.41800000000E+01 0.  1.
</event>
<event>
11    1  0.6455215E-009  0.1300260E+03  0.7561462E-02  0.1119237E+00
         22   -1    0    0    0    0  0.00000000000E+00  0.00000000000E+00  0.24514914044E+03  0.24514914044E+03  0.00000000000E+00 0.  1.
         22   -1    0    0    0    0 -0.00000000000E+00 -0.00000000000E+00 -0.28304167188E+03  0.28304167188E+03  0.00000000000E+00 0. -1.
         24    2    1    2    0    0  0.33705768150E+02  0.86676801071E+01 -0.21880533015E+03  0.23606053578E+03  0.81471446321E+02 0.  0.
         25    2    1    2    0    0 -0.40233249650E+02 -0.16798244667E+02  0.57989585847E+02  0.14461319381E+03  0.12509711570E+03 0.  0.
        -24    2    1    2    0    0  0.65274815006E+01  0.81305645595E+01  0.12292321286E+03  0.14751708272E+03  0.80885470517E+02 0.  0.
        -13    1    3    3    0    0  0.20140318713E+01  0.31440823808E+02 -0.30841980217E+02  0.44088654661E+02  0.00000000000E+00 0.  1.
         14    1    3    3    0    0  0.31691736279E+02 -0.22773143701E+02 -0.18796334993E+03  0.19197188112E+03  0.00000000000E+00 0. -1.
         13    1    5    5    0    0  0.31618800867E+01  0.36671039016E+02  0.22675003489E+02  0.43230988555E+02  0.00000000000E+00 0. -1.
        -14    1    5    5    0    0  0.33656014140E+01 -0.28540474456E+02  0.10024820937E+03  0.10428609417E+03  0.00000000000E+00 0.  1.
          5    1    4    4  501    0  0.42224875174E+02 -0.21859139398E+02  0.93004746352E+01  0.48628523390E+02  0.41800000000E+01 0. -1.
         -5    1    4    4    0  501 -0.82458124825E+02  0.50608947309E+01  0.48689111212E+02  0.95984670420E+02  0.41800000000E+01 0. -1.
</event>
<event>
11    1  0.6455215E-009  0.1313551E+03  0.7561462E-02  0.1117615E+00
         22   -1    0    0    0    0  0.00000000000E+00  0.00000000000E+00  0.47355756800E+03  0.47355756800E+03  0.00000000000E+00 0. -1.
         22   -1    0    0    0    0 -0.00000000000E+00 -0.00000000000E+00 -0.18867343240E+04  0.18867343240E+04  0.00000000000E+00 0. -1.
        -24    2    1    2    0    0  0.68719355338E+01  0.21406843538E+02 -0.18401270193E+04  0.18420199374E+04  0.80402278269E+02 0.  0.
         25    2    1    2    0    0 -0.77782830465E+01 -0.59017933968E+02  0.78118628716E+02  0.15903937287E+03  0.12508950297E+03 0.  0.
         24    2    1    2    0    0  0.90634751275E+00  0.37611090430E+02  0.34883163462E+03  0.35923258164E+03  0.77130556955E+02 0.  0.
        -11    1    5    5    0    0 -0.22466063731E+02 -0.15176720299E+02  0.87679163627E+02  0.91775228646E+02  0.00000000000E+00 0.  1.
         12    1    5    5    0    0  0.23372411244E+02  0.52787810729E+02  0.26115247099E+03  0.26745735300E+03  0.00000000000E+00 0. -1.
         11    1    3    3    0    0 -0.21917142617E+02  0.21548251595E+02 -0.28974568661E+03  0.29137132872E+03  0.00000000000E+00 0. -1.
        -12    1    3    3    0    0  0.28789078150E+02 -0.14140805760E+00 -0.15503813327E+04  0.15506486087E+04  0.00000000000E+00 0.  1.
          5    1    4    4  501    0  0.43284022258E+02 -0.64476537390E+02  0.74001801655E+02  0.10735208198E+03  0.41800000000E+01 0.  1.
         -5    1    4    4    0  501 -0.51062305305E+02  0.54586034221E+01  0.41168270610E+01  0.51687290889E+02  0.41800000000E+01 0.  1.
</event>
<event>
11    1  0.6455215E-009  0.1466841E+03  0.7561462E-02  0.1100316E+00
         22   -1    0    0    0    0  0.00000000000E+00  0.00000000000E+00  0.65292617580E+03  0.65292617580E+03  0.00000000000E+00 0. -1.
         22   -1    0    0    0    0 -0.00000000000E+00 -0.00000000000E+00 -0.64194246452E+03  0.64194246452E+03  0.00000000000E+00 0. -1.
        -24    2    1    2    0    0  0.22569723804E+01  0.74690034847E+02 -0.57149587268E+03  0.58166517612E+03  0.78378245649E+02 0.  0.
         25    2    1    2    0    0  0.69743693763E+01 -0.12465416069E+03  0.65950913180E+02  0.18862781720E+03  0.12507449327E+03 0.  0.
         24    2    1    2    0    0 -0.92313417566E+01  0.49964125848E+02  0.51652867078E+03  0.52457564700E+03  0.76132188681E+02 0.  0.
        -11    1    5    5    0    0 -0.17889370023E+02  0.15825883116E+01  0.26051429398E+02  0.31641920284E+02  0.00000000000E+00 0.  1.
         12    1    5    5    0    0  0.86580282665E+01  0.48381537536E+02  0.49047724138E+03  0.49293372672E+03  0.00000000000E+00 0. -1.
         13    1    3    3    0    0  0.29397326683E+02  0.73815406292E+02 -0.46632129647E+03  0.47304171968E+03  0.00000000000E+00 0. -1.
        -14    1    3    3    0    0 -0.27140354302E+02  0.87462855489E+00 -0.10517457621E+03  0.10862345643E+03  0.00000000000E+00 0.  1.
          5    1    4    4  501    0  0.39439414157E+02 -0.80950873957E+02 -0.14595549161E+02  0.91318201027E+02  0.41800000000E+01 0. -1.
         -5    1    4    4    0  501 -0.32465044781E+02 -0.43703286737E+02  0.80546462341E+02  0.97309616174E+02  0.41800000000E+01 0. -1.
</event>
<event>
11    1  0.6455215E-009  0.1339662E+03  0.7561462E-02  0.1114490E+00
         22   -1    0    0    0    0  0.00000000000E+00  0.00000000000E+00  0.12467925858E+03  0.12467925858E+03  0.00000000000E+00 0.  1.
         22   -1    0    0    0    0 -0.00000000000E+00 -0.00000000000E+00 -0.14672627761E+04  0.14672627761E+04  0.00000000000E+00 0. -1.
         24    2    1    2    0    0 -0.22671739439E+02  0.49801090937E+02 -0.10896958437E+04  0.10940311220E+04  0.80454383191E+02 0.  0.
         25    2    1    2    0    0 -0.19344445406E+02 -0.20449179767E+02 -0.34310809855E+03  0.36628405909E+03  0.12509383728E+03 0.  0.
        -24    2    1    2    0    0  0.42016184845E+02 -0.29351911170E+02  0.90220424777E+02  0.13162685351E+03  0.80987709197E+02 0.  0.
        -11    1    3    3    0    0 -0.52049016027E+02  0.38431116134E+02 -0.80569553158E+03  0.80828914403E+03  0.00000000000E+00 0.  1.
         12    1    3    3    0    0  0.29377276587E+02  0.11369974803E+02 -0.28400031212E+03  0.28574197800E+03  0.00000000000E+00 0. -1.
         11    1    5    5    0    0 -0.58445304114E+01 -0.19280627784E+02 -0.81780620337E+01  0.21743547137E+02  0.00000000000E+00 0. -1.
        -12    1    5    5    0    0  0.47860715256E+02 -0.10071283386E+02  0.98398486810E+02  0.10988330638E+03  0.00000000000E+00 0.  1.
          5    1    4    4  501    0  0.44547371844E+01 -0.62646550286E+02 -0.98530560841E+02  0.11691953971E+03  0.41800000000E+01 0.  1.
         -5    1    4    4    0  501 -0.23799182590E+02  0.42197370519E+02 -0.24457753771E+03  0.24936451938E+03  0.41800000000E+01 0.  1.
</event>
<event>
11    1  0.6455215E-009  0.1292886E+03  0.7561462E-02  0.1120146E+00
         22   -1    0    0    0    0  0.00000000000E+00  0.00000000000E+00  0.48291103908E+03  0.48291103908E+03  0.00000000000E+00 0. -1.
         22   -1    0    0    0    0 -0.00000000000E+00 -0.00000000000E+00 -0.25415205712E+03  0.25415205712E+03  0.00000000000E+00 0. -1.
         24    2    1    2    0    0  0.51746444823E+01 -0.29162929275E+02 -0.12165632308E+03  0.15395610539E+03  0.89582186011E+02 0.  0.
         25    2    1    2    0    0 -0.10073309113E+02  0.38916034660E+02 -0.74044847948E+02  0.15080754587E+03  0.12507736435E+03 0.  0.
        -24    2    1    2    0    0  0.48986646307E+01 -0.97531053847E+01  0.42446015298E+03  0.43229944495E+03  0.81223572030E+02 0.  0.
        -11    1    3    3    0    0  0.34104592143E+01  0.21939992085E+02 -0.92430301637E+02  0.95059745136E+02  0.00000000000E+00 0.  1.
         12    1    3    3    0    0  0.17641852680E+01 -0.51102921360E+02 -0.29226021446E+02  0.58896360251E+02  0.00000000000E+00 0. -1.
         13    1    5    5    0    0 -0.27409920973E+02  0.68765786312E+01  0.32811427607E+03  0.32932896815E+03  0.00000000000E+00 0. -1.
        -14    1    5    5    0    0  0.32308585604E+02 -0.16629684016E+02  0.96345876908E+02  0.10297047680E+03  0.00000000000E+00 0.  1.
          5    1    4    4  501    0 -0.92511716445E+01  0.36112753053E+02  0.29137483703E+02  0.47499268062E+02  0.41800000000E+01 0.  1.
         -5    1    4    4    0  501 -0.82213746853E+00  0.28032816064E+01 -0.10318233165E+03  0.10330827780E+03  0.41800000000E+01 0.  1.
</event>
<event>
11    1  0.6455215E-009  0.2275032E+03  0.7561462E-02  0.1036616E+00
         22   -1    0    0    0    0  0.00000000000E+00  0.00000000000E+00  0.27657171882E+03  0.27657171882E+03  0.00000000000E+00 0.  1.
         22   -1    0    0    0    0 -0.00000000000E+00 -0.00000000000E+00 -0.16047025015E+04  0.16047025015E+04  0.00000000000E+00 0.  1.
         24    2    1    2    0    0  0.76469581368E+02 -0.17316332803E+03 -0.14476817884E+04  0.14614380119E+04  0.64694412564E+02 0.  0.
         25    2    1    2    0    0 -0.93659802843E+02  0.17779628799E+03 -0.42868758639E+02  0.24056018942E+03  0.12509114907E+03 0.  0.
        -24    2    1    2    0    0  0.17190221475E+02 -0.46329599600E+01  0.16241976441E+03  0.17927601899E+03  0.73774948865E+02 0.  0.
        -11    1    3    3    0    0  0.85524823373E+02 -0.13159382269E+03 -0.11813632115E+04  0.11917426178E+04  0.00000000000E+00 0.  1.
         12    1    3    3    0    0 -0.90552420054E+01 -0.41569505337E+02 -0.26631857693E+03  0.26969539410E+03  0.00000000000E+00 0. -1.
         11    1    5    5    0    0  0.22420914228E+02  0.18094459939E+02  0.20274116030E+02  0.35229911384E+02  0.00000000000E+00 0. -1.
        -12    1    5    5    0    0 -0.52306927535E+01 -0.22727419899E+02  0.14214564838E+03  0.14404610760E+03  0.00000000000E+00 0.  1.
          5    1    4    4  501    0 -0.76204197413E+02  0.25118879928E+02  0.21506137061E+01  0.80374967319E+02  0.41800000000E+01 0.  1.
         -5    1    4    4    0  501 -0.17455605430E+02  0.15267740806E+03 -0.45019372345E+02  0.16018522210E+03  0.41800000000E+01 0.  1.
</event>
<event>
11    1  0.6455215E-009  0.1456441E+03  0.7561462E-02  0.1101415E+00
         22   -1    0    0    0    0  0.00000000000E+00  0.00000000000E+00  0.92292130986E+02  0.92292130986E+02  0.00000000000E+00 0. -1.
         22   -1    0    0    0    0 -0.00000000000E+00 -0.00000000000E+00 -0.16360650395E+04  0.16360650395E+04  0.00000000000E+00 0.  1.
         24    2    1    2    0    0 -0.15301857384E+02 -0.37271363763E+02 -0.12726101223E+04  0.12757978968E+04  0.80625359033E+02 0.  0.
         25    2    1    2    0    0 -0.59138688667E+02  0.49774155586E+02 -0.30325607042E+03  0.33702699823E+03  0.12509237479E+03 0.  0.
        -24    2    1    2    0    0  0.74440546051E+02 -0.12502791823E+02  0.32093284189E+02  0.11553227554E+03  0.81363462942E+02 0.  0.
        -13    1    3    3    0    0  0.56895401315E+01 -0.45022393863E+02 -0.11651157375E+04  0.11659991718E+04  0.00000000000E+00 0.  1.
         14    1    3    3    0    0 -0.20991397515E+02  0.77510300998E+01 -0.10749438482E+03  0.10979872497E+03  0.00000000000E+00 0. -1.
         11    1    5    5    0    0 -0.23821895196E+00 -0.18536708886E+02  0.36016533317E+02  0.40507493094E+02  0.00000000000E+00 0. -1.
        -12    1    5    5    0    0  0.74678765003E+02  0.60339170636E+01 -0.39232491276E+01  0.75024782447E+02  0.00000000000E+00 0.  1.
          5    1    4    4  501    0 -0.96221545821E+02  0.44860825370E+02 -0.25158644094E+03  0.27310124349E+03  0.41800000000E+01 0.  1.
         -5    1    4    4    0  501  0.37082857154E+02  0.49133302160E+01 -0.51669629479E+02  0.63925754740E+02  0.41800000000E+01 0.  1.
</event>
<event>
11    1  0.6455215E-009  0.1572514E+03  0.7561462E-02  0.1089691E+00
         22   -1    0    0    0    0  0.00000000000E+00  0.00000000000E+00  0.18941954026E+03  0.18941954026E+03  0.00000000000E+00 0. -1.
         22   -1    0    0    0    0 -0.00000000000E+00 -0.00000000000E+00 -0.64606818635E+03  0.64606818635E+03  0.00000000000E+00 0.  1.
         24    2    1    2    0    0  0.45955587237E+02 -0.82658419173E+02 -0.53645929884E+03  0.55100671869E+03  0.82918601468E+02 0.  0.
         25    2    1    2    0    0 -0.85644757263E+02  0.70391755578E+02  0.58919715051E+01  0.16724977084E+03  0.12509095419E+03 0.  0.
        -24    2    1    2    0    0  0.39689170027E+02  0.12266663595E+02  0.73918681251E+02  0.11723123707E+03  0.80953630274E+02 0.  0.
        -13    1    3    3    0    0  0.23463106816E+02 -0.96183515466E+02 -0.44329583343E+03  0.45421688868E+03  0.00000000000E+00 0.  1.
         14    1    3    3    0    0  0.22492480420E+02  0.13525096293E+02 -0.93163465412E+02  0.96789830007E+02  0.00000000000E+00 0. -1.
         13    1    5    5    0    0  0.59680606684E+01  0.15700576270E+02  0.80899130316E+02  0.82624422112E+02  0.00000000000E+00 0. -1.
        -14    1    5    5    0    0  0.33721109358E+02 -0.34339126748E+01 -0.69804490652E+01  0.34606814961E+02  0.00000000000E+00 0.  1.
          5    1    4    4  501    0 -0.62966962953E+01  0.55688822287E-01  0.51279938560E+02  0.51833926961E+02  0.41800000000E+01 0. -1.
         -5    1    4    4    0  501 -0.79348060968E+02  0.70336066755E+02 -0.45387967055E+02  0.11541584388E+03  0.41800000000E+01 0. -1.
</event>
<event>
11    1  0.6455215E-009  0.1790396E+03  0.7561462E-02  0.1070422E+00
         22   -1    0    0    0    0  0.00000000000E+00  0.00000000000E+00  0.60197517738E+03  0.60197517738E+03  0.00000000000E+00 0.  1.
         22   -1    0    0    0    0 -0.00000000000E+00 -0.00000000000E+00 -0.18637941073E+03  0.18637941073E+03  0.00000000000E+00 0. -1.
        -24    2    1    2    0    0 -0.10267206492E+03 -0.49265438835E+01 -0.61942771891E+01  0.13041210493E+03  0.80019524446E+02 0.  0.
         25    2    1    2    0    0  0.12116456979E+03  0.12897059525E+03  0.65727922982E+01  0.21680772915E+03  0.12509245546E+03 0.  0.
         24    2    1    2    0    0 -0.18492504861E+02 -0.12404405136E+03  0.41521725154E+03  0.44113475403E+03  0.80408990904E+02 0.  0.
        -13    1    5    5    0    0 -0.22813890486E+02 -0.12843283420E+03  0.31788512330E+03  0.34360794245E+03  0.00000000000E+00 0.  1.
         14    1    5    5    0    0  0.43213856250E+01  0.43887828344E+01  0.97332128235E+02  0.97526811571E+02  0.00000000000E+00 0. -1.
         11    1    3    3    0    0 -0.76617825296E+02 -0.38045132539E+02 -0.16290090260E+02  0.87080941105E+02  0.00000000000E+00 0. -1.
        -12    1    3    3    0    0 -0.26054239629E+02  0.33118588655E+02  0.10095813070E+02  0.43331163828E+02  0.00000000000E+00 0.  1.
          5    1    4    4  501    0  0.76832816267E+02  0.14797566537E+03  0.15761073539E+02  0.16752899162E+03  0.41800000000E+01 0. -1.
         -5    1    4    4    0  501  0.44331753519E+02 -0.19005070117E+02 -0.91882812404E+01  0.49278737529E+02  0.41800000000E+01 0. -1.
</event>
<event>
11    1  0.6455215E-009  0.1609924E+03  0.7561462E-02  0.1086148E+00
         22   -1    0    0    0    0  0.00000000000E+00  0.00000000000E+00  0.92973925779E+02  0.92973925779E+02  0.00000000000E+00 0. -1.
         22   -1    0    0    0    0 -0.00000000000E+00 -0.00000000000E+00 -0.15655909969E+04  0.15655909969E+04  0.00000000000E+00 0.  1.
         24    2    1    2    0    0 -0.10250704857E+03  0.54767434238E+01 -0.13815813134E+04  0.13877012569E+04  0.80063493931E+02 0.  0.
         25    2    1    2    0    0  0.85195880136E+02  0.13978797358E+02 -0.10665848889E+03  0.18568136368E+03  0.12509112997E+03 0.  0.
        -24    2    1    2    0    0  0.17311168432E+02 -0.19455540782E+02  0.15622731216E+02  0.85182302080E+02  0.79584924687E+02 0.  0.
        -13    1    3    3    0    0 -0.68526400832E+02 -0.28765768690E+02 -0.10502709463E+04  0.10528971449E+04  0.00000000000E+00 0.  1.
         14    1    3    3    0    0 -0.33980647737E+02  0.34242512114E+02 -0.33131036709E+03  0.33480411198E+03  0.00000000000E+00 0. -1.
         13    1    5    5    0    0  0.19120269501E+02 -0.27406575524E+02  0.44230539548E+02  0.55435058549E+02  0.00000000000E+00 0. -1.
        -14    1    5    5    0    0 -0.18091010683E+01  0.79510347419E+01 -0.28607808331E+02  0.29747243531E+02  0.00000000000E+00 0.  1.
          5    1    4    4  501    0  0.65044378813E+02  0.60666804111E+02 -0.10052592377E+03  0.13429134777E+03  0.41800000000E+01 0. -1.
         -5    1    4    4    0  501  0.20151501324E+02 -0.46688006753E+02 -0.61325651181E+01  0.51390015908E+02  0.41800000000E+01 0. -1.
</event>
<event>
11    1  0.6455215E-009  0.6168270E+03  0.7561462E-02  0.9164734E-01
         22   -1    0    0    0    0  0.00000000000E+00  0.00000000000E+00  0.88746499103E+03  0.88746499103E+03  0.00000000000E+00 0.  1.
         22   -1    0    0    0    0 -0.00000000000E+00 -0.00000000000E+00 -0.59156123453E+03  0.59156123453E+03  0.00000000000E+00 0. -1.
        -24    2    1    2    0    0 -0.30966703099E+03 -0.47852836871E+03 -0.37473212445E+02  0.57671101693E+03  0.79424716896E+02 0.  0.
         25    2    1    2    0    0  0.21036782010E+03  0.59572942755E+03  0.34170874249E+03  0.72908197153E+03  0.12508991138E+03 0.  0.
         24    2    1    2    0    0  0.99299210893E+02 -0.11720105884E+03 -0.83317735394E+01  0.17323323710E+03  0.79648694336E+02 0.  0.
        -13    1    5    5    0    0  0.47739665051E+02 -0.47509560396E+02  0.35452960027E+02  0.76112721163E+02  0.00000000000E+00 0.  1.
         14    1    5    5    0    0  0.51559545842E+02 -0.69691498447E+02 -0.43784733566E+02  0.97120515941E+02  0.00000000000E+00 0. -1.
         11    1    3    3    0    0 -0.13013184547E+03 -0.25266203885E+03 -0.46799053151E+02  0.28803221080E+03  0.00000000000E+00 0. -1.
        -12    1    3    3    0    0 -0.17953518552E+03 -0.22586632986E+03  0.93258407066E+01  0.28867880613E+03  0.00000000000E+00 0.  1.
          5    1    4    4  501    0  0.45757585897E+02  0.29355643946E+03  0.19224564767E+03  0.35389970509E+03  0.41800000000E+01 0. -1.
         -5    1    4    4    0  501  0.16461023420E+03  0.30217298809E+03  0.14946309482E+03  0.37518226644E+03  0.41800000000E+01 0. -1.
</event>
<event>
11    1  0.6455215E-009  0.3534040E+03  0.7561462E-02  0.9798222E-01
         22   -1    0    0    0    0  0.00000000000E+00  0.00000000000E+00  0.44514714987E+03  0.44514714987E+03  0.00000000000E+00 0.  1.
         22   -1    0    0    0    0 -0.00000000000E+00 -0.00000000000E+00 -0.14321581828E+04  0.14321581828E+04  0.00000000000E+00 0. -1.
         24    2    1    2    0    0  0.31319605997E+02  0.34994772575E+03 -0.11931774318E+04  0.12463218221E+04  0.78748790974E+02 0.  0.
         25    2    1    2    0    0 -0.11815255255E+02 -0.25203682714E+03 -0.98122673675E+02  0.29822528362E+03  0.12509235870E+03 0.  0.
        -24    2    1    2    0    0 -0.19504350742E+02 -0.97910898604E+02  0.30428907251E+03  0.33275822696E+03  0.90383815980E+02 0.  0.
        -13    1    3    3    0    0  0.50006424686E+02  0.14664158842E+03 -0.56044644235E+03  0.58146763685E+03  0.00000000000E+00 0.  1.
         14    1    3    3    0    0 -0.18686818689E+02  0.20330613733E+03 -0.63273098944E+03  0.66485418527E+03  0.00000000000E+00 0. -1.
         13    1    5    5    0    0 -0.74381751953E+01 -0.30806531536E+02  0.14134791753E+02  0.34701025538E+02  0.00000000000E+00 0. -1.
        -14    1    5    5    0    0 -0.12066175546E+02 -0.67104367068E+02  0.29015428076E+03  0.29805720142E+03  0.00000000000E+00 0.  1.
          5    1    4    4  501    0  0.44699849056E+02 -0.18969367886E+03 -0.50179159066E+02  0.20128881913E+03  0.41800000000E+01 0.  1.
         -5    1    4    4    0  501 -0.56515104311E+02 -0.62343148287E+02 -0.47943514608E+02  0.96936464483E+02  0.41800000000E+01 0.  1.
</event>
<event>
11    1  0.6455215E-009  0.1303296E+03  0.7561462E-02  0.1118865E+00
         22   -1    0    0    0    0  0.00000000000E+00  0.00000000000E+00  0.44378955880E+03  0.44378955880E+03  0.00000000000E+00 0.  1.
         22   -1    0    0    0    0 -0.00000000000E+00 -0.00000000000E+00 -0.10456103369E+03  0.10456103369E+03  0.00000000000E+00 0. -1.
         24    2    1    2    0    0 -0.71419271635E+01  0.38121689900E+02 -0.48962544664E+02  0.10234382760E+03  0.81071930425E+02 0.  0.
         25    2    1    2    0    0 -0.49856595123E+01 -0.22074193171E+02  0.16973201138E+03  0.21205628743E+03  0.12508711583E+03 0.  0.
        -24    2    1    2    0    0  0.12127586676E+02 -0.16047496729E+02  0.21845905839E+03  0.23395047746E+03  0.81264169224E+02 0.  0.
        -11    1    3    3    0    0  0.29826307924E+02 -0.53836560555E+01 -0.28765459593E+02  0.41785692078E+02  0.00000000000E+00 0.  1.
         12    1    3    3    0    0 -0.36968235087E+02  0.43505345955E+02 -0.20197085071E+02  0.60558135519E+02  0.00000000000E+00 0. -1.
         11    1    5    5    0    0  0.56150391180E+01 -0.42617662349E+02  0.64054943805E+02  0.77141620635E+02  0.00000000000E+00 0. -1.
        -12    1    5    5    0    0  0.65125475578E+01  0.26570165620E+02  0.15440411458E+03  0.15680885682E+03  0.00000000000E+00 0.  1.
          5    1    4    4  501    0 -0.53051266779E+02 -0.41723839109E+01  0.14587405822E+03  0.15533370193E+03  0.41800000000E+01 0.  1.
         -5    1    4    4    0  501  0.48065607266E+02 -0.17901809260E+02  0.23857953164E+02  0.56722585500E+02  0.41800000000E+01 0.  1.
</event>
<event>
11    1  0.6455215E-009  0.2287017E+03  0.7561462E-02  0.1035899E+00
         22   -1    0    0    0    0  0.00000000000E+00  0.00000000000E+00  0.17151607374E+04  0.17151607374E+04  0.00000000000E+00 0. -1.
         22   -1    0    0    0    0 -0.00000000000E+00 -0.00000000000E+00 -0.86966937892E+03  0.86966937892E+03  0.00000000000E+00 0.  1.
        -24    2    1    2    0    0  0.48517027919E+01  0.84487564247E+01 -0.79671877795E+03  0.80055752049E+03  0.77695636747E+02 0.  0.
         25    2    1    2    0    0  0.18700683526E+03 -0.13385413489E+02  0.13474287359E+03  0.26259046390E+03  0.12508950404E+03 0.  0.
         24    2    1    2    0    0 -0.19185853805E+03  0.49366570644E+01  0.15074672629E+04  0.15216821320E+04  0.78897990396E+02 0.  0.
        -13    1    5    5    0    0 -0.43294557702E+02 -0.31554338835E+02  0.45826014857E+03  0.46138103428E+03  0.00000000000E+00 0.  1.
         14    1    5    5    0    0 -0.14856398035E+03  0.36490995900E+02  0.10492071143E+04  0.10603010977E+04  0.00000000000E+00 0. -1.
         11    1    3    3    0    0 -0.23896105346E+02 -0.23866411801E+02 -0.27939945873E+03  0.28143327273E+03  0.00000000000E+00 0. -1.
        -12    1    3    3    0    0  0.28747808138E+02  0.32315168226E+02 -0.51731931923E+03  0.51912424776E+03  0.00000000000E+00 0.  1.
          5    1    4    4  501    0  0.11052034907E+03  0.31001439411E+02  0.18294898261E+02  0.11630998456E+03  0.41800000000E+01 0.  1.
         -5    1    4    4    0  501  0.76486486182E+02 -0.44386852900E+02  0.11644797533E+03  0.14628047935E+03  0.41800000000E+01 0.  1.
</event>
<event>
11    1  0.6455215E-009  0.1339728E+03  0.7561462E-02  0.1114482E+00
         22   -1    0    0    0    0  0.00000000000E+00  0.00000000000E+00  0.64428938665E+03  0.64428938665E+03  0.00000000000E+00 0.  1.
         22   -1    0    0    0    0 -0.00000000000E+00 -0.00000000000E+00 -0.26307483851E+03  0.26307483851E+03  0.00000000000E+00 0. -1.
         24    2    1    2    0    0 -0.26678776086E+02  0.19094952200E+02 -0.23266200075E+03  0.24785895331E+03  0.78905512148E+02 0.  0.
         25    2    1    2    0    0  0.52807837527E+02  0.20435364553E+02  0.27524514328E+03  0.30759046070E+03  0.12508289566E+03 0.  0.
        -24    2    1    2    0    0 -0.26129061440E+02 -0.39530316753E+02  0.33863140562E+03  0.35191481115E+03  0.83231193917E+02 0.  0.
        -13    1    3    3    0    0  0.35585031814E+01 -0.81449900378E+01  0.24745017480E+01  0.92264276136E+01  0.00000000000E+00 0.  1.
         14    1    3    3    0    0 -0.30237279268E+02  0.27239942237E+02 -0.23513650250E+03  0.23863252570E+03  0.00000000000E+00 0. -1.
         13    1    5    5    0    0  0.53190040982E+01 -0.56845904682E+02  0.16464889616E+03  0.17426705853E+03  0.00000000000E+00 0. -1.
        -14    1    5    5    0    0 -0.31448065539E+02  0.17315587929E+02  0.17398250946E+03  0.17764775261E+03  0.00000000000E+00 0.  1.
          5    1    4    4  501    0  0.71294731527E+02 -0.14808357771E+02  0.79879394745E+02  0.10816846263E+03  0.41800000000E+01 0. -1.
         -5    1    4    4    0  501 -0.18486894001E+02  0.35243722324E+02  0.19536574854E+03  0.19942199807E+03  0.41800000000E+01 0. -1.
</event>
<event>
11    1  0.6455215E-009  0.1436388E+03  0.7561462E-02  0.1103562E+00
         22   -1    0    0    0    0  0.00000000000E+00  0.00000000000E+00  0.11931906147E+04  0.11931906147E+04  0.00000000000E+00 0.  1.
         22   -1    0    0    0    0 -0.00000000000E+00 -0.00000000000E+00 -0.40807793491E+03  0.40807793491E+03  0.00000000000E+00 0. -1.
         24    2    1    2    0    0  0.49691468311E+02  0.52631798347E+02 -0.34980102548E+03  0.36619870406E+03  0.80631167752E+02 0.  0.
         25    2    1    2    0    0  0.16993193859E+02 -0.79687761298E+02  0.70526703885E+02  0.16510697385E+03  0.12508952361E+03 0.  0.
        -24    2    1    2    0    0 -0.66684662170E+02  0.27055962952E+02  0.10643870014E+04  0.10699628717E+04  0.81987735662E+02 0.  0.
        -13    1    3    3    0    0 -0.93051617017E+01  0.21928384368E+02 -0.24511362040E+02  0.34179627622E+02  0.00000000000E+00 0.  1.
         14    1    3    3    0    0  0.58996630013E+02  0.30703413979E+02 -0.32528966344E+03  0.33201907644E+03  0.00000000000E+00 0. -1.
         13    1    5    5    0    0 -0.30097198470E+02  0.51916102644E+02  0.44968742133E+03  0.45367378145E+03  0.00000000000E+00 0. -1.
        -14    1    5    5    0    0 -0.36587463700E+02 -0.24860139693E+02  0.61469958008E+03  0.61628909028E+03  0.00000000000E+00 0.  1.
          5    1    4    4  501    0  0.47118954116E+02  0.13879978267E+02  0.12405397372E+02  0.50835183856E+02  0.41800000000E+01 0.  1.
         -5    1    4    4    0  501 -0.30125760257E+02 -0.93567739565E+02  0.58121306513E+02  0.11427179000E+03  0.41800000000E+01 0.  1.
</event>
<event>
11    1  0.6455215E-009  0.1722976E+03  0.7561462E-02  0.1076049E+00
         22   -1    0    0    0    0  0.00000000000E+00  0.00000000000E+00  0.47217483288E+04  0.47217483288E+04  0.00000000000E+00 0.  1.
         22   -1    0    0    0    0 -0.00000000000E+00 -0.00000000000E+00 -0.18621743314E+03  0.18621743314E+03  0.00000000000E+00 0.  1.
        -24    2    1    2    0    0  0.64394925319E+02  0.98854558148E+02 -0.14770077414E+03  0.20456107597E+03  0.78171510458E+02 0.  0.
         25    2    1    2    0    0 -0.66685867568E+02 -0.11639684175E+03  0.85826766748E+03  0.87764827040E+03  0.12509143766E+03 0.  0.
         24    2    1    2    0    0  0.22909422484E+01  0.17542283606E+02  0.38249640023E+04  0.38257564156E+04  0.75825801506E+02 0.  0.
        -11    1    5    5    0    0 -0.32152229982E+02  0.27169177067E+02  0.20469700656E+04  0.20474028376E+04  0.00000000000E+00 0.  1.
         12    1    5    5    0    0  0.34443172230E+02 -0.96268934609E+01  0.17779939368E+04  0.17783535780E+04  0.00000000000E+00 0. -1.
         13    1    3    3    0    0  0.25136960691E+02  0.70712305017E+02 -0.36772062902E+02  0.83572013758E+02  0.00000000000E+00 0. -1.
        -14    1    3    3    0    0  0.39257964629E+02  0.28142253131E+02 -0.11092871124E+03  0.12098906221E+03  0.00000000000E+00 0.  1.
          5    1    4    4  501    0 -0.79855719398E+02 -0.10492832075E+03  0.44882888899E+03  0.46781591722E+03  0.41800000000E+01 0.  1.
         -5    1    4    4    0  501  0.13169851831E+02 -0.11468521007E+02  0.40943877850E+03  0.40983235317E+03  0.41800000000E+01 0.  1.
</event>
<event>
11    1  0.6455215E-009  0.1271583E+03  0.7561462E-02  0.1122811E+00
         22   -1    0    0    0    0  0.00000000000E+00  0.00000000000E+00  0.13426900333E+04  0.13426900333E+04  0.00000000000E+00 0. -1.
         22   -1    0    0    0    0 -0.00000000000E+00 -0.00000000000E+00 -0.70079003336E+02  0.70079003336E+02  0.00000000000E+00 0.  1.
         24    2    1    2    0    0 -0.30729480696E+02 -0.37147322390E+02 -0.34719376593E+02  0.80694707516E+02  0.54607473532E+02 0.  0.
         25    2    1    2    0    0  0.48524879766E+02  0.31744323001E+02  0.44888905045E+03  0.46958680024E+03  0.12509203552E+03 0.  0.
        -24    2    1    2    0    0 -0.17795399070E+02  0.54029993887E+01  0.85844135611E+03  0.86248752887E+03  0.81346831269E+02 0.  0.
        -11    1    3    3    0    0 -0.38359251793E+02 -0.27870103892E+02 -0.44635221377E+02  0.65118951746E+02  0.00000000000E+00 0.  1.
         12    1    3    3    0    0  0.76297710973E+01 -0.92772184978E+01  0.99158447838E+01  0.15575755771E+02  0.00000000000E+00 0. -1.
         13    1    5    5    0    0 -0.42311901542E+02  0.10275223516E+01  0.75124649100E+03  0.75243780013E+03  0.00000000000E+00 0. -1.
        -14    1    5    5    0    0  0.24516502472E+02  0.43754770371E+01  0.10719486510E+03  0.11004972875E+03  0.00000000000E+00 0.  1.
          5    1    4    4  501    0  0.23021843362E+02  0.79470970179E+02  0.29477670373E+03  0.30619669795E+03  0.41800000000E+01 0. -1.
         -5    1    4    4    0  501  0.25503036404E+02 -0.47726647178E+02  0.15411234671E+03  0.16339010229E+03  0.41800000000E+01 0. -1.
</event>
<event>
11    1  0.6455215E-009  0.1531335E+03  0.7561462E-02  0.1093719E+00
         22   -1    0    0    0    0  0.00000000000E+00  0.00000000000E+00  0.22435294182E+03  0.22435294182E+03  0.00000000000E+00 0.  1.
         22   -1    0    0    0    0 -0.00000000000E+00 -0.00000000000E+00 -0.20892227661E+03  0.20892227661E+03  0.00000000000E+00 0. -1.
        -24    2    1    2    0    0  0.22085180844E+02  0.33075923673E+02 -0.73593315956E+02  0.11632844989E+03  0.80836626358E+02 0.  0.
         25    2    1    2    0    0 -0.10124038486E+03 -0.50794699394E+02 -0.39790349459E+01  0.16880132544E+03  0.12509331613E+03 0.  0.
         24    2    1    2    0    0  0.79155204016E+02  0.17718775721E+02  0.93003016113E+02  0.14814544309E+03  0.81963467269E+02 0.  0.
        -13    1    5    5    0    0  0.51298445426E+02 -0.13953884982E+02  0.91639254442E+02  0.10594335451E+03  0.00000000000E+00 0.  1.
         14    1    5    5    0    0  0.27856758590E+02  0.31672660702E+02  0.13637616707E+01  0.42202088586E+02  0.00000000000E+00 0. -1.
         13    1    3    3    0    0 -0.25100709621E+02  0.42842938135E+01 -0.50233713974E+02  0.56318973859E+02  0.00000000000E+00 0. -1.
        -14    1    3    3    0    0  0.47185890464E+02  0.28791629860E+02 -0.23359601983E+02  0.60009476032E+02  0.00000000000E+00 0.  1.
          5    1    4    4  501    0 -0.11284934696E+03 -0.92218515771E+01  0.25791002370E+02  0.11620097185E+03  0.41800000000E+01 0. -1.
         -5    1    4    4    0  501  0.11608962098E+02 -0.41572847817E+02 -0.29770037315E+02  0.52600353595E+02  0.41800000000E+01 0. -1.
</event>
<event>
11    1  0.6455215E-009  0.2681309E+03  0.7561462E-02  0.1014661E+00
         22   -1    0    0    0    0  0.00000000000E+00  0.00000000000E+00  0.39158251065E+03  0.39158251065E+03  0.00000000000E+00 0. -1.
         22   -1    0    0    0    0 -0.00000000000E+00 -0.00000000000E+00 -0.58562141950E+03  0.58562141950E+03  0.00000000000E+00 0. -1.
        -24    2    1    2    0    0 -0.33206163539E+02  0.30814296018E+02 -0.34416867871E+03  0.35609867212E+03  0.79385230005E+02 0.  0.
         25    2    1    2    0    0 -0.17289110202E+03  0.10650838323E+03 -0.10133736249E+03  0.25913209997E+03  0.12507923625E+03 0.  0.
         24    2    1    2    0    0  0.20609726556E+03 -0.13732267925E+03  0.25146713236E+03  0.36197315806E+03  0.80344554238E+02 0.  0.
        -11    1    5    5    0    0  0.78464899125E+02 -0.16428266747E+02  0.49524016605E+02  0.94229807193E+02  0.00000000000E+00 0.  1.
         12    1    5    5    0    0  0.12763236644E+03 -0.12089441250E+03  0.20194311575E+03  0.26774335087E+03  0.00000000000E+00 0. -1.
         11    1    3    3    0    0 -0.51513612506E+02 -0.44004321278E+01 -0.19199368303E+03  0.19883307170E+03  0.00000000000E+00 0. -1.
        -12    1    3    3    0    0  0.18307448967E+02  0.35214728146E+02 -0.15217499568E+03  0.15726560042E+03  0.00000000000E+00 0.  1.
          5    1    4    4  501    0 -0.39367422505E+02 -0.23565271748E+02  0.16979088701E+01  0.46102833771E+02  0.41800000000E+01 0. -1.
         -5    1    4    4    0  501 -0.13352367952E+03  0.13007365498E+03 -0.10303527136E+03  0.21302926619E+03  0.41800000000E+01 0. -1.
</event>
<event>
11    1  0.6455215E-009  0.1433707E+03  0.7561462E-02  0.1103852E+00
         22   -1    0    0    0    0  0.00000000000E+00  0.00000000000E+00  0.78127073102E+03  0.78127073102E+03  0.00000000000E+00 0. -1.
         22   -1    0    0    0    0 -0.00000000000E+00 -0.00000000000E+00 -0.38583217809E+03  0.38583217809E+03  0.00000000000E+00 0. -1.
        -24    2    1    2    0    0  0.62580668396E+01  0.14698319710E+02 -0.35826109866E+03  0.36808049573E+03  0.82927875411E+02 0.  0.
         25    2    1    2    0    0 -0.47615084377E+02  0.47740570204E+02  0.55241689127E+03  0.57040246534E+03  0.12509273521E+03 0.  0.
         24    2    1    2    0    0  0.41357017538E+02 -0.62438889914E+02  0.20128276032E+03  0.22861994804E+03  0.78379290425E+02 0.  0.
        -13    1    5    5    0    0  0.35336241423E+02  0.91960709015E+01  0.69064696324E+02  0.78122659685E+02  0.00000000000E+00 0.  1.
         14    1    5    5    0    0  0.60207761146E+01 -0.71634960816E+02  0.13221806399E+03  0.15049728835E+03  0.00000000000E+00 0. -1.
         13    1    3    3    0    0 -0.23734527823E+02  0.38048897086E+02 -0.22885975440E+03  0.23321199275E+03  0.00000000000E+00 0. -1.
        -14    1    3    3    0    0  0.29992594662E+02 -0.23350577376E+02 -0.12940134426E+03  0.13486850298E+03  0.00000000000E+00 0.  1.
          5    1    4    4  501    0 -0.28763832271E+02  0.38639954435E+01  0.19230101779E+02  0.35065049866E+02  0.41800000000E+01 0.  1.
         -5    1    4    4    0  501 -0.18851252107E+02  0.43876574761E+02  0.53318678949E+03  0.53533741547E+03  0.41800000000E+01 0.  1.
</event>
<event>
11    1  0.6455215E-009  0.1550360E+03  0.7561462E-02  0.1091841E+00
         22   -1    0    0    0    0  0.00000000000E+00  0.00000000000E+00  0.12685441827E+04  0.12685441827E+04  0.00000000000E+00 0.  1.
         22   -1    0    0    0    0 -0.00000000000E+00 -0.00000000000E+00 -0.52343155410E+03  0.52343155410E+03  0.00000000000E+00 0.  1.
        -24    2    1    2    0    0  0.25932295703E+02  0.86190852458E+02 -0.48835923987E+03  0.50280056634E+03  0.78818242421E+02 0.  0.
         25    2    1    2    0    0 -0.58402092539E+02  0.10107641982E+02  0.17622964547E+03  0.22409231847E+03  0.12509000926E+03 0.  0.
         24    2    1    2    0    0  0.32469796835E+02 -0.96298494440E+02  0.10572422230E+04  0.10650828520E+04  0.79452349278E+02 0.  0.
        -13    1    5    5    0    0 -0.10703727845E+02 -0.80535284802E+02  0.58609096529E+03  0.59169512545E+03  0.00000000000E+00 0.  1.
         14    1    5    5    0    0  0.43173524681E+02 -0.15763209638E+02  0.47115125768E+03  0.47338772652E+03  0.00000000000E+00 0. -1.
         13    1    3    3    0    0 -0.15393978282E+02  0.67277263242E+01 -0.20787381940E+02  0.26727366440E+02  0.00000000000E+00 0. -1.
        -14    1    3    3    0    0  0.41326273986E+02  0.79463126134E+02 -0.46757185792E+03  0.47607319990E+03  0.00000000000E+00 0.  1.
          5    1    4    4  501    0 -0.97849859599E+02  0.22588450355E+01  0.12305944985E+03  0.15729207864E+03  0.41800000000E+01 0. -1.
         -5    1    4    4    0  501  0.39447767061E+02  0.78487969469E+01  0.53170195622E+02  0.66800239836E+02  0.41800000000E+01 0. -1.
</event>
<event>
11    1  0.6455215E-009  0.1999732E+03  0.7561462E-02  0.1054543E+00
         22   -1    0    0    0    0  0.00000000000E+00  0.00000000000E+00  0.30505499431E+03  0.30505499431E+03  0.00000000000E+00 0. -1.
         22   -1    0    0    0    0 -0.00000000000E+00 -0.00000000000E+00 -0.30546206706E+03  0.30546206706E+03  0.00000000000E+00 0.  1.
        -24    2    1    2    0    0  0.11147985221E+03 -0.40848356388E+02 -0.11039130498E+03  0.18179825005E+03  0.82267963610E+02 0.  0.
         25    2    1    2    0    0 -0.10618322355E+03 -0.12499552326E+03 -0.14299737840E+02  0.20676158327E+03  0.12508841680E+03 0.  0.
         24    2    1    2    0    0 -0.52966286555E+01  0.16584387965E+03  0.12428397006E+03  0.22195722805E+03  0.79285933036E+02 0.  0.
        -13    1    5    5    0    0  0.18289836316E+02  0.49239397678E+02  0.38418310214E+01  0.52666840249E+02  0.00000000000E+00 0.  1.
         14    1    5    5    0    0 -0.23586464972E+02  0.11660448197E+03  0.12044213904E+03  0.16929038780E+03  0.00000000000E+00 0. -1.
         13    1    3    3    0    0 -0.10437107074E+02 -0.11117637543E+02 -0.93128621572E+00  0.15277511663E+02  0.00000000000E+00 0. -1.
        -14    1    3    3    0    0  0.12191695928E+03 -0.29730718845E+02 -0.10946001876E+03  0.16652073838E+03  0.00000000000E+00 0.  1.
          5    1    4    4  501    0 -0.16999603994E+02  0.21660026087E+02  0.16435154602E+02  0.32337748419E+02  0.41800000000E+01 0. -1.
         -5    1    4    4    0  501 -0.89183619560E+02 -0.14665554935E+03 -0.30734892442E+02  0.17442383486E+03  0.41800000000E+01 0. -1.
</event>
<event>
11    1  0.6455215E-009  0.1366113E+03  0.7561462E-02  0.1111402E+00
         22   -1    0    0    0    0  0.00000000000E+00  0.00000000000E+00  0.16332149468E+04  0.16332149468E+04  0.00000000000E+00 0. -1.
         22   -1    0    0    0    0 -0.00000000000E+00 -0.00000000000E+00 -0.61027633202E+03  0.61027633202E+03  0.00000000000E+00 0.  1.
        -24    2    1    2    0    0 -0.18468352633E+01 -0.66269052175E+02 -0.51906164473E+03  0.52927831638E+03  0.79470416428E+02 0.  0.
         25    2    1    2    0    0  0.37884462333E+01  0.10055853353E+02 -0.37642994355E+02  0.13107504743E+03  0.12509276767E+03 0.  0.
         24    2    1    2    0    0 -0.19416109700E+01  0.56213198821E+02  0.15796432539E+04  0.15831379150E+04  0.88820914599E+02 0.  0.
        -13    1    5    5    0    0 -0.12960115767E+00 -0.17960996406E+02  0.74134982642E+03  0.74156738016E+03  0.00000000000E+00 0.  1.
         14    1    5    5    0    0 -0.18120098124E+01  0.74174195228E+02  0.83829342744E+03  0.84157053484E+03  0.00000000000E+00 0. -1.
         11    1    3    3    0    0 -0.45642730585E+01  0.17842486194E+02 -0.68957500032E+02  0.71374531261E+02  0.00000000000E+00 0. -1.
        -12    1    3    3    0    0  0.27174377952E+01 -0.84111538368E+02 -0.45010414470E+03  0.45790378512E+03  0.00000000000E+00 0.  1.
          5    1    4    4  501    0  0.41040825987E+02 -0.41776437682E+02 -0.41208046506E+01  0.58856380912E+02  0.41800000000E+01 0.  1.
         -5    1    4    4    0  501 -0.37252379754E+02  0.51832291035E+02 -0.33522189704E+02  0.72218666520E+02  0.41800000000E+01 0.  1.
</event>
<event>
11    1  0.6455215E-009  0.1388866E+03  0.7561462E-02  0.1108808E+00
         22   -1    0    0    0    0  0.00000000000E+00  0.00000000000E+00  0.68122960479E+03  0.68122960479E+03  0.00000000000E+00 0. -1.
         22   -1    0    0    0    0 -0.00000000000E+00 -0.00000000000E+00 -0.25801968240E+03  0.25801968240E+03  0.00000000000E+00 0. -1.
        -24    2    1    2    0    0 -0.22857535293E+00  0.21652281756E+02 -0.16290161578E+03  0.18457967676E+03  0.84046695919E+02 0.  0.
         25    2    1    2    0    0  0.56372737088E+02  0.15030356493E+01 -0.21467647769E+02  0.13888348665E+03  0.12509044072E+03 0.  0.
         24    2    1    2    0    0 -0.56144161735E+02 -0.23155317405E+02  0.60757918594E+03  0.61578612379E+03  0.79697850912E+02 0.  0.
        -11    1    5    5    0    0 -0.83056479388E+01  0.99874901980E+01  0.13041816448E+02  0.18407137866E+02  0.00000000000E+00 0.  1.
         12    1    5    5    0    0 -0.47838513796E+02 -0.33142807603E+02  0.59453736949E+03  0.59737898592E+03  0.00000000000E+00 0. -1.
         11    1    3    3    0    0  0.63512299320E+01  0.49058492315E+02 -0.13928376010E+03  0.14780744101E+03  0.00000000000E+00 0. -1.
        -12    1    3    3    0    0 -0.65798052850E+01 -0.27406210560E+02 -0.23617855684E+02  0.36772235748E+02  0.00000000000E+00 0.  1.
          5    1    4    4  501    0 -0.47705516452E+01 -0.31737499664E+02 -0.53207960496E+02  0.62278298853E+02  0.41800000000E+01 0.  1.
         -5    1    4    4    0  501  0.61143288733E+02  0.33240535313E+02  0.31740312727E+02  0.76605187795E+02  0.41800000000E+01 0.  1.
</event>
<event>
11    1  0.6455215E-009  0.4121163E+03  0.7561462E-02  0.9614669E-01
         22   -1    0    0    0    0  0.00000000000E+00  0.00000000000E+00  0.12619019721E+04  0.12619019721E+04  0.00000000000E+00 0.  1.
         22   -1    0    0    0    0 -0.00000000000E+00 -0.00000000000E+00 -0.89578690451E+03  0.89578690451E+03  0.00000000000E+00 0. -1.
         24    2    1    2    0    0 -0.77029200559E+01  0.90766014749E+01 -0.70477523982E+03  0.70931577739E+03  0.79240227891E+02 0.  0.
         25    2    1    2    0    0  0.18118974935E+01 -0.39974967679E+03  0.14951763228E+03  0.44475404580E+03  0.12509017480E+03 0.  0.
        -24    2    1    2    0    0  0.58910225624E+01  0.39067307531E+03  0.92137267516E+03  0.10036190535E+04  0.75255843726E+02 0.  0.
        -11    1    3    3    0    0 -0.17762373518E+02  0.22586224059E+02 -0.93661790291E+02  0.97970252581E+02  0.00000000000E+00 0.  1.
         12    1    3    3    0    0  0.10059453462E+02 -0.13509622584E+02 -0.61111344953E+03  0.61134552481E+03  0.00000000000E+00 0. -1.
         13    1    5    5    0    0  0.54009046989E+01  0.20730108299E+03  0.58253447620E+03  0.61834401812E+03  0.00000000000E+00 0. -1.
        -14    1    5    5    0    0  0.49011786350E+00  0.18337199232E+03  0.33883819896E+03  0.38527503534E+03  0.00000000000E+00 0.  1.
          5    1    4    4  501    0 -0.46344585729E+02 -0.33410216693E+03  0.12202222088E+03  0.35871851550E+03  0.41800000000E+01 0. -1.
         -5    1    4    4    0  501  0.48156483222E+02 -0.65647509860E+02  0.27495411406E+02  0.86035530309E+02  0.41800000000E+01 0. -1.
</event>
<event>
11    1  0.6455215E-009  0.1423367E+03  0.7561462E-02  0.1104977E+00
         22   -1    0    0    0    0  0.00000000000E+00  0.00000000000E+00  0.65401177386E+03  0.65401177386E+03  0.00000000000E+00 0.  1.
         22   -1    0    0    0    0 -0.00000000000E+00 -0.00000000000E+00 -0.51718519555E+03  0.51718519555E+03  0.00000000000E+00 0.  1.
         24    2    1    2    0    0 -0.31030074155E+02  0.23769250308E+02 -0.35941151475E+03  0.37060364947E+03  0.81502057075E+02 0.  0.
         25    2    1    2    0    0  0.93855383241E+02 -0.46513564552E+02 -0.10266476560E+03  0.19277073315E+03  0.12509259296E+03 0.  0.
        -24    2    1    2    0    0 -0.62825309086E+02  0.22744314244E+02  0.59890285865E+03  0.60782258679E+03  0.79368379189E+02 0.  0.
        -11    1    3    3    0    0 -0.57142987953E+02  0.27478592762E+02 -0.27241811765E+03  0.27969988373E+03  0.00000000000E+00 0.  1.
         12    1    3    3    0    0  0.26112913798E+02 -0.37093424539E+01 -0.86993397094E+02  0.90903765743E+02  0.00000000000E+00 0. -1.
         11    1    5    5    0    0 -0.31538753836E+01  0.31933135893E+02  0.35930630763E+03  0.36073632310E+03  0.00000000000E+00 0. -1.
        -12    1    5    5    0    0 -0.59671433702E+02 -0.91888216494E+01  0.23959655102E+03  0.24708626369E+03  0.00000000000E+00 0.  1.
          5    1    4    4  501    0  0.12322106842E+03 -0.50111487469E+02 -0.87386700816E+02  0.15921212504E+03  0.41800000000E+01 0. -1.
         -5    1    4    4    0  501 -0.29365685178E+02  0.35979229166E+01 -0.15278064780E+02  0.33558608117E+02  0.41800000000E+01 0. -1.
</event>
<event>
11    1  0.6455215E-009  0.1670814E+03  0.7561462E-02  0.1080600E+00
         22   -1    0    0    0    0  0.00000000000E+00  0.00000000000E+00  0.38225607480E+03  0.38225607480E+03  0.00000000000E+00 0.  1.
         22   -1    0    0    0    0 -0.00000000000E+00 -0.00000000000E+00 -0.11075963498E+04  0.11075963498E+04  0.00000000000E+00 0. -1.
         24    2    1    2    0    0  0.10472732638E+02 -0.50428010669E+02 -0.91278359928E+03  0.91778583437E+03  0.80649093349E+02 0.  0.
         25    2    1    2    0    0  0.98689163632E+02  0.24054150024E+02 -0.14204945628E+03  0.21481091629E+03  0.12509008184E+03 0.  0.
        -24    2    1    2    0    0 -0.10916189627E+03  0.26373860644E+02  0.32949278055E+03  0.35725567395E+03  0.80338185250E+02 0.  0.
        -13    1    3    3    0    0  0.39989316230E+02 -0.65552529955E+01 -0.29989719509E+03  0.30262261048E+03  0.00000000000E+00 0.  1.
         14    1    3    3    0    0 -0.29516583592E+02 -0.43872757673E+02 -0.61288640420E+03  0.61516322389E+03  0.00000000000E+00 0. -1.
         13    1    5    5    0    0 -0.57073121730E+02  0.25617188684E+02  0.75856882315E+02  0.98325216372E+02  0.00000000000E+00 0. -1.
        -14    1    5    5    0    0 -0.52088774540E+02  0.75667195996E+00  0.25363589824E+03  0.25893045758E+03  0.00000000000E+00 0.  1.
          5    1    4    4  501    0  0.11190778763E+03 -0.20789976869E+02 -0.10645375235E+03  0.15590205213E+03  0.41800000000E+01 0.  1.
         -5    1    4    4    0  501 -0.13218624001E+02  0.44844126894E+02 -0.35595703931E+02  0.58908864152E+02  0.41800000000E+01 0.  1.
</event>
<event>
11    1  0.6455215E-009  0.1494386E+03  0.7561462E-02  0.1097454E+00
         22   -1    0    0    0    0  0.00000000000E+00  0.00000000000E+00  0.10357820568E+04  0.10357820568E+04  0.00000000000E+00 0. -1.
         22   -1    0    0    0    0 -0.00000000000E+00 -0.00000000000E+00 -0.10644311247E+04  0.10644311247E+04  0.00000000000E+00 0. -1.
         24    2    1    2    0    0  0.10303803095E+02  0.80431373520E+02 -0.10177448022E+04  0.10243757460E+04  0.83461443175E+02 0.  0.
         25    2    1    2    0    0 -0.30407552696E+02 -0.11575941973E+03  0.14196520264E+03  0.22388933039E+03  0.12508977171E+03 0.  0.
        -24    2    1    2    0    0  0.20103749601E+02  0.35328046209E+02  0.84713053170E+03  0.85194810504E+03  0.80828239773E+02 0.  0.
        -13    1    3    3    0    0 -0.36717128917E+02  0.30783508098E+02 -0.43716221401E+03  0.43978014198E+03  0.00000000000E+00 0.  1.
         14    1    3    3    0    0  0.47020932013E+02  0.49647865422E+02 -0.58058258818E+03  0.58459560406E+03  0.00000000000E+00 0. -1.
         11    1    5    5    0    0  0.20536944263E+02  0.58810294850E+02  0.71815613877E+03  0.72085272873E+03  0.00000000000E+00 0. -1.
        -12    1    5    5    0    0 -0.43319466254E+00 -0.23482248640E+02  0.12897439293E+03  0.13109537631E+03  0.00000000000E+00 0.  1.
          5    1    4    4  501    0  0.19836415351E+02  0.10568490779E+02  0.62062285835E+02  0.66139066326E+02  0.41800000000E+01 0.  1.
         -5    1    4    4    0  501 -0.50243968047E+02 -0.12632791051E+03  0.79902916801E+02  0.15775026406E+03  0.41800000000E+01 0.  1.
</event>
<event>
11    1  0.6455215E-009  0.1281317E+03  0.7561462E-02  0.1121586E+00
         22   -1    0    0    0    0  0.00000000000E+00  0.00000000000E+00  0.34549867426E+03  0.34549867426E+03  0.00000000000E+00 0. -1.
         22   -1    0    0    0    0 -0.00000000000E+00 -0.00000000000E+00 -0.13571669369E+03  0.13571669369E+03  0.00000000000E+00 0.  1.
         24    2    1    2    0    0 -0.58855137070E+01  0.27788489815E+02 -0.15924500092E+02  0.89981948198E+02  0.83882786438E+02 0.  0.
         25    2    1    2    0    0  0.11674876555E+02 -0.24690965269E+02 -0.22228054169E+02  0.12994673213E+03  0.12508445264E+03 0.  0.
        -24    2    1    2    0    0 -0.57893628476E+01 -0.30975245459E+01  0.24793453483E+03  0.26128668762E+03  0.82195426790E+02 0.  0.
        -13    1    3    3    0    0  0.21442631991E+01  0.38600308977E+02 -0.44164620781E+02  0.58694935441E+02  0.00000000000E+00 0.  1.
         14    1    3    3    0    0 -0.80297769061E+01 -0.10811819161E+02  0.28240120688E+02  0.31287012757E+02  0.00000000000E+00 0. -1.
         13    1    5    5    0    0 -0.10443618638E+02  0.21120861298E+02  0.22896314423E+03  0.23017228628E+03  0.00000000000E+00 0. -1.
        -14    1    5    5    0    0  0.46542557905E+01 -0.24218385843E+02  0.18971390599E+02  0.31114401345E+02  0.00000000000E+00 0.  1.
          5    1    4    4  501    0  0.35938778797E+02 -0.24710309436E+02 -0.66296708542E+02  0.79466478325E+02  0.41800000000E+01 0.  1.
         -5    1    4    4    0  501 -0.24263902243E+02  0.19344167209E-01  0.44068654373E+02  0.50480253808E+02  0.41800000000E+01 0.  1.
</event>
<event>
11    1  0.6455215E-009  0.1396137E+03  0.7561462E-02  0.1107991E+00
         22   -1    0    0    0    0  0.00000000000E+00  0.00000000000E+00  0.53405430603E+03  0.53405430603E+03  0.00000000000E+00 0. -1.
         22   -1    0    0    0    0 -0.00000000000E+00 -0.00000000000E+00 -0.88622677238E+03  0.88622677238E+03  0.00000000000E+00 0.  1.
        -24    2    1    2    0    0  0.61012354396E+02 -0.57555001786E+01 -0.81707800019E+03  0.82227106889E+03  0.68975496903E+02 0.  0.
         25    2    1    2    0    0 -0.86975960882E+02  0.19315560237E+02  0.32244920729E+02  0.15692214989E+03  0.12508763957E+03 0.  0.
         24    2    1    2    0    0  0.25963606486E+02 -0.13560060059E+02  0.43266061311E+03  0.44108785964E+03  0.80655500096E+02 0.  0.
        -11    1    5    5    0    0  0.77377173120E+01  0.15052838809E+02  0.16805577672E+02  0.23851366131E+02  0.00000000000E+00 0.  1.
         12    1    5    5    0    0  0.18225889174E+02 -0.28612898868E+02  0.41585503544E+03  0.41723649351E+03  0.00000000000E+00 0. -1.
         13    1    3    3    0    0 -0.46087816998E+01 -0.15251992935E+02 -0.53564845814E+02  0.55884316801E+02  0.00000000000E+00 0. -1.
        -14    1    3    3    0    0  0.65621136096E+02  0.94964927564E+01 -0.76351315437E+03  0.76638675209E+03  0.00000000000E+00 0.  1.
          5    1    4    4  501    0 -0.85495753076E+02 -0.36451910286E+02  0.14170206234E+01  0.93047009114E+02  0.41800000000E+01 0.  1.
         -5    1    4    4    0  501 -0.14802078056E+01  0.55767470524E+02  0.30827900106E+02  0.63875140772E+02  0.41800000000E+01 0.  1.
</event>
<event>
11    1  0.6455215E-009  0.1318039E+03  0.7561462E-02  0.1117072E+00
         22   -1    0    0    0    0  0.00000000000E+00  0.00000000000E+00  0.69417914077E+02  0.69417914077E+02  0.00000000000E+00 0. -1.
         22   -1    0    0    0    0 -0.00000000000E+00 -0.00000000000E+00 -0.12518810848E+04  0.12518810848E+04  0.00000000000E+00 0.  1.
         24    2    1    2    0    0 -0.40077590808E+02 -0.24826271925E+01 -0.10307908858E+04  0.10349115647E+04  0.83064551789E+02 0.  0.
         25    2    1    2    0    0  0.61392542325E+02 -0.16570210526E+02 -0.14516512305E+03  0.20189943370E+03  0.12508737845E+03 0.  0.
        -24    2    1    2    0    0 -0.21314951516E+02  0.19052837719E+02 -0.65071618577E+01  0.84488000473E+02  0.79237246830E+02 0.  0.
        -11    1    3    3    0    0 -0.38193673047E+02  0.95494059540E+00 -0.10302457211E+04  0.10309538857E+04  0.00000000000E+00 0.  1.
         12    1    3    3    0    0 -0.18839177612E+01 -0.34375677879E+01 -0.54516468242E+00  0.39576789863E+01  0.00000000000E+00 0. -1.
         13    1    5    5    0    0 -0.15713580017E+02  0.46302046660E+02  0.12899603388E+02  0.50568724420E+02  0.00000000000E+00 0. -1.
        -14    1    5    5    0    0 -0.56013714996E+01 -0.27249208942E+02 -0.19406765246E+02  0.33919276053E+02  0.00000000000E+00 0.  1.
          5    1    4    4  501    0  0.98321648675E+02 -0.26086242677E+02 -0.10120723069E+03  0.14355491841E+03  0.41800000000E+01 0. -1.
         -5    1    4    4    0  501 -0.36929106350E+02  0.95160321511E+01 -0.43957892360E+02  0.58344515290E+02  0.41800000000E+01 0. -1.
</event>
<event>
11    1  0.6455215E-009  0.1486592E+03  0.7561462E-02  0.1098257E+00
         22   -1    0    0    0    0  0.00000000000E+00  0.00000000000E+00  0.36547865172E+03  0.36547865172E+03  0.00000000000E+00 0.  1.
         22   -1    0    0    0    0 -0.00000000000E+00 -0.00000000000E+00 -0.16282373150E+03  0.16282373150E+03  0.00000000000E+00 0.  1.
        -24    2    1    2    0    0  0.77997384382E+02 -0.58309164582E+00 -0.68230566630E+02  0.13178800324E+03  0.81417047403E+02 0.  0.
         25    2    1    2    0    0 -0.87715902009E+02  0.14242038084E+02  0.50298585779E+02  0.16147402214E+03  0.12508795698E+03 0.  0.
         24    2    1    2    0    0  0.97185176272E+01 -0.13658946439E+02  0.22058690107E+03  0.23504035784E+03  0.79400078626E+02 0.  0.
        -11    1    5    5    0    0  0.10867436039E+02 -0.19382553529E+02  0.22599361310E+03  0.22708345978E+03  0.00000000000E+00 0.  1.
         12    1    5    5    0    0 -0.11489184115E+01  0.57236070900E+01 -0.54067120282E+01  0.79568980509E+01  0.00000000000E+00 0. -1.
         13    1    3    3    0    0  0.33766636426E+02 -0.16824449967E+02  0.11269939160E+02  0.39373333373E+02  0.00000000000E+00 0. -1.
        -14    1    3    3    0    0  0.44230747956E+02  0.16241358321E+02 -0.79500505790E+02  0.92414669862E+02  0.00000000000E+00 0.  1.
          5    1    4    4  501    0 -0.46685927059E+02  0.60003915833E+02  0.62699064397E+02  0.98634125823E+02  0.41800000000E+01 0. -1.
         -5    1    4    4    0  501 -0.41029974950E+02 -0.45761877748E+02 -0.12400478619E+02  0.62839896319E+02  0.41800000000E+01 0. -1.
</event>
<event>
11    1  0.6455215E-009  0.1397163E+03  0.7561462E-02  0.1107876E+00
         22   -1    0    0    0    0  0.00000000000E+00  0.00000000000E+00  0.24543762756E+03  0.24543762756E+03  0.00000000000E+00 0. -1.
         22   -1    0    0    0    0 -0.00000000000E+00 -0.00000000000E+00 -0.51500945135E+03  0.51500945135E+03  0.00000000000E+00 0. -1.
         24    2    1    2    0    0  0.36936640917E+02  0.44169760094E+02 -0.36784606922E+03  0.38073905599E+03  0.79600345266E+02 0.  0.
         25    2    1    2    0    0 -0.77340877917E+02 -0.61354743984E+02 -0.80186013694E+02  0.17841741879E+03  0.12512778480E+03 0.  0.
        -24    2    1    2    0    0  0.40404237000E+02  0.17184983890E+02  0.17846025912E+03  0.20129060413E+03  0.82109787406E+02 0.  0.
        -13    1    3    3    0    0  0.22550596337E+02  0.55241772704E+02 -0.14017900003E+03  0.15234938430E+03  0.00000000000E+00 0.  1.
         14    1    3    3    0    0  0.14386044581E+02 -0.11072012610E+02 -0.22766706919E+03  0.22838967169E+03  0.00000000000E+00 0. -1.
         11    1    5    5    0    0  0.12871951404E+01  0.44360386073E+02  0.10158493078E+03  0.11085575712E+03  0.00000000000E+00 0. -1.
        -12    1    5    5    0    0  0.39117041859E+02 -0.27175402183E+02  0.76875328335E+02  0.90434847013E+02  0.00000000000E+00 0.  1.
          5    1    4    4  501    0 -0.10692002363E+03 -0.21140132458E+02 -0.59231625108E+02  0.12411548842E+03  0.41800000000E+01 0.  1.
         -5    1    4    4    0  501  0.29579145710E+02 -0.40214611526E+02 -0.20954388586E+02  0.54301930372E+02  0.41800000000E+01 0.  1.
</event>
<event>
11    1  0.6455215E-009  0.1456391E+03  0.7561462E-02  0.1101420E+00
         22   -1    0    0    0    0  0.00000000000E+00  0.00000000000E+00  0.17322451678E+03  0.17322451678E+03  0.00000000000E+00 0.  1.
         22   -1    0    0    0    0 -0.00000000000E+00 -0.00000000000E+00 -0.81532367336E+03  0.81532367336E+03  0.00000000000E+00 0.  1.
        -24    2    1    2    0    0 -0.50273612632E+02  0.86216719814E+01 -0.69613438041E+03  0.70253200529E+03  0.79664129343E+02 0.  0.
         25    2    1    2    0    0  0.11171853303E+03 -0.67780662659E+00 -0.45749163724E+01  0.16777940532E+03  0.12509000337E+03 0.  0.
         24    2    1    2    0    0 -0.61444920401E+02 -0.79438653548E+01  0.58610140207E+02  0.11823677954E+03  0.81891417505E+02 0.  0.
        -13    1    5    5    0    0 -0.48153241170E+02 -0.19533513865E+02  0.76912155136E+02  0.92821185118E+02  0.00000000000E+00 0.  1.
         14    1    5    5    0    0 -0.13291679231E+02  0.11589648510E+02 -0.18302014929E+02  0.25415594422E+02  0.00000000000E+00 0. -1.
         11    1    3    3    0    0  0.70285315379E+01  0.48008491405E+01 -0.70320469266E+01  0.11040746896E+02  0.00000000000E+00 0. -1.
        -12    1    3    3    0    0 -0.57302144170E+02  0.38208228409E+01 -0.68910233349E+03  0.69149125839E+03  0.00000000000E+00 0.  1.
          5    1    4    4  501    0  0.46401905651E+02 -0.27160638179E+02 -0.58031131739E+02  0.79220715505E+02  0.41800000000E+01 0. -1.
         -5    1    4    4    0  501  0.65316627382E+02  0.26482831552E+02  0.53456215366E+02  0.88558689810E+02  0.41800000000E+01 0. -1.
</event>
<event>
11    1  0.6455215E-009  0.2405466E+03  0.7561462E-02  0.1029059E+00
         22   -1    0    0    0    0  0.00000000000E+00  0.00000000000E+00  0.15017678773E+04  0.15017678773E+04  0.00000000000E+00 0.  1.
         22   -1    0    0    0    0 -0.00000000000E+00 -0.00000000000E+00 -0.52007829167E+03  0.52007829167E+03  0.00000000000E+00 0. -1.
        -24    2    1    2    0    0 -0.70064415078E+02 -0.22867573807E+02 -0.46144678710E+03  0.47398034427E+03  0.79323900765E+02 0.  0.
         25    2    1    2    0    0 -0.95262141925E+02 -0.12204577125E+03  0.19936038146E+03  0.28171344550E+03  0.12509139744E+03 0.  0.
         24    2    1    2    0    0  0.16532655700E+03  0.14491334506E+03  0.12437759912E+04  0.12661523792E+04  0.88489450533E+02 0.  0.
        -11    1    5    5    0    0  0.17331137500E+03  0.14656747640E+03  0.11612560532E+04  0.11832305265E+04  0.00000000000E+00 0.  1.
         12    1    5    5    0    0 -0.79848179937E+01 -0.16541313399E+01  0.82519938034E+02  0.82921852620E+02  0.00000000000E+00 0. -1.
         11    1    3    3    0    0 -0.34952011406E+02 -0.74091078289E+01 -0.39964547450E+03  0.40123938400E+03  0.00000000000E+00 0. -1.
        -12    1    3    3    0    0 -0.35112403672E+02 -0.15458465978E+02 -0.61801312603E+02  0.72740960273E+02  0.00000000000E+00 0.  1.
          5    1    4    4  501    0 -0.85862775945E+02 -0.14396689275E+03  0.19487827758E+03  0.25708733530E+03  0.41800000000E+01 0.  1.
         -5    1    4    4    0  501 -0.93993659799E+01  0.21921121495E+02  0.44821038866E+01  0.24626110201E+02  0.41800000000E+01 0.  1.
</event>
<event>
11    1  0.6455215E-009  0.1476340E+03  0.7561462E-02  0.1099321E+00
         22   -1    0    0    0    0  0.00000000000E+00  0.00000000000E+00  0.91154940438E+03  0.91154940438E+03  0.00000000000E+00 0.  1.
         22   -1    0    0    0    0 -0.00000000000E+00 -0.00000000000E+00 -0.11420624180E+03  0.11420624180E+03  0.00000000000E+00 0. -1.
         24    2    1    2    0    0  0.10982665299E+02 -0.45136752427E+01 -0.59236756068E+02  0.10159661183E+03  0.81681613997E+02 0.  0.
         25    2    1    2    0    0  0.67938752060E+02  0.16037307704E+02  0.14549156126E+03  0.20417428586E+03  0.12508587185E+03 0.  0.
        -24    2    1    2    0    0 -0.78921417359E+02 -0.11523632462E+02  0.71108835739E+03  0.71998474849E+03  0.79812291119E+02 0.  0.
        -11    1    3    3    0    0 -0.27185570990E+02 -0.26920292499E+02 -0.28634172488E+02  0.47787793968E+02  0.00000000000E+00 0.  1.
         12    1    3    3    0    0  0.38168236289E+02  0.22406617256E+02 -0.30602583580E+02  0.53808817865E+02  0.00000000000E+00 0. -1.
         13    1    5    5    0    0 -0.32834366461E+02 -0.15839215361E+02  0.89002287816E+02  0.96178914532E+02  0.00000000000E+00 0. -1.
        -14    1    5    5    0    0 -0.46087050897E+02  0.43155828996E+01  0.62208606958E+03  0.62380583395E+03  0.00000000000E+00 0.  1.
          5    1    4    4  501    0  0.97376572093E+02  0.76479802289E+01  0.63557396436E+02  0.11660919104E+03  0.41800000000E+01 0. -1.
         -5    1    4    4    0  501 -0.29437820033E+02  0.83893274753E+01  0.81934164825E+02  0.87565094812E+02  0.41800000000E+01 0. -1.
</event>
<event>
11    1  0.6455215E-009  0.1808846E+03  0.7561462E-02  0.1068930E+00
         22   -1    0    0    0    0  0.00000000000E+00  0.00000000000E+00  0.40199000702E+03  0.40199000702E+03  0.00000000000E+00 0.  1.
         22   -1    0    0    0    0 -0.00000000000E+00 -0.00000000000E+00 -0.24479901717E+04  0.24479901717E+04  0.00000000000E+00 0. -1.
         24    2    1    2    0    0 -0.63394742178E+02 -0.11381991383E+01 -0.22014793533E+04  0.22036945697E+04  0.75751071036E+02 0.  0.
         25    2    1    2    0    0  0.37063119219E+02  0.12987508097E+03 -0.19112221388E+03  0.26535815651E+03  0.12508412818E+03 0.  0.
        -24    2    1    2    0    0  0.26331622960E+02 -0.12873688183E+03  0.34660140252E+03  0.38092745248E+03  0.87787543043E+02 0.  0.
        -11    1    3    3    0    0  0.11595925219E+02  0.89353479222E+01 -0.83038293319E+03  0.83051196358E+03  0.00000000000E+00 0.  1.
         12    1    3    3    0    0 -0.74990667397E+02 -0.10073547061E+02 -0.13710964201E+04  0.13731826061E+04  0.00000000000E+00 0. -1.
         11    1    5    5    0    0  0.72093936425E+00 -0.26322940939E+02  0.19153800559E+03  0.19333966112E+03  0.00000000000E+00 0. -1.
        -12    1    5    5    0    0  0.25610683595E+02 -0.10241394089E+03  0.15506339693E+03  0.18758779137E+03  0.00000000000E+00 0.  1.
          5    1    4    4  501    0 -0.23933719274E+02 -0.10557153253E+02 -0.52378545513E+02  0.58696344292E+02  0.41800000000E+01 0.  1.
         -5    1    4    4    0  501  0.60996838493E+02  0.14043223422E+03 -0.13874366837E+03  0.20666181221E+03  0.41800000000E+01 0.  1.
</event>
<event>
11    1  0.6455215E-009  0.1461958E+03  0.7561462E-02  0.1100830E+00
         22   -1    0    0    0    0  0.00000000000E+00  0.00000000000E+00  0.11234957821E+04  0.11234957821E+04  0.00000000000E+00 0.  1.
         22   -1    0    0    0    0 -0.00000000000E+00 -0.00000000000E+00 -0.16925987298E+03  0.16925987298E+03  0.00000000000E+00 0. -1.
         24    2    1    2    0    0 -0.31799695628E+01  0.64670827837E+02 -0.99624791458E+02  0.14384657696E+03  0.81082121641E+02 0.  0.
         25    2    1    2    0    0 -0.64011209236E+02 -0.25174025973E+02  0.70455707348E+02  0.15919415967E+03  0.12509039644E+03 0.  0.
        -24    2    1    2    0    0  0.67191178799E+02 -0.39496801864E+02  0.98340499319E+03  0.98971491841E+03  0.79847274500E+02 0.  0.
        -13    1    3    3    0    0  0.13109095734E+02 -0.55083686678E+01  0.64541236052E+01  0.15615576450E+02  0.00000000000E+00 0.  1.
         14    1    3    3    0    0 -0.16289065297E+02  0.70179196504E+02 -0.10607891506E+03  0.12823100051E+03  0.00000000000E+00 0. -1.
         13    1    5    5    0    0 -0.14862651657E+01 -0.31021184459E+02  0.13653991607E+03  0.14002739571E+03  0.00000000000E+00 0. -1.
        -14    1    5    5    0    0  0.68677443965E+02 -0.84756174051E+01  0.84686507712E+03  0.84968752270E+03  0.00000000000E+00 0.  1.
          5    1    4    4  501    0 -0.13569336696E+02  0.15010851070E+02  0.89472358242E+02  0.91827162853E+02  0.41800000000E+01 0.  1.
         -5    1    4    4    0  501 -0.50441872541E+02 -0.40184877043E+02 -0.19016650894E+02  0.67366996813E+02  0.41800000000E+01 0.  1.
</event>
<event>
11    1  0.6455215E-009  0.1863702E+03  0.7561462E-02  0.1064603E+00
         22   -1    0    0    0    0  0.00000000000E+00  0.00000000000E+00  0.85470666406E+03  0.85470666406E+03  0.00000000000E+00 0. -1.
         22   -1    0    0    0    0 -0.00000000000E+00 -0.00000000000E+00 -0.17056161351E+04  0.17056161351E+04  0.00000000000E+00 0.  1.
        -24    2    1    2    0    0 -0.83505369037E+01 -0.42961155584E+02 -0.15414618454E+04  0.15441734895E+04  0.80322802515E+02 0.  0.
         25    2    1    2    0    0 -0.13014171688E+03  0.36193776916E+02 -0.99932205164E+02  0.20947654153E+03  0.12508844815E+03 0.  0.
         24    2    1    2    0    0  0.13849225378E+03  0.67673786672E+01  0.79048457945E+03  0.80667276818E+03  0.81419793638E+02 0.  0.
        -13    1    5    5    0    0  0.11473650245E+02  0.25429821607E+02  0.81092835857E+02  0.85757614846E+02  0.00000000000E+00 0.  1.
         14    1    5    5    0    0  0.12701860354E+03 -0.18662442940E+02  0.70939174359E+03  0.72091515333E+03  0.00000000000E+00 0. -1.
         13    1    3    3    0    0 -0.22188268603E+02 -0.76731357355E+01 -0.12388648686E+03  0.12609146641E+03  0.00000000000E+00 0. -1.
        -14    1    3    3    0    0  0.13837731699E+02 -0.35288019848E+02 -0.14175753585E+04  0.14180820231E+04  0.00000000000E+00 0.  1.
          5    1    4    4  501    0 -0.59887943431E+02  0.79777264815E+02 -0.41359454919E+02  0.10806967503E+03  0.41800000000E+01 0.  1.
         -5    1    4    4    0  501 -0.70253773448E+02 -0.43583487899E+02 -0.58572750245E+02  0.10140686650E+03  0.41800000000E+01 0.  1.
</event>
<event>
11    1  0.6455215E-009  0.1460431E+03  0.7561462E-02  0.1100992E+00
         22   -1    0    0    0    0  0.00000000000E+00  0.00000000000E+00  0.76783697005E+02  0.76783697005E+02  0.00000000000E+00 0.  1.
         22   -1    0    0    0    0 -0.00000000000E+00 -0.00000000000E+00 -0.10586879179E+04  0.10586879179E+04  0.00000000000E+00 0.  1.
         24    2    1    2    0    0  0.24251059897E+02  0.25804004410E+02 -0.66227053097E+03  0.66818694178E+03  0.81348462951E+02 0.  0.
         25    2    1    2    0    0 -0.89144672094E+01  0.52086106721E+02 -0.32694074698E+03  0.35401678576E+03  0.12508078319E+03 0.  0.
        -24    2    1    2    0    0 -0.15336592687E+02 -0.77890111131E+02  0.73070570437E+01  0.11326788738E+03  0.80462045348E+02 0.  0.
        -13    1    3    3    0    0  0.26133466985E+02 -0.18590614298E+02 -0.45887183697E+03  0.45999123013E+03  0.00000000000E+00 0.  1.
         14    1    3    3    0    0 -0.18824070885E+01  0.44394618708E+02 -0.20339869400E+03  0.20819571165E+03  0.00000000000E+00 0. -1.
         13    1    5    5    0    0  0.37979070353E+01 -0.66404920084E+02 -0.27456458913E+02  0.71957589212E+02  0.00000000000E+00 0. -1.
        -14    1    5    5    0    0 -0.19134499723E+02 -0.11485191047E+02  0.34763515956E+02  0.41310298167E+02  0.00000000000E+00 0.  1.
          5    1    4    4  501    0  0.27931105508E+02  0.43372760551E+02 -0.42314932994E+02  0.66853339236E+02  0.41800000000E+01 0. -1.
         -5    1    4    4    0  501 -0.36845572717E+02  0.87133461697E+01 -0.28462581399E+03  0.28716344652E+03  0.41800000000E+01 0. -1.
</event>
<event>
11    1  0.6455215E-009  0.1528259E+03  0.7561462E-02  0.1094026E+00
         22   -1    0    0    0    0  0.00000000000E+00  0.00000000000E+00  0.25895475371E+03  0.25895475371E+03  0.00000000000E+00 0.  1.
         22   -1    0    0    0    0 -0.00000000000E+00 -0.00000000000E+00 -0.73420778107E+03  0.73420778107E+03  0.00000000000E+00 0. -1.
        -24    2    1    2    0    0 -0.28018945026E+02 -0.42634520812E+02 -0.41745080094E+03  0.42838245966E+03  0.81508262702E+02 0.  0.
         25    2    1    2    0    0 -0.17559079322E+02 -0.35289665963E+02 -0.28162610612E+03  0.31066784626E+03  0.12509022847E+03 0.  0.
         24    2    1    2    0    0  0.45578024348E+02  0.77924186775E+02  0.22382387970E+03  0.25411222887E+03  0.79538421835E+02 0.  0.
        -11    1    5    5    0    0  0.41505667785E+02  0.88310188443E+02  0.22240172625E+03  0.24286609002E+03  0.00000000000E+00 0.  1.
         12    1    5    5    0    0  0.40723565637E+01 -0.10386001668E+02  0.14221534508E+01  0.11246138851E+02  0.00000000000E+00 0. -1.
         11    1    3    3    0    0 -0.32629232265E+01  0.18316724007E+02 -0.20830010344E+03  0.20912934308E+03  0.00000000000E+00 0. -1.
        -12    1    3    3    0    0 -0.24756021800E+02 -0.60951244819E+02 -0.20915069751E+03  0.21925311658E+03  0.00000000000E+00 0.  1.
          5    1    4    4  501    0 -0.39493592051E+02 -0.75175813298E+02 -0.17101597189E+03  0.19098450659E+03  0.41800000000E+01 0. -1.
         -5    1    4    4    0  501  0.21934512729E+02  0.39886147334E+02 -0.11061013423E+03  0.11968333966E+03  0.41800000000E+01 0. -1.
</event>
<event>
11    1  0.6455215E-009  0.1432750E+03  0.7561462E-02  0.1103955E+00
         22   -1    0    0    0    0  0.00000000000E+00  0.00000000000E+00  0.16309272539E+04  0.16309272539E+04  0.00000000000E+00 0.  1.
         22   -1    0    0    0    0 -0.00000000000E+00 -0.00000000000E+00 -0.71447339304E+02  0.71447339304E+02  0.00000000000E+00 0. -1.
         24    2    1    2    0    0  0.15364622852E+02 -0.69098687164E+02 -0.44359227904E+01  0.10583618200E+03  0.78555202290E+02 0.  0.
         25    2    1    2    0    0  0.21451440352E+02  0.68504430070E+02  0.33773317130E+03  0.36723957646E+03  0.12509272679E+03 0.  0.
        -24    2    1    2    0    0 -0.36816063204E+02  0.59425709441E+00  0.12261826661E+04  0.12292988347E+04  0.79346826111E+02 0.  0.
        -13    1    3    3    0    0  0.27657852860E+02 -0.51283910646E+02  0.29713134976E+02  0.65405402728E+02  0.00000000000E+00 0.  1.
         14    1    3    3    0    0 -0.12293230008E+02 -0.17814776519E+02 -0.34149057766E+02  0.40430779275E+02  0.00000000000E+00 0. -1.
         11    1    5    5    0    0  0.12448319814E+02 -0.27553515945E+02  0.36583729573E+03  0.36708457316E+03  0.00000000000E+00 0. -1.
        -12    1    5    5    0    0 -0.49264383018E+02  0.28147773040E+02  0.86034537033E+03  0.86221426154E+03  0.00000000000E+00 0.  1.
          5    1    4    4  501    0  0.18291989216E+02 -0.17086165876E+02  0.22069619164E+03  0.22215043403E+03  0.41800000000E+01 0. -1.
         -5    1    4    4    0  501  0.31594511352E+01  0.85590595946E+02  0.11703697965E+03  0.14508914243E+03  0.41800000000E+01 0. -1.
</event>
<event>
11    1  0.6455215E-009  0.1291011E+03  0.7561462E-02  0.1120378E+00
         22   -1    0    0    0    0  0.00000000000E+00  0.00000000000E+00  0.53965734114E+03  0.53965734114E+03  0.00000000000E+00 0. -1.
         22   -1    0    0    0    0 -0.00000000000E+00 -0.00000000000E+00 -0.60854659808E+03  0.60854659808E+03  0.00000000000E+00 0.  1.
         24    2    1    2    0    0 -0.21241510186E+02 -0.24057483550E+02 -0.55249486641E+03  0.55930180592E+03  0.80857704826E+02 0.  0.
         25    2    1    2    0    0  0.20132023498E+02  0.20788395094E+02  0.35366195875E+02  0.13316636897E+03  0.12508020736E+03 0.  0.
        -24    2    1    2    0    0  0.11094866876E+01  0.32690884561E+01  0.44823941359E+03  0.45573576433E+03  0.82247170725E+02 0.  0.
        -13    1    3    3    0    0  0.13697177512E+02 -0.34844643565E+02 -0.42559776820E+03  0.42724140969E+03  0.00000000000E+00 0.  1.
         14    1    3    3    0    0 -0.34938687697E+02  0.10787160015E+02 -0.12689709821E+03  0.13206039624E+03  0.00000000000E+00 0. -1.
         13    1    5    5    0    0  0.30733188983E+02 -0.21386139194E+02  0.30901647201E+03  0.31127652630E+03  0.00000000000E+00 0. -1.
        -14    1    5    5    0    0 -0.29623702296E+02  0.24655227650E+02  0.13922294158E+03  0.14445923803E+03  0.00000000000E+00 0.  1.
          5    1    4    4  501    0  0.32379792182E+01  0.66223786208E+02  0.49101222288E+02  0.82610391594E+02  0.41800000000E+01 0.  1.
         -5    1    4    4    0  501  0.16894044280E+02 -0.45435391114E+02 -0.13735026413E+02  0.50555977375E+02  0.41800000000E+01 0.  1.
</event>
<event>
11    1  0.6455215E-009  0.1429156E+03  0.7561462E-02  0.1104346E+00
         22   -1    0    0    0    0  0.00000000000E+00  0.00000000000E+00  0.13748852251E+04  0.13748852251E+04  0.00000000000E+00 0. -1.
         22   -1    0    0    0    0 -0.00000000000E+00 -0.00000000000E+00 -0.49336411594E+03  0.49336411594E+03  0.00000000000E+00 0. -1.
        -24    2    1    2    0    0  0.47895591548E+02  0.14160603244E+02 -0.45476905809E+03  0.46450262629E+03  0.80332330119E+02 0.  0.
         25    2    1    2    0    0  0.23654069278E+02 -0.30626033243E+01  0.97264565175E+02  0.16023988518E+03  0.12509009006E+03 0.  0.
         24    2    1    2    0    0 -0.71549660826E+02 -0.11097999920E+02  0.12390256021E+04  0.12435068296E+04  0.76695978068E+02 0.  0.
        -11    1    5    5    0    0 -0.70052944587E+01  0.28099018898E+02  0.27198363384E+03  0.27352097925E+03  0.00000000000E+00 0.  1.
         12    1    5    5    0    0 -0.64544366367E+02 -0.39197018817E+02  0.96704196826E+03  0.96998585036E+03  0.00000000000E+00 0. -1.
         11    1    3    3    0    0 -0.10752626823E+01 -0.28821529264E+02 -0.16460504729E+03  0.16711271146E+03  0.00000000000E+00 0. -1.
        -12    1    3    3    0    0  0.48970854230E+02  0.42982132508E+02 -0.29016401080E+03  0.29738991483E+03  0.00000000000E+00 0.  1.
          5    1    4    4  501    0  0.35156499338E+02  0.22036877716E-01 -0.21093027553E+02  0.41211262328E+02  0.41800000000E+01 0. -1.
         -5    1    4    4    0  501 -0.11502430060E+02 -0.30846402020E+01  0.11835759273E+03  0.11902862285E+03  0.41800000000E+01 0. -1.
</event>
<event>
11    1  0.6455215E-009  0.1440058E+03  0.7561462E-02  0.1103166E+00
         22   -1    0    0    0    0  0.00000000000E+00  0.00000000000E+00  0.30430050599E+03  0.30430050599E+03  0.00000000000E+00 0.  1.
         22   -1    0    0    0    0 -0.00000000000E+00 -0.00000000000E+00 -0.40862947791E+03  0.40862947791E+03  0.00000000000E+00 0. -1.
         24    2    1    2    0    0  0.95658953001E+01  0.16867512582E+01 -0.26751770978E+03  0.27982912416E+03  0.81512343822E+02 0.  0.
         25    2    1    2    0    0 -0.48457100439E-01 -0.72397636731E+02 -0.81402008721E+02  0.16585945740E+03  0.12506659199E+03 0.  0.
        -24    2    1    2    0    0 -0.95174381997E+01  0.70710885473E+02  0.24459074659E+03  0.26724140234E+03  0.80639462153E+02 0.  0.
        -13    1    3    3    0    0 -0.38748614141E+01  0.27232478028E+02 -0.30545726750E+02  0.41105520715E+02  0.00000000000E+00 0.  1.
         14    1    3    3    0    0  0.13440756714E+02 -0.25545726770E+02 -0.23697198303E+03  0.23872360344E+03  0.00000000000E+00 0. -1.
         11    1    5    5    0    0  0.10029004996E+02 -0.14900987785E+02  0.25354795390E+02  0.31072271038E+02  0.00000000000E+00 0. -1.
        -12    1    5    5    0    0 -0.19546443196E+02  0.85611873258E+02  0.21923595120E+03  0.23616913130E+03  0.00000000000E+00 0.  1.
          5    1    4    4  501    0 -0.10064811439E+02 -0.50979231690E+02  0.24262819382E+02  0.57500776494E+02  0.41800000000E+01 0.  1.
         -5    1    4    4    0  501  0.10016354338E+02 -0.21418405041E+02 -0.10566482810E+03  0.10835868090E+03  0.41800000000E+01 0.  1.
</event>
<event>
11    1  0.6455215E-009  0.1791997E+03  0.7561462E-02  0.1070292E+00
         22   -1    0    0    0    0  0.00000000000E+00  0.00000000000E+00  0.47689550166E+03  0.47689550166E+03  0.00000000000E+00 0. -1.
         22   -1    0    0    0    0 -0.00000000000E+00 -0.00000000000E+00 -0.21725903379E+04  0.21725903379E+04  0.00000000000E+00 0.  1.
         24    2    1    2    0    0 -0.93466231727E+01  0.46178824234E+02 -0.20575195937E+04  0.20595446242E+04  0.78213409139E+02 0.  0.
         25    2    1    2    0    0 -0.11702583537E+03 -0.12195341660E+02 -0.25610832202E+02  0.17363192485E+03  0.12509339751E+03 0.  0.
        -24    2    1    2    0    0  0.12637245854E+03 -0.33983482574E+02  0.38743558967E+03  0.41630929052E+03  0.77988549604E+02 0.  0.
        -13    1    3    3    0    0  0.33825757155E+02  0.11190583411E+02 -0.85350981882E+03  0.85425313685E+03  0.00000000000E+00 0.  1.
         14    1    3    3    0    0 -0.43172380328E+02  0.34988240823E+02 -0.12040097749E+04  0.12052914874E+04  0.00000000000E+00 0. -1.
         13    1    5    5    0    0  0.96047579601E+02  0.11945414598E+02  0.23019483568E+03  0.24971482305E+03  0.00000000000E+00 0. -1.
        -14    1    5    5    0    0  0.30324878941E+02 -0.45928897172E+02  0.15724075398E+03  0.16659446747E+03  0.00000000000E+00 0.  1.
          5    1    4    4  501    0 -0.11418566458E+03  0.21573738922E+02 -0.54952212110E+02  0.12861185879E+03  0.41800000000E+01 0. -1.
         -5    1    4    4    0  501 -0.28401707940E+01 -0.33769080582E+02  0.29341379908E+02  0.45020066064E+02  0.41800000000E+01 0. -1.
</event>
<event>
11    1  0.6455215E-009  0.1544670E+03  0.7561462E-02  0.1092400E+00
         22   -1    0    0    0    0  0.00000000000E+00  0.00000000000E+00  0.12357373618E+03  0.12357373618E+03  0.00000000000E+00 0. -1.
         22   -1    0    0    0    0 -0.00000000000E+00 -0.00000000000E+00 -0.12671143508E+04  0.12671143508E+04  0.00000000000E+00 0. -1.
         24    2    1    2    0    0 -0.55039741052E+02  0.12507735337E+02 -0.96964999148E+03  0.97453028682E+03  0.79387388303E+02 0.  0.
         25    2    1    2    0    0  0.12955348489E+03  0.21755584997E+02 -0.20551359691E+03  0.27411846492E+03  0.12509070057E+03 0.  0.
        -24    2    1    2    0    0 -0.74513743838E+02 -0.34263320334E+02  0.31622973809E+02  0.14203933519E+03  0.11157458101E+03 0.  0.
        -11    1    3    3    0    0 -0.51848558378E+02  0.36912650935E+02 -0.47196979016E+03  0.47624184994E+03  0.00000000000E+00 0.  1.
         12    1    3    3    0    0 -0.31911826733E+01 -0.24404915598E+02 -0.49768020131E+03  0.49828843688E+03  0.00000000000E+00 0. -1.
         13    1    5    5    0    0  0.27970680309E+02  0.49588380923E+01  0.25573145257E+01  0.28521726627E+02  0.00000000000E+00 0. -1.
        -14    1    5    5    0    0 -0.10248442415E+03 -0.39222158426E+02  0.29065659283E+02  0.11351760856E+03  0.00000000000E+00 0.  1.
          5    1    4    4  501    0  0.13355245015E+03  0.46184897529E+02 -0.20498341210E+03  0.24900797846E+03  0.41800000000E+01 0.  1.
         -5    1    4    4    0  501 -0.39989652614E+01 -0.24429312532E+02 -0.53018480449E+00  0.25110486453E+02  0.41800000000E+01 0.  1.
</event>
<event>
11    1  0.6455215E-009  0.1274388E+03  0.7561462E-02  0.1122456E+00
         22   -1    0    0    0    0  0.00000000000E+00  0.00000000000E+00  0.86759181804E+03  0.86759181804E+03  0.00000000000E+00 0. -1.
         22   -1    0    0    0    0 -0.00000000000E+00 -0.00000000000E+00 -0.18133085168E+03  0.18133085168E+03  0.00000000000E+00 0.  1.
        -24    2    1    2    0    0 -0.20671955321E+02  0.24512006235E+02 -0.11107454631E+03  0.14080188471E+03  0.80370689400E+02 0.  0.
         25    2    1    2    0    0  0.35969543021E+02 -0.41617881369E+02  0.35262825814E+02  0.14112383689E+03  0.12508642764E+03 0.  0.
         24    2    1    2    0    0 -0.15297587700E+02  0.17105875134E+02  0.76207268686E+03  0.76699694811E+03  0.83683398594E+02 0.  0.
        -11    1    5    5    0    0 -0.14771965479E+02 -0.37968522891E+01  0.22814902536E+02  0.27443520713E+02  0.00000000000E+00 0.  1.
         12    1    5    5    0    0 -0.52562222157E+00  0.20902727424E+02  0.73925778432E+03  0.73955342740E+03  0.00000000000E+00 0. -1.
         11    1    3    3    0    0 -0.17920394834E+02  0.27207144913E+02 -0.30637154789E+01  0.32722402690E+02  0.00000000000E+00 0. -1.
        -12    1    3    3    0    0 -0.27515604876E+01 -0.26951386780E+01 -0.10801083083E+03  0.10807948202E+03  0.00000000000E+00 0.  1.
          5    1    4    4  501    0  0.80073639690E+02 -0.14030224636E+02  0.68172944693E+01  0.81685879321E+02  0.41800000000E+01 0. -1.
         -5    1    4    4    0  501 -0.44104096669E+02 -0.27587656733E+02  0.28445531345E+02  0.59437957573E+02  0.41800000000E+01 0. -1.
</event>
<event>
11    1  0.6455215E-009  0.3040984E+03  0.7561462E-02  0.9984715E-01
         22   -1    0    0    0    0  0.00000000000E+00  0.00000000000E+00  0.17004313651E+03  0.17004313651E+03  0.00000000000E+00 0.  1.
         22   -1    0    0    0    0 -0.00000000000E+00 -0.00000000000E+00 -0.98298617427E+03  0.98298617427E+03  0.00000000000E+00 0. -1.
        -24    2    1    2    0    0  0.44439492830E+00 -0.46794770059E+02 -0.29299150216E+03  0.30548575719E+03  0.72715744654E+02 0.  0.
         25    2    1    2    0    0  0.99768607602E+01 -0.24233119271E+03 -0.46959740784E+03  0.54313343526E+03  0.12509299878E+03 0.  0.
         24    2    1    2    0    0 -0.10421255688E+02  0.28912596276E+03 -0.50354127768E+02  0.30441011832E+03  0.80172046475E+02 0.  0.
        -13    1    5    5    0    0 -0.22684944152E+02  0.14101966030E+03  0.11808455354E+02  0.14331989011E+03  0.00000000000E+00 0.  1.
         14    1    5    5    0    0  0.12263688463E+02  0.14810630246E+03 -0.62162583122E+02  0.16109022821E+03  0.00000000000E+00 0. -1.
         13    1    3    3    0    0 -0.30167306849E+01 -0.51155066891E+02 -0.29511241025E+03  0.29952842305E+03  0.00000000000E+00 0. -1.
        -14    1    3    3    0    0  0.34611256132E+01  0.43602968322E+01  0.21209080908E+01  0.59573341441E+01  0.00000000000E+00 0.  1.
          5    1    4    4  501    0  0.49864170730E+02 -0.20497543873E+03 -0.31524623649E+03  0.37934025363E+03  0.41800000000E+01 0.  1.
         -5    1    4    4    0  501 -0.39887309970E+02 -0.37355753976E+02 -0.15435117135E+03  0.16379318164E+03  0.41800000000E+01 0.  1.
</event>
<event>
11    1  0.6455215E-009  0.1437441E+03  0.7561462E-02  0.1103448E+00
         22   -1    0    0    0    0  0.00000000000E+00  0.00000000000E+00  0.25815201006E+03  0.25815201006E+03  0.00000000000E+00 0.  1.
         22   -1    0    0    0    0 -0.00000000000E+00 -0.00000000000E+00 -0.16378983233E+03  0.16378983233E+03  0.00000000000E+00 0.  1.
         24    2    1    2    0    0  0.76461049187E+02  0.14066004133E+02 -0.43619729865E+02  0.11928796573E+03  0.79264073952E+02 0.  0.
         25    2    1    2    0    0  0.46601025101E+01  0.32727953333E+02  0.18471035595E+02  0.13070145643E+03  0.12509538790E+03 0.  0.
        -24    2    1    2    0    0 -0.81121151697E+02 -0.46793957467E+02  0.11951087199E+03  0.17195242023E+03  0.80712270379E+02 0.  0.
        -11    1    3    3    0    0  0.94084180033E+01  0.10423242809E+02 -0.49905187069E+02  0.51842936032E+02  0.00000000000E+00 0.  1.
         12    1    3    3    0    0  0.67052631184E+02  0.36427613240E+01  0.62854572043E+01  0.67445029698E+02  0.00000000000E+00 0. -1.
         13    1    5    5    0    0 -0.87929446444E+01 -0.28293623744E+02 -0.16091257969E+01  0.29672113270E+02  0.00000000000E+00 0. -1.
        -14    1    5    5    0    0 -0.72328207053E+02 -0.18500333722E+02  0.12111999779E+03  0.14228030696E+03  0.00000000000E+00 0.  1.
          5    1    4    4  501    0  0.47457470733E+02  0.61187709463E+02  0.69050464811E+01  0.77854347242E+02  0.41800000000E+01 0.  1.
         -5    1    4    4    0  501 -0.42797368223E+02 -0.28459756129E+02  0.11565989114E+02  0.52847109192E+02  0.41800000000E+01 0.  1.
</event>
<event>
11    1  0.6455215E-009  0.1423650E+03  0.7561462E-02  0.1104946E+00
         22   -1    0    0    0    0  0.00000000000E+00  0.00000000000E+00  0.62322760671E+03  0.62322760671E+03  0.00000000000E+00 0.  1.
         22   -1    0    0    0    0 -0.00000000000E+00 -0.00000000000E+00 -0.14431674625E+04  0.14431674625E+04  0.00000000000E+00 0. -1.
        -24    2    1    2    0    0  0.65913979088E+02 -0.21576045368E+02 -0.13336511632E+04  0.13377962840E+04  0.79140975308E+02 0.  0.
         25    2    1    2    0    0 -0.39662221009E+02  0.75647787781E+01 -0.61281685017E+02  0.14502801331E+03  0.12508941631E+03 0.  0.
         24    2    1    2    0    0 -0.26251758079E+02  0.14011266590E+02  0.57499299250E+03  0.58357077185E+03  0.95144279600E+02 0.  0.
        -11    1    5    5    0    0  0.13603534884E+02  0.20675990016E+02  0.47606881195E+03  0.47671172257E+03  0.00000000000E+00 0.  1.
         12    1    5    5    0    0 -0.39855292963E+02 -0.66647234257E+01  0.98924180545E+02  0.10685904928E+03  0.00000000000E+00 0. -1.
         13    1    3    3    0    0  0.21368253677E+02 -0.27151105397E+02 -0.10538726784E+04  0.10544389063E+04  0.00000000000E+00 0. -1.
        -14    1    3    3    0    0  0.44545725411E+02  0.55750600291E+01 -0.27977848481E+03  0.28335737772E+03  0.00000000000E+00 0.  1.
          5    1    4    4  501    0  0.17573522120E+02 -0.48093608886E+02 -0.27075001898E+02  0.58071955565E+02  0.41800000000E+01 0.  1.
         -5    1    4    4    0  501 -0.57235743129E+02  0.55658387664E+02 -0.34206683119E+02  0.86956057747E+02  0.41800000000E+01 0.  1.
</event>
<event>
11    1  0.6455215E-009  0.3052955E+03  0.7561462E-02  0.9979746E-01
         22   -1    0    0    0    0  0.00000000000E+00  0.00000000000E+00  0.23884056417E+04  0.23884056417E+04  0.00000000000E+00 0. -1.
         22   -1    0    0    0    0 -0.00000000000E+00 -0.00000000000E+00 -0.10999915675E+04  0.10999915675E+04  0.00000000000E+00 0. -1.
         24    2    1    2    0    0 -0.50004740366E+00  0.71822851285E+01 -0.93779600124E+03  0.94105810170E+03  0.77956241340E+02 0.  0.
         25    2    1    2    0    0 -0.25022516516E+03 -0.12804487848E+03  0.54036179512E+01  0.30770846192E+03  0.12508866563E+03 0.  0.
        -24    2    1    2    0    0  0.25072521257E+03  0.12086259335E+03  0.22208064575E+04  0.22396306456E+04  0.80580446643E+02 0.  0.
        -11    1    3    3    0    0  0.30107180705E+02 -0.11807791157E+02 -0.22057260886E+03  0.22293080102E+03  0.00000000000E+00 0.  1.
         12    1    3    3    0    0 -0.30607228108E+02  0.18990076286E+02 -0.71722339237E+03  0.71812730068E+03  0.00000000000E+00 0. -1.
         11    1    5    5    0    0  0.11188019265E+03  0.90842022527E+02  0.12940789144E+04  0.13020789866E+04  0.00000000000E+00 0. -1.
        -12    1    5    5    0    0  0.13884501992E+03  0.30020570821E+02  0.92672754304E+03  0.93755165899E+03  0.00000000000E+00 0.  1.
          5    1    4    4  501    0 -0.95049698079E+02  0.12287102634E+02 -0.16369411958E+02  0.97318282167E+02  0.41800000000E+01 0. -1.
         -5    1    4    4    0  501 -0.15517546708E+03 -0.14033198111E+03  0.21773029909E+02  0.21039017976E+03  0.41800000000E+01 0. -1.
</event>
<event>
11    1  0.6455215E-009  0.1719177E+03  0.7561462E-02  0.1076375E+00
         22   -1    0    0    0    0  0.00000000000E+00  0.00000000000E+00  0.13737276652E+04  0.13737276652E+04  0.00000000000E+00 0. -1.
         22   -1    0    0    0    0 -0.00000000000E+00 -0.00000000000E+00 -0.99337952466E+02  0.99337952466E+02  0.00000000000E+00 0.  1.
         24    2    1    2    0    0 -0.10829641723E+03  0.35765757847E+02  0.46726578138E+01  0.13811675755E+03  0.77763111865E+02 0.  0.
         25    2    1    2    0    0  0.13195521763E+03  0.80433900906E+02  0.34219160678E+03  0.39575819981E+03  0.12509062753E+03 0.  0.
        -24    2    1    2    0    0 -0.23658800403E+02 -0.11619965875E+03  0.92752544812E+03  0.93919066028E+03  0.87826760803E+02 0.  0.
        -11    1    3    3    0    0 -0.44699908565E+02  0.17276578262E+02 -0.36405397317E+02  0.60182347378E+02  0.00000000000E+00 0.  1.
         12    1    3    3    0    0 -0.63596508662E+02  0.18489179585E+02  0.41078055131E+02  0.77934410173E+02  0.00000000000E+00 0. -1.
         13    1    5    5    0    0 -0.87205821883E+00 -0.29806640124E+02  0.56611399828E+03  0.56689880520E+03  0.00000000000E+00 0. -1.
        -14    1    5    5    0    0 -0.22786742184E+02 -0.86393018629E+02  0.36141144983E+03  0.37229185508E+03  0.00000000000E+00 0.  1.
          5    1    4    4  501    0  0.93952045473E+02  0.12028698091E+02  0.28029937461E+03  0.29590013219E+03  0.41800000000E+01 0. -1.
         -5    1    4    4    0  501  0.38003172156E+02  0.68405202815E+02  0.61892232169E+02  0.99858067621E+02  0.41800000000E+01 0. -1.
</event>
<event>
11    1  0.6455215E-009  0.2424371E+03  0.7561462E-02  0.1028007E+00
         22   -1    0    0    0    0  0.00000000000E+00  0.00000000000E+00  0.45253892318E+03  0.45253892318E+03  0.00000000000E+00 0. -1.
         22   -1    0    0    0    0 -0.00000000000E+00 -0.00000000000E+00 -0.18226174160E+04  0.18226174160E+04  0.00000000000E+00 0. -1.
         24    2    1    2    0    0 -0.16078647248E+03 -0.13417215027E+03 -0.15752988054E+04  0.15911580456E+04  0.79769318002E+02 0.  0.
         25    2    1    2    0    0  0.12684785205E+03  0.15145868029E+03 -0.17645360239E+03  0.29294769138E+03  0.12510941884E+03 0.  0.
        -24    2    1    2    0    0  0.33938620430E+02 -0.17286530020E+02  0.38167391494E+03  0.39105060224E+03  0.76124516973E+02 0.  0.
        -11    1    3    3    0    0 -0.76476620441E+02 -0.22716103380E+02 -0.73503077641E+03  0.73934764293E+03  0.00000000000E+00 0.  1.
         12    1    3    3    0    0 -0.84309852044E+02 -0.11145604689E+03 -0.84026802900E+03  0.85181040267E+03  0.00000000000E+00 0. -1.
         13    1    5    5    0    0 -0.16392888386E+01 -0.36094897270E+02  0.26879093952E+03  0.27120858770E+03  0.00000000000E+00 0. -1.
        -14    1    5    5    0    0  0.35577909269E+02  0.18808367250E+02  0.11288297543E+03  0.11984201454E+03  0.00000000000E+00 0.  1.
          5    1    4    4  501    0 -0.20258166259E+02  0.52485646912E+02 -0.39388383187E+02  0.68804458882E+02  0.41800000000E+01 0.  1.
         -5    1    4    4    0  501  0.14710601831E+03  0.98973033380E+02 -0.13706521921E+03  0.22414323250E+03  0.41800000000E+01 0.  1.
</event>
<event>
11    1  0.9920159E-009  0.1730966E+03  0.7561462E-02  0.1075368E+00
         22   -1    0    0    0    0  0.00000000000E+00  0.00000000000E+00  0.17798026542E+04  0.17798026542E+04  0.00000000000E+00 0. -1.
         22   -1    0    0    0    0 -0.00000000000E+00 -0.00000000000E+00 -0.15639194472E+03  0.15639194472E+03  0.00000000000E+00 0.  1.
        -24    2    1    2    0    0 -0.24893410523E+02  0.95848957367E+02 -0.23981092214E+02  0.13081319051E+03  0.82038366093E+02 0.  0.
         25    2    1    2    0    0 -0.76577438400E+02 -0.15689335016E+03  0.76555841200E+02  0.22800919461E+03  0.12509104128E+03 0.  0.
         24    2    1    2    0    0  0.10147084892E+03  0.61044392796E+02  0.15708359605E+04  0.15773722138E+04  0.80961317838E+02 0.  0.
        -11    1    5    5    0    0  0.63413800665E+02  0.28168264704E+02  0.44171780343E+03  0.44713463198E+03  0.00000000000E+00 0.  1.
         12    1    5    5    0    0  0.38057048258E+02  0.32876128092E+02  0.11291181571E+04  0.11302375818E+04  0.00000000000E+00 0. -1.
         13    1    3    3    0    0 -0.43239347096E+01 -0.29475912392E+01  0.20041851983E+02  0.20713776488E+02  0.00000000000E+00 0. -1.
        -14    1    3    3    0    0 -0.20569475813E+02  0.98796548607E+02 -0.44022944197E+02  0.11009941402E+03  0.00000000000E+00 0.  1.
          5    1    4    4  501    0 -0.58016332719E+02 -0.20526900296E+02  0.65355759265E+02  0.89867102808E+02  0.41800000000E+01 0. -1.
         -5    1    4    4    0  501 -0.18561105681E+02 -0.13636644987E+03  0.11200081935E+02  0.13814209181E+03  0.41800000000E+01 0. -1.
</event>
<event>
11    1  0.6455215E-009  0.1654937E+03  0.7561462E-02  0.1082021E+00
         22   -1    0    0    0    0  0.00000000000E+00  0.00000000000E+00  0.34687105538E+03  0.34687105538E+03  0.00000000000E+00 0.  1.
         22   -1    0    0    0    0 -0.00000000000E+00 -0.00000000000E+00 -0.13450590017E+04  0.13450590017E+04  0.00000000000E+00 0.  1.
         24    2    1    2    0    0  0.15850240009E+02 -0.57270208739E+02 -0.12380589099E+04  0.12434186082E+04  0.98837563764E+02 0.  0.
         25    2    1    2    0    0 -0.80311652040E+02  0.13258889419E+03  0.27912738733E+02  0.20113627823E+03  0.12508758979E+03 0.  0.
        -24    2    1    2    0    0  0.64461412032E+02 -0.75318685451E+02  0.21195822479E+03  0.24737517067E+03  0.80249660371E+02 0.  0.
        -13    1    3    3    0    0 -0.25736338601E+02 -0.54004663304E+02 -0.99573313436E+03  0.99752861495E+03  0.00000000000E+00 0.  1.
         14    1    3    3    0    0  0.41586578609E+02 -0.32655454350E+01 -0.24232577553E+03  0.24588999328E+03  0.00000000000E+00 0. -1.
         13    1    5    5    0    0 -0.13803044947E+01  0.15005601326E+02  0.34524640595E+02  0.37669936552E+02  0.00000000000E+00 0. -1.
        -14    1    5    5    0    0  0.65841716526E+02 -0.90324286777E+02  0.17743358419E+03  0.20970523412E+03  0.00000000000E+00 0.  1.
          5    1    4    4  501    0 -0.91991612749E+02  0.56510365273E+02  0.52639271848E+02  0.12018420670E+03  0.41800000000E+01 0. -1.
         -5    1    4    4    0  501  0.11679960709E+02  0.76078528917E+02 -0.24726533114E+02  0.80952071525E+02  0.41800000000E+01 0. -1.
</event>
<event>
11    1  0.6455215E-009  0.1581490E+03  0.7561462E-02  0.1088831E+00
         22   -1    0    0    0    0  0.00000000000E+00  0.00000000000E+00  0.41352240511E+03  0.41352240511E+03  0.00000000000E+00 0.  1.
         22   -1    0    0    0    0 -0.00000000000E+00 -0.00000000000E+00 -0.26480670170E+03  0.26480670170E+03  0.00000000000E+00 0. -1.
         24    2    1    2    0    0  0.11664750816E+02 -0.10014635681E+03 -0.13335276476E+03  0.18555613204E+03  0.80515582813E+02 0.  0.
         25    2    1    2    0    0 -0.39612962884E+02  0.81981476765E+02 -0.39531062566E+02  0.15969074726E+03  0.12509308730E+03 0.  0.
        -24    2    1    2    0    0  0.27948212068E+02  0.18164880047E+02  0.32159953073E+03  0.33308222751E+03  0.80040281685E+02 0.  0.
        -13    1    3    3    0    0 -0.35667008600E+01 -0.82054017248E+02 -0.44098302465E+02  0.93221474896E+02  0.00000000000E+00 0.  1.
         14    1    3    3    0    0  0.15231451676E+02 -0.18092339564E+02 -0.89254462294E+02  0.92334657147E+02  0.00000000000E+00 0. -1.
         13    1    5    5    0    0 -0.13853076778E+02  0.10349559968E+02  0.13174020122E+02  0.21738811695E+02  0.00000000000E+00 0. -1.
        -14    1    5    5    0    0  0.41801288846E+02  0.78153200794E+01  0.30842551061E+03  0.31134341581E+03  0.00000000000E+00 0.  1.
          5    1    4    4  501    0  0.21078597923E+02  0.78081708366E+01 -0.57691285271E+02  0.62056680691E+02  0.41800000000E+01 0. -1.
         -5    1    4    4    0  501 -0.60691560807E+02  0.74173305928E+02  0.18160222705E+02  0.97634066566E+02  0.41800000000E+01 0. -1.
</event>
<event>
11    1  0.6455215E-009  0.2199494E+03  0.7561462E-02  0.1041249E+00
         22   -1    0    0    0    0  0.00000000000E+00  0.00000000000E+00  0.83767036977E+03  0.83767036977E+03  0.00000000000E+00 0.  1.
         22   -1    0    0    0    0 -0.00000000000E+00 -0.00000000000E+00 -0.27688680520E+03  0.27688680520E+03  0.00000000000E+00 0.  1.
        -24    2    1    2    0    0 -0.23510344661E+02  0.89238017090E+01 -0.16962383069E+03  0.19083302061E+03  0.83741431049E+02 0.  0.
         25    2    1    2    0    0  0.19600488134E+03 -0.49638667675E+02  0.89143813837E+02  0.25392065002E+03  0.12508863305E+03 0.  0.
         24    2    1    2    0    0 -0.17249453668E+03  0.40714865966E+02  0.64126358142E+03  0.66980350435E+03  0.77496374611E+02 0.  0.
        -11    1    5    5    0    0 -0.16258847724E+03  0.48802743715E+02  0.50140761549E+03  0.52936406905E+03  0.00000000000E+00 0.  1.
         12    1    5    5    0    0 -0.99060594424E+01 -0.80878777493E+01  0.13985596593E+03  0.14043943530E+03  0.00000000000E+00 0. -1.
         13    1    3    3    0    0 -0.97372057652E+01  0.32632861475E+02 -0.21680625570E+02  0.40370364740E+02  0.00000000000E+00 0. -1.
        -14    1    3    3    0    0 -0.13773138896E+02 -0.23709059766E+02 -0.14794320512E+03  0.15046265587E+03  0.00000000000E+00 0.  1.
          5    1    4    4  501    0  0.63332539385E+01 -0.41822738683E+02 -0.34943813730E+01  0.42648970416E+02  0.41800000000E+01 0.  1.
         -5    1    4    4    0  501  0.18967162741E+03 -0.78159289924E+01  0.92638195210E+02  0.21127167960E+03  0.41800000000E+01 0.  1.
</event>
<event>
11    1  0.6455215E-009  0.1586381E+03  0.7561462E-02  0.1088365E+00
         22   -1    0    0    0    0  0.00000000000E+00  0.00000000000E+00  0.53836239803E+03  0.53836239803E+03  0.00000000000E+00 0. -1.
         22   -1    0    0    0    0 -0.00000000000E+00 -0.00000000000E+00 -0.12178612192E+03  0.12178612192E+03  0.00000000000E+00 0.  1.
         24    2    1    2    0    0  0.83842765771E+02 -0.42064943298E+02 -0.33391940759E+02  0.12810279033E+03  0.80599220575E+02 0.  0.
         25    2    1    2    0    0 -0.10684872320E+03  0.40064242823E+02  0.17022597932E+03  0.24011459679E+03  0.12512530660E+03 0.  0.
        -24    2    1    2    0    0  0.23005957432E+02  0.20007004753E+01  0.27974223754E+03  0.29193113282E+03  0.80217142599E+02 0.  0.
        -11    1    3    3    0    0  0.76687563738E+02 -0.60553856804E+02 -0.42166550445E+02  0.10642260090E+03  0.00000000000E+00 0.  1.
         12    1    3    3    0    0  0.71552020330E+01  0.18488913507E+02  0.87746096860E+01  0.21680189435E+02  0.00000000000E+00 0. -1.
         13    1    5    5    0    0 -0.18793982092E+02  0.22952537862E+02  0.17112844615E+03  0.17368067780E+03  0.00000000000E+00 0. -1.
        -14    1    5    5    0    0  0.41799939524E+02 -0.20951837387E+02  0.10861379139E+03  0.11825045503E+03  0.00000000000E+00 0.  1.
          5    1    4    4  501    0 -0.45028832311E+02  0.60562866701E+02  0.15595928773E+03  0.17330963156E+03  0.41800000000E+01 0. -1.
         -5    1    4    4    0  501 -0.61819890892E+02 -0.20498623878E+02  0.14266691596E+02  0.66804965234E+02  0.41800000000E+01 0. -1.
</event>
<event>
11    1  0.6455215E-009  0.1461283E+03  0.7561462E-02  0.1100902E+00
         22   -1    0    0    0    0  0.00000000000E+00  0.00000000000E+00  0.36690645160E+03  0.36690645160E+03  0.00000000000E+00 0.  1.
         22   -1    0    0    0    0 -0.00000000000E+00 -0.00000000000E+00 -0.85080155908E+03  0.85080155908E+03  0.00000000000E+00 0. -1.
        -24    2    1    2    0    0 -0.80798126301E+01  0.26502348781E+02 -0.62906012820E+03  0.63454443610E+03  0.78500564495E+02 0.  0.
         25    2    1    2    0    0 -0.44916914412E+02  0.28744677800E+02 -0.18794673049E+03  0.23198103068E+03  0.12508972536E+03 0.  0.
         24    2    1    2    0    0  0.52996727043E+02 -0.55247026581E+02  0.33311175121E+03  0.35118254390E+03  0.80652670914E+02 0.  0.
        -11    1    5    5    0    0  0.69549935384E+02 -0.52033817038E+02  0.31353807021E+03  0.32534725002E+03  0.00000000000E+00 0.  1.
         12    1    5    5    0    0 -0.16553208341E+02 -0.32132095433E+01  0.19573680999E+02  0.25835293879E+02  0.00000000000E+00 0. -1.
         13    1    3    3    0    0  0.28567170934E+02  0.10467658977E+02 -0.45196341725E+03  0.45298629744E+03  0.00000000000E+00 0. -1.
        -14    1    3    3    0    0 -0.36646983564E+02  0.16034689804E+02 -0.17709671095E+03  0.18155813865E+03  0.00000000000E+00 0.  1.
          5    1    4    4  501    0  0.21215851036E+02 -0.36305839634E+02 -0.47089629275E+02  0.63270308297E+02  0.41800000000E+01 0. -1.
         -5    1    4    4    0  501 -0.66132765448E+02  0.65050517434E+02 -0.14085710122E+03  0.16871072239E+03  0.41800000000E+01 0. -1.
</event>
<event>
11    1  0.6455215E-009  0.1421946E+03  0.7561462E-02  0.1105132E+00
         22   -1    0    0    0    0  0.00000000000E+00  0.00000000000E+00  0.43173522525E+03  0.43173522525E+03  0.00000000000E+00 0. -1.
         22   -1    0    0    0    0 -0.00000000000E+00 -0.00000000000E+00 -0.12465217921E+04  0.12465217921E+04  0.00000000000E+00 0.  1.
        -24    2    1    2    0    0  0.47047503477E+02  0.47123776212E+02 -0.11452097350E+04  0.11501107044E+04  0.82554087315E+02 0.  0.
         25    2    1    2    0    0 -0.42626560864E+02 -0.93971668592E+02 -0.21915065530E+02  0.16363680190E+03  0.12509610165E+03 0.  0.
         24    2    1    2    0    0 -0.44209426129E+01  0.46847892380E+02  0.35233823374E+03  0.36450951102E+03  0.80688802899E+02 0.  0.
        -11    1    5    5    0    0 -0.22768783791E+02 -0.81825144444E+01  0.39364641489E+02  0.46205476488E+02  0.00000000000E+00 0.  1.
         12    1    5    5    0    0  0.18347841178E+02  0.55030406824E+02  0.31297359225E+03  0.31830403453E+03  0.00000000000E+00 0. -1.
         13    1    3    3    0    0 -0.21085130333E+01  0.88081454236E+01 -0.11264610352E+02  0.14454089366E+02  0.00000000000E+00 0. -1.
        -14    1    3    3    0    0  0.49156016510E+02  0.38315630788E+02 -0.11339451247E+04  0.11356566150E+04  0.00000000000E+00 0.  1.
          5    1    4    4  501    0 -0.79983219795E+02 -0.90238724580E+02 -0.31429920605E+02  0.12468221674E+03  0.41800000000E+01 0. -1.
         -5    1    4    4    0  501  0.37356658931E+02 -0.37329440117E+01  0.95148550750E+01  0.38954585155E+02  0.41800000000E+01 0. -1.
</event>
<event>
11    1  0.6455215E-009  0.1357998E+03  0.7561462E-02  0.1112341E+00
         22   -1    0    0    0    0  0.00000000000E+00  0.00000000000E+00  0.98386354577E+03  0.98386354577E+03  0.00000000000E+00 0.  1.
         22   -1    0    0    0    0 -0.00000000000E+00 -0.00000000000E+00 -0.14858706224E+03  0.14858706224E+03  0.00000000000E+00 0.  1.
        -24    2    1    2    0    0 -0.96521516929E+01 -0.46218124187E+01 -0.11812137780E+03  0.14375081038E+03  0.81222597894E+02 0.  0.
         25    2    1    2    0    0 -0.17290190731E+02  0.50272592298E+02  0.31336778479E+03  0.34157348890E+03  0.12508715180E+03 0.  0.
         24    2    1    2    0    0  0.26942342424E+02 -0.45650779879E+02  0.64003007655E+03  0.64712630873E+03  0.79524065841E+02 0.  0.
        -11    1    5    5    0    0 -0.12758784133E+02  0.71001584287E+01  0.32123000645E+03  0.32156168284E+03  0.00000000000E+00 0.  1.
         12    1    5    5    0    0  0.39701126557E+02 -0.52750938308E+02  0.31880007009E+03  0.32556462589E+03  0.00000000000E+00 0. -1.
         11    1    3    3    0    0 -0.37576424152E+02 -0.21004987230E+02 -0.38325346137E+02  0.57637047956E+02  0.00000000000E+00 0. -1.
        -12    1    3    3    0    0  0.27924272459E+02  0.16383174811E+02 -0.79796031667E+02  0.86113762425E+02  0.00000000000E+00 0.  1.
          5    1    4    4  501    0 -0.69646439394E+02  0.44946396234E+02  0.19869052707E+03  0.21532812868E+03  0.41800000000E+01 0.  1.
         -5    1    4    4    0  501  0.52356248663E+02  0.53261960637E+01  0.11467725772E+03  0.12624536022E+03  0.41800000000E+01 0.  1.
</event>
<event>
11    1  0.6455215E-009  0.1397165E+03  0.7561462E-02  0.1107875E+00
         22   -1    0    0    0    0  0.00000000000E+00  0.00000000000E+00  0.33876994958E+03  0.33876994958E+03  0.00000000000E+00 0.  1.
         22   -1    0    0    0    0 -0.00000000000E+00 -0.00000000000E+00 -0.21207160560E+04  0.21207160560E+04  0.00000000000E+00 0.  1.
         24    2    1    2    0    0 -0.34352964416E+02 -0.51791755188E+02 -0.20335750111E+04  0.20361426661E+04  0.81161066880E+02 0.  0.
         25    2    1    2    0    0  0.53514071859E+02  0.44641579161E+02 -0.15050788970E+02  0.14397897095E+03  0.12508713503E+03 0.  0.
        -24    2    1    2    0    0 -0.19161107443E+02  0.71501760268E+01  0.26667969363E+03  0.27936436856E+03  0.80672909763E+02 0.  0.
        -13    1    3    3    0    0 -0.42668535575E+02 -0.41439472028E+02 -0.19817887402E+04  0.19826811253E+04  0.00000000000E+00 0.  1.
         14    1    3    3    0    0  0.83155711590E+01 -0.10352283160E+02 -0.51786270913E+02  0.53461540807E+02  0.00000000000E+00 0. -1.
         13    1    5    5    0    0  0.26108626421E+02  0.19203435459E+02  0.15328159763E+03  0.15667061141E+03  0.00000000000E+00 0. -1.
        -14    1    5    5    0    0 -0.45269733865E+02 -0.12053259433E+02  0.11339809600E+03  0.12269375715E+03  0.00000000000E+00 0.  1.
          5    1    4    4  501    0 -0.11639361966E+02 -0.30311328954E+02  0.20253069246E+02  0.38495592264E+02  0.41800000000E+01 0.  1.
         -5    1    4    4    0  501  0.65153433825E+02  0.74952908114E+02 -0.35303858215E+02  0.10548337869E+03  0.41800000000E+01 0.  1.
</event>
<event>
11    1  0.6455215E-009  0.1375906E+03  0.7561462E-02  0.1110279E+00
         22   -1    0    0    0    0  0.00000000000E+00  0.00000000000E+00  0.50571203474E+03  0.50571203474E+03  0.00000000000E+00 0.  1.
         22   -1    0    0    0    0 -0.00000000000E+00 -0.00000000000E+00 -0.49422820975E+03  0.49422820975E+03  0.00000000000E+00 0.  1.
         24    2    1    2    0    0 -0.13868654651E+02  0.53506816606E+02 -0.41929410110E+03  0.43069754657E+03  0.81470942011E+02 0.  0.
         25    2    1    2    0    0  0.28777913595E+02 -0.85776302253E+02  0.28682009123E+02  0.15702326023E+03  0.12509158352E+03 0.  0.
        -24    2    1    2    0    0 -0.14909258945E+02  0.32269485647E+02  0.40209591696E+03  0.41221943769E+03  0.83547188235E+02 0.  0.
        -11    1    3    3    0    0 -0.35081124940E+02  0.26905725147E+02 -0.35691760149E+03  0.35964534979E+03  0.00000000000E+00 0.  1.
         12    1    3    3    0    0  0.21212470290E+02  0.26601091458E+02 -0.62376499619E+02  0.71052196780E+02  0.00000000000E+00 0. -1.
         13    1    5    5    0    0 -0.61461115813E+01  0.28530126543E+02  0.37591791323E+02  0.47590814061E+02  0.00000000000E+00 0. -1.
        -14    1    5    5    0    0 -0.87631473634E+01  0.37393591037E+01  0.36450412564E+03  0.36462862363E+03  0.00000000000E+00 0.  1.
          5    1    4    4  501    0 -0.41269672419E+02  0.21320438188E+01  0.29757015724E+01  0.41642030117E+02  0.41800000000E+01 0.  1.
         -5    1    4    4    0  501  0.70047586014E+02 -0.87908346071E+02  0.25706307550E+02  0.11538123012E+03  0.41800000000E+01 0.  1.
</event>
<event>
11    1  0.6455215E-009  0.1417279E+03  0.7561462E-02  0.1105644E+00
         22   -1    0    0    0    0  0.00000000000E+00  0.00000000000E+00  0.79900236156E+02  0.79900236156E+02  0.00000000000E+00 0.  1.
         22   -1    0    0    0    0 -0.00000000000E+00 -0.00000000000E+00 -0.14833423819E+04  0.14833423819E+04  0.00000000000E+00 0.  1.
        -24    2    1    2    0    0  0.50015878282E+02  0.43589869686E+02 -0.89733119200E+03  0.90386608813E+03  0.85842718426E+02 0.  0.
         25    2    1    2    0    0 -0.24660920310E+02 -0.70418732861E+02 -0.54438056647E+03  0.56352841669E+03  0.12508843407E+03 0.  0.
         24    2    1    2    0    0 -0.25354957973E+02  0.26828863175E+02  0.38269612727E+02  0.95848113240E+02  0.79747324472E+02 0.  0.
        -11    1    5    5    0    0 -0.32523316677E+02  0.34682965218E+02  0.57050430052E+02  0.74265912592E+02  0.00000000000E+00 0.  1.
         12    1    5    5    0    0  0.71683587047E+01 -0.78541020432E+01 -0.18780817325E+02  0.21582200648E+02  0.00000000000E+00 0. -1.
         13    1    3    3    0    0  0.14650746980E+02  0.55638001361E+02 -0.30640027460E+03  0.31175528842E+03  0.00000000000E+00 0. -1.
        -14    1    3    3    0    0  0.35365131302E+02 -0.12048131675E+02 -0.59093091741E+03  0.59211079971E+03  0.00000000000E+00 0.  1.
          5    1    4    4  501    0  0.88507502987E+01 -0.26283008266E+01  0.32825759539E+01  0.10653236643E+02  0.41800000000E+01 0.  1.
         -5    1    4    4    0  501 -0.33511670609E+02 -0.67790432035E+02 -0.54766314242E+03  0.55287518004E+03  0.41800000000E+01 0.  1.
</event>
<event>
11    1  0.6455215E-009  0.1521049E+03  0.7561462E-02  0.1094747E+00
         22   -1    0    0    0    0  0.00000000000E+00  0.00000000000E+00  0.53505414318E+02  0.53505414318E+02  0.00000000000E+00 0.  1.
         22   -1    0    0    0    0 -0.00000000000E+00 -0.00000000000E+00 -0.26459506638E+04  0.26459506638E+04  0.00000000000E+00 0. -1.
        -24    2    1    2    0    0  0.22826118173E+02 -0.20277510356E+02 -0.13258925312E+04  0.13286678995E+04  0.80219534946E+02 0.  0.
         25    2    1    2    0    0  0.13329761892E+01 -0.64577807159E+02 -0.12274834400E+04  0.12355305651E+04  0.12509241287E+03 0.  0.
         24    2    1    2    0    0 -0.24159094362E+02  0.84855317515E+02 -0.39069278320E+02  0.13525761358E+03  0.94784633621E+02 0.  0.
        -11    1    5    5    0    0 -0.17975959428E+02  0.99580762959E+02 -0.52852468385E+02  0.11416149475E+03  0.00000000000E+00 0.  1.
         12    1    5    5    0    0 -0.61831349346E+01 -0.14725445444E+02  0.13783190065E+02  0.21096118826E+02  0.00000000000E+00 0. -1.
         13    1    3    3    0    0 -0.51430908353E+01 -0.16507154818E+01 -0.11228783239E+04  0.11228913156E+04  0.00000000000E+00 0. -1.
        -14    1    3    3    0    0  0.27969209008E+02 -0.18626794874E+02 -0.20301420723E+03  0.20577658389E+03  0.00000000000E+00 0.  1.
          5    1    4    4  501    0  0.20735784652E+02 -0.34570405616E+02 -0.11428386884E+04  0.11435570933E+04  0.41800000000E+01 0. -1.
         -5    1    4    4    0  501 -0.19402808463E+02 -0.30007401543E+02 -0.84644751667E+02  0.91973471764E+02  0.41800000000E+01 0. -1.
</event>
<event>
11    1  0.6455215E-009  0.1588293E+03  0.7561462E-02  0.1088184E+00
         22   -1    0    0    0    0  0.00000000000E+00  0.00000000000E+00  0.79583757553E+02  0.79583757553E+02  0.00000000000E+00 0. -1.
         22   -1    0    0    0    0 -0.00000000000E+00 -0.00000000000E+00 -0.34379486746E+04  0.34379486746E+04  0.00000000000E+00 0. -1.
         24    2    1    2    0    0  0.39597121204E+02  0.97955615157E+02 -0.31145851774E+04  0.31175045664E+04  0.83849027209E+02 0.  0.
         25    2    1    2    0    0 -0.33894406548E+02  0.27884894549E+01 -0.24009768627E+03  0.27285668448E+03  0.12508902767E+03 0.  0.
        -24    2    1    2    0    0 -0.57027146561E+01 -0.10074410461E+03 -0.36820533763E+01  0.12717118133E+03  0.77311423965E+02 0.  0.
        -11    1    3    3    0    0  0.33635053250E+02  0.92196208213E+02 -0.16615898022E+04  0.16644855446E+04  0.00000000000E+00 0.  1.
         12    1    3    3    0    0  0.59620679537E+01  0.57594069447E+01 -0.14529953753E+04  0.14530190218E+04  0.00000000000E+00 0. -1.
         11    1    5    5    0    0  0.19265651270E+02 -0.79651095570E+02  0.22848530637E+02  0.85073601643E+02  0.00000000000E+00 0. -1.
        -12    1    5    5    0    0 -0.24968365926E+02 -0.21093009042E+02 -0.26530584013E+02  0.42097579688E+02  0.00000000000E+00 0.  1.
          5    1    4    4  501    0 -0.49373657740E+02 -0.28734185058E+02 -0.22860267688E+03  0.23566940350E+03  0.41800000000E+01 0.  1.
         -5    1    4    4    0  501  0.15479251192E+02  0.31522674513E+02 -0.11495009400E+02  0.37187280984E+02  0.41800000000E+01 0.  1.
</event>
<event>
11    1  0.6455215E-009  0.1531790E+03  0.7561462E-02  0.1093674E+00
         22   -1    0    0    0    0  0.00000000000E+00  0.00000000000E+00  0.69088939119E+03  0.69088939119E+03  0.00000000000E+00 0.  1.
         22   -1    0    0    0    0 -0.00000000000E+00 -0.00000000000E+00 -0.10654116040E+04  0.10654116040E+04  0.00000000000E+00 0. -1.
         24    2    1    2    0    0 -0.15039801134E+02  0.30804359426E+01 -0.52955682726E+03  0.53605857446E+03  0.81808784646E+02 0.  0.
         25    2    1    2    0    0  0.80391735289E+01  0.85107711726E+02 -0.51643103888E+03  0.53819520750E+03  0.12508042436E+03 0.  0.
        -24    2    1    2    0    0  0.70006276051E+01 -0.88188147668E+02  0.67146565332E+03  0.68204721323E+03  0.80598506896E+02 0.  0.
        -13    1    3    3    0    0  0.33140015367E+02  0.40615446017E+01 -0.16623432707E+03  0.16955414551E+03  0.00000000000E+00 0.  1.
         14    1    3    3    0    0 -0.48179816501E+02 -0.98110865918E+00 -0.36332250019E+03  0.36650442894E+03  0.00000000000E+00 0. -1.
         13    1    5    5    0    0 -0.26831444906E+01 -0.42344130573E+02  0.99541389611E+02  0.10820680618E+03  0.00000000000E+00 0. -1.
        -14    1    5    5    0    0  0.96837720957E+01 -0.45844017095E+02  0.57192426371E+03  0.57384040705E+03  0.00000000000E+00 0.  1.
          5    1    4    4  501    0  0.27600377833E+01 -0.30273682798E+02 -0.17664180332E+03  0.17928723534E+03  0.41800000000E+01 0.  1.
         -5    1    4    4    0  501  0.52791357456E+01  0.11538139452E+03 -0.33978923556E+03  0.35890797216E+03  0.41800000000E+01 0.  1.
</event>
<event>
11    1  0.6455215E-009  0.1402320E+03  0.7561462E-02  0.1107300E+00
         22   -1    0    0    0    0  0.00000000000E+00  0.00000000000E+00  0.54966306155E+03  0.54966306155E+03  0.00000000000E+00 0. -1.
         22   -1    0    0    0    0 -0.00000000000E+00 -0.00000000000E+00 -0.98039735558E+03  0.98039735558E+03  0.00000000000E+00 0. -1.
         24    2    1    2    0    0 -0.35414498062E+02 -0.58797183191E+01 -0.80919046356E+03  0.81396057560E+03  0.80335885778E+02 0.  0.
         25    2    1    2    0    0 -0.13973400962E+02 -0.35139417066E+02 -0.13839579228E+03  0.19034388099E+03  0.12508942058E+03 0.  0.
        -24    2    1    2    0    0  0.49387899024E+02  0.41019135385E+02  0.51685196181E+03  0.52575596054E+03  0.71844593240E+02 0.  0.
        -13    1    3    3    0    0 -0.60062516566E+02 -0.13808808908E+02 -0.52962522442E+03  0.53319890045E+03  0.00000000000E+00 0.  1.
         14    1    3    3    0    0  0.24648018504E+02  0.79290905884E+01 -0.27956523914E+03  0.28076167515E+03  0.00000000000E+00 0. -1.
         13    1    5    5    0    0  0.23888089840E+02 -0.19279779945E+02  0.15021840079E+03  0.15332292290E+03  0.00000000000E+00 0. -1.
        -14    1    5    5    0    0  0.25499809184E+02  0.60298915330E+02  0.36663356102E+03  0.37243303764E+03  0.00000000000E+00 0.  1.
          5    1    4    4  501    0  0.55706028296E+02 -0.11966259875E+02 -0.60449796734E+02  0.83174535099E+02  0.41800000000E+01 0.  1.
         -5    1    4    4    0  501 -0.69679429258E+02 -0.23173157190E+02 -0.77945995548E+02  0.10716934589E+03  0.41800000000E+01 0.  1.
</event>
<event>
11    1  0.6455215E-009  0.1709805E+03  0.7561462E-02  0.1077182E+00
         22   -1    0    0    0    0  0.00000000000E+00  0.00000000000E+00  0.23990647173E+03  0.23990647173E+03  0.00000000000E+00 0.  1.
         22   -1    0    0    0    0 -0.00000000000E+00 -0.00000000000E+00 -0.91756243337E+03  0.91756243337E+03  0.00000000000E+00 0.  1.
        -24    2    1    2    0    0 -0.66798307151E+02 -0.92881193898E+02 -0.70471339231E+03  0.71880194051E+03  0.83464569508E+02 0.  0.
         25    2    1    2    0    0  0.26808374482E+02  0.13940472315E+03 -0.14535100125E+03  0.23859314031E+03  0.12508959692E+03 0.  0.
         24    2    1    2    0    0  0.39989932669E+02 -0.46523529255E+02  0.17240843193E+03  0.20007382428E+03  0.80877897318E+02 0.  0.
        -13    1    5    5    0    0  0.42776767101E+02 -0.28556611256E+02  0.17435999468E+03  0.18178762222E+03  0.00000000000E+00 0.  1.
         14    1    5    5    0    0 -0.27868344318E+01 -0.17966917999E+02 -0.19515627516E+01  0.18286202058E+02  0.00000000000E+00 0. -1.
         11    1    3    3    0    0  0.74611373000E+00 -0.17013615136E+02 -0.18634215419E+02  0.25243885794E+02  0.00000000000E+00 0. -1.
        -12    1    3    3    0    0 -0.67544420881E+02 -0.75867578762E+02 -0.68607917689E+03  0.69355805472E+03  0.00000000000E+00 0.  1.
          5    1    4    4  501    0 -0.89059225237E+01 -0.18194895025E+02 -0.41752016867E+02  0.46594774100E+02  0.41800000000E+01 0.  1.
         -5    1    4    4    0  501  0.35714297006E+02  0.15759961818E+03 -0.10359898438E+03  0.19199836621E+03  0.41800000000E+01 0.  1.
</event>
<event>
11    1  0.6455215E-009  0.1468313E+03  0.7561462E-02  0.1100161E+00
         22   -1    0    0    0    0  0.00000000000E+00  0.00000000000E+00  0.19836376407E+03  0.19836376407E+03  0.00000000000E+00 0. -1.
         22   -1    0    0    0    0 -0.00000000000E+00 -0.00000000000E+00 -0.35232611416E+03  0.35232611416E+03  0.00000000000E+00 0. -1.
        -24    2    1    2    0    0 -0.40894035328E+02 -0.25484570851E+02 -0.15521247339E+03  0.18176390336E+03  0.81396678026E+02 0.  0.
         25    2    1    2    0    0  0.10959833885E+03 -0.52992501639E+00 -0.12080369354E+03  0.20556347949E+03  0.12510289776E+03 0.  0.
         24    2    1    2    0    0 -0.68704303517E+02  0.26014495867E+02  0.12205381683E+03  0.16336249539E+03  0.79957084604E+02 0.  0.
        -11    1    5    5    0    0  0.90238638921E+01 -0.70906004399E+01 -0.35287674557E+01  0.12006620419E+02  0.00000000000E+00 0.  1.
         12    1    5    5    0    0 -0.77728167409E+02  0.33105096307E+02  0.12558258429E+03  0.15135587497E+03  0.00000000000E+00 0. -1.
         11    1    3    3    0    0 -0.62781726539E+02 -0.82070555103E+01 -0.83281417598E+02  0.10461689856E+03  0.00000000000E+00 0. -1.
        -12    1    3    3    0    0  0.21887691211E+02 -0.17277515341E+02 -0.71931055789E+02  0.77147004801E+02  0.00000000000E+00 0.  1.
          5    1    4    4  501    0  0.18441142990E+02  0.52820102269E+02 -0.65580258008E+02  0.86303427504E+02  0.41800000000E+01 0. -1.
         -5    1    4    4    0  501  0.91157195855E+02 -0.53350027285E+02 -0.55223435531E+02  0.11926005198E+03  0.41800000000E+01 0. -1.
</event>
<event>
11    1  0.6455215E-009  0.1811685E+03  0.7561462E-02  0.1068702E+00
         22   -1    0    0    0    0  0.00000000000E+00  0.00000000000E+00  0.92596334287E+03  0.92596334287E+03  0.00000000000E+00 0.  1.
         22   -1    0    0    0    0 -0.00000000000E+00 -0.00000000000E+00 -0.15353200056E+04  0.15353200056E+04  0.00000000000E+00 0. -1.
         24    2    1    2    0    0  0.12030005665E+03 -0.51173899043E+02 -0.10986039197E+04  0.11092781705E+04  0.80477422861E+02 0.  0.
         25    2    1    2    0    0 -0.13916885205E+03  0.59685018944E+01 -0.40935119312E+03  0.45013097188E+03  0.12508357262E+03 0.  0.
        -24    2    1    2    0    0  0.18868795403E+02  0.45205397149E+02  0.89859845008E+03  0.90187420610E+03  0.59146849142E+02 0.  0.
        -11    1    3    3    0    0  0.43146627168E+02 -0.25087852953E+02 -0.17180930330E+03  0.17891190151E+03  0.00000000000E+00 0.  1.
         12    1    3    3    0    0  0.77153429483E+02 -0.26086046090E+02 -0.92679461638E+03  0.93036626897E+03  0.00000000000E+00 0. -1.
         13    1    5    5    0    0  0.67959477374E+01 -0.80861907481E+01  0.42543645005E+03  0.42556755565E+03  0.00000000000E+00 0. -1.
        -14    1    5    5    0    0  0.12072847666E+02  0.53291587897E+02  0.47316200003E+03  0.47630665045E+03  0.00000000000E+00 0.  1.
          5    1    4    4  501    0 -0.15840679740E+03  0.39845407656E+01 -0.30302975130E+03  0.34198405313E+03  0.41800000000E+01 0. -1.
         -5    1    4    4    0  501  0.19237945343E+02  0.19839611289E+01 -0.10632144182E+03  0.10814691875E+03  0.41800000000E+01 0. -1.
</event>
<event>
11    1  0.6455215E-009  0.1935584E+03  0.7561462E-02  0.1059175E+00
         22   -1    0    0    0    0  0.00000000000E+00  0.00000000000E+00  0.30371274536E+03  0.30371274536E+03  0.00000000000E+00 0. -1.
         22   -1    0    0    0    0 -0.00000000000E+00 -0.00000000000E+00 -0.32002225365E+03  0.32002225365E+03  0.00000000000E+00 0. -1.
        -24    2    1    2    0    0 -0.13812649878E+02 -0.23624409200E+01 -0.19618227208E+03  0.21303044285E+03  0.81842014138E+02 0.  0.
         25    2    1    2    0    0 -0.12421862628E+03 -0.68611259078E+02  0.12704680517E+03  0.22787657889E+03  0.12509625300E+03 0.  0.
         24    2    1    2    0    0  0.13803127616E+03  0.70973699998E+02  0.52825958621E+02  0.18282797727E+03  0.80904808741E+02 0.  0.
        -13    1    5    5    0    0 -0.17735266410E+01  0.22115992384E+02 -0.67603402769E+01  0.23194066408E+02  0.00000000000E+00 0.  1.
         14    1    5    5    0    0  0.13980480280E+03  0.48857707614E+02  0.59586298898E+02  0.15963391086E+03  0.00000000000E+00 0. -1.
         13    1    3    3    0    0  0.72298429847E+01 -0.44811325768E+01 -0.19108727069E+03  0.19127649150E+03  0.00000000000E+00 0. -1.
        -14    1    3    3    0    0 -0.21042492863E+02  0.21186916567E+01 -0.50950013855E+01  0.21753951350E+02  0.00000000000E+00 0.  1.
          5    1    4    4  501    0 -0.49155234471E+02 -0.10536396945E+01  0.11617425918E+03  0.12621916704E+03  0.41800000000E+01 0.  1.
         -5    1    4    4    0  501 -0.75063391813E+02 -0.67557619384E+02  0.10872545987E+02  0.10165741185E+03  0.41800000000E+01 0.  1.
</event>
<event>
11    1  0.6455215E-009  0.1542673E+03  0.7561462E-02  0.1092596E+00
         22   -1    0    0    0    0  0.00000000000E+00  0.00000000000E+00  0.70333606248E+03  0.70333606248E+03  0.00000000000E+00 0.  1.
         22   -1    0    0    0    0 -0.00000000000E+00 -0.00000000000E+00 -0.34567440363E+03  0.34567440363E+03  0.00000000000E+00 0. -1.
         24    2    1    2    0    0  0.32258629389E+02 -0.34271395924E+02 -0.26438332915E+03  0.28054387574E+03  0.81186043970E+02 0.  0.
         25    2    1    2    0    0 -0.11663266353E+03  0.54960563607E+02  0.53598747854E+02  0.18746582347E+03  0.12508703947E+03 0.  0.
        -24    2    1    2    0    0  0.84374034136E+02 -0.20689167683E+02  0.56844624014E+03  0.58100076690E+03  0.82968330799E+02 0.  0.
        -11    1    3    3    0    0  0.96004511148E+01  0.25984638203E+02 -0.56576647766E+02  0.62994342258E+02  0.00000000000E+00 0.  1.
         12    1    3    3    0    0  0.22658178274E+02 -0.60256034126E+02 -0.20780668138E+03  0.21754953348E+03  0.00000000000E+00 0. -1.
         11    1    5    5    0    0  0.36290951981E+02  0.25921884532E+02  0.12923956534E+03  0.13671811344E+03  0.00000000000E+00 0. -1.
        -12    1    5    5    0    0  0.48083082156E+02 -0.46611052215E+02  0.43920667480E+03  0.44428265347E+03  0.00000000000E+00 0.  1.
          5    1    4    4  501    0 -0.39293143582E+02  0.86831301130E+02  0.35416460209E+02  0.10176160397E+03  0.41800000000E+01 0.  1.
         -5    1    4    4    0  501 -0.77339519944E+02 -0.31870737524E+02  0.18182287645E+02  0.85704219497E+02  0.41800000000E+01 0.  1.
</event>
<event>
11    1  0.6455215E-009  0.2137179E+03  0.7561462E-02  0.1045226E+00
         22   -1    0    0    0    0  0.00000000000E+00  0.00000000000E+00  0.59144542233E+03  0.59144542233E+03  0.00000000000E+00 0.  1.
         22   -1    0    0    0    0 -0.00000000000E+00 -0.00000000000E+00 -0.60411622619E+03  0.60411622619E+03  0.00000000000E+00 0.  1.
         24    2    1    2    0    0 -0.13196709561E+02 -0.96388729670E+01 -0.25458047094E+03  0.26970270247E+03  0.87528683985E+02 0.  0.
         25    2    1    2    0    0  0.31257485973E+02  0.18144429116E+03 -0.28730033009E+03  0.36343912152E+03  0.12508978438E+03 0.  0.
        -24    2    1    2    0    0 -0.18060776413E+02 -0.17180541820E+03  0.52920999717E+03  0.56241982452E+03  0.80059631207E+02 0.  0.
        -13    1    3    3    0    0  0.21271739190E+02 -0.29273371785E+02 -0.19361677843E+03  0.19696922113E+03  0.00000000000E+00 0.  1.
         14    1    3    3    0    0 -0.34468448750E+02  0.19634498818E+02 -0.60963692512E+02  0.72733481340E+02  0.00000000000E+00 0. -1.
         13    1    5    5    0    0  0.27757760347E+02 -0.45863706689E+02  0.19784990757E+03  0.20498428910E+03  0.00000000000E+00 0. -1.
        -14    1    5    5    0    0 -0.45818536760E+02 -0.12594171151E+03  0.33136008959E+03  0.35743553542E+03  0.00000000000E+00 0.  1.
          5    1    4    4  501    0  0.23546806420E+02  0.15900455656E+03 -0.13706624820E+03  0.21128542281E+03  0.41800000000E+01 0.  1.
         -5    1    4    4    0  501  0.77106795537E+01  0.22439734609E+02 -0.15023408189E+03  0.15215369871E+03  0.41800000000E+01 0.  1.
</event>
<event>
11    1  0.6455215E-009  0.1371989E+03  0.7561462E-02  0.1110727E+00
         22   -1    0    0    0    0  0.00000000000E+00  0.00000000000E+00  0.35094727279E+03  0.35094727279E+03  0.00000000000E+00 0. -1.
         22   -1    0    0    0    0 -0.00000000000E+00 -0.00000000000E+00 -0.90478021052E+03  0.90478021052E+03  0.00000000000E+00 0.  1.
         24    2    1    2    0    0  0.12615805410E+02  0.38864636610E+01 -0.82467001739E+03  0.82855501698E+03  0.79047551750E+02 0.  0.
         25    2    1    2    0    0  0.87564720472E+01  0.49211032562E+02 -0.47169800153E+01  0.13479064214E+03  0.12509142968E+03 0.  0.
        -24    2    1    2    0    0 -0.21372277457E+02 -0.53097496223E+02  0.27555405967E+03  0.29238182419E+03  0.79252589663E+02 0.  0.
        -11    1    3    3    0    0 -0.10996764320E+02  0.13306202804E+02 -0.73878121238E+03  0.73898285746E+03  0.00000000000E+00 0.  1.
         12    1    3    3    0    0  0.23612569730E+02 -0.94197391434E+01 -0.85888805008E+02  0.89572159517E+02  0.00000000000E+00 0. -1.
         13    1    5    5    0    0 -0.11341409118E+02 -0.69424090047E+02  0.25391106014E+03  0.26347515689E+03  0.00000000000E+00 0. -1.
        -14    1    5    5    0    0 -0.10030868339E+02  0.16326593824E+02  0.21642999530E+02  0.28906667297E+02  0.00000000000E+00 0.  1.
          5    1    4    4  501    0 -0.25159766584E+02  0.61118234853E+02 -0.45436627124E+02  0.80314456797E+02  0.41800000000E+01 0.  1.
         -5    1    4    4    0  501  0.33916238631E+02 -0.11907202291E+02  0.40719647109E+02  0.54476185347E+02  0.41800000000E+01 0.  1.
</event>
<event>
11    1  0.6455215E-009  0.5965050E+03  0.7561462E-02  0.9200472E-01
         22   -1    0    0    0    0  0.00000000000E+00  0.00000000000E+00  0.72790176268E+03  0.72790176268E+03  0.00000000000E+00 0. -1.
         22   -1    0    0    0    0 -0.00000000000E+00 -0.00000000000E+00 -0.23165542045E+04  0.23165542045E+04  0.00000000000E+00 0.  1.
         24    2    1    2    0    0  0.20598436048E+02  0.94620933154E+02 -0.14706161266E+04  0.14760121345E+04  0.80762694889E+02 0.  0.
         25    2    1    2    0    0  0.34880962515E+03  0.37595173599E+03 -0.59770948529E+03  0.79744216894E+03  0.12509804795E+03 0.  0.
        -24    2    1    2    0    0 -0.36940806120E+03 -0.47057266915E+03  0.47967317008E+03  0.77100166371E+03  0.80350872620E+02 0.  0.
        -13    1    3    3    0    0  0.48056466159E+02  0.80341434927E+02 -0.11957464445E+04  0.11994055735E+04  0.00000000000E+00 0.  1.
         14    1    3    3    0    0 -0.27458030111E+02  0.14279498227E+02 -0.27486968213E+03  0.27660656110E+03  0.00000000000E+00 0. -1.
         11    1    5    5    0    0 -0.18255636277E+03 -0.29397397931E+03  0.26004082689E+03  0.43286112986E+03  0.00000000000E+00 0. -1.
        -12    1    5    5    0    0 -0.18685169842E+03 -0.17659868984E+03  0.21963234319E+03  0.33814053385E+03  0.00000000000E+00 0.  1.
          5    1    4    4  501    0  0.18076055048E+02  0.60329234263E+02 -0.12374224608E+03  0.13890995694E+03  0.41800000000E+01 0. -1.
         -5    1    4    4    0  501  0.33073357010E+03  0.31562250173E+03 -0.47396723921E+03  0.65853221200E+03  0.41800000000E+01 0. -1.
</event>
<event>
11    1  0.6455215E-009  0.2287960E+03  0.7561462E-02  0.1035843E+00
         22   -1    0    0    0    0  0.00000000000E+00  0.00000000000E+00  0.16175782994E+04  0.16175782994E+04  0.00000000000E+00 0. -1.
         22   -1    0    0    0    0 -0.00000000000E+00 -0.00000000000E+00 -0.24657788596E+03  0.24657788596E+03  0.00000000000E+00 0.  1.
         24    2    1    2    0    0  0.18624956651E+03  0.48562656455E+02 -0.17269141377E+03  0.26910110752E+03  0.74470457574E+02 0.  0.
         25    2    1    2    0    0 -0.15341845875E+03 -0.12134815910E+03  0.58111532770E+03  0.62578338046E+03  0.12508883231E+03 0.  0.
        -24    2    1    2    0    0 -0.32831107762E+02  0.72785502646E+02  0.96257649953E+03  0.96927169739E+03  0.80984534836E+02 0.  0.
        -13    1    3    3    0    0  0.63680962638E+02 -0.17733002074E+02 -0.43924094915E+02  0.79366557688E+02  0.00000000000E+00 0.  1.
         14    1    3    3    0    0  0.12256860387E+03  0.66295658529E+02 -0.12876731885E+03  0.18973454983E+03  0.00000000000E+00 0. -1.
         13    1    5    5    0    0  0.23617442798E+02  0.18928023139E+02  0.42330401020E+03  0.42438465890E+03  0.00000000000E+00 0. -1.
        -14    1    5    5    0    0 -0.56448550560E+02  0.53857479507E+02  0.53927248933E+03  0.54488703849E+03  0.00000000000E+00 0.  1.
          5    1    4    4  501    0 -0.11770964529E+03 -0.13413071127E+03  0.54405593629E+03  0.57259142721E+03  0.41800000000E+01 0. -1.
         -5    1    4    4    0  501 -0.35708813464E+02  0.12782552168E+02  0.37059391405E+02  0.53191953247E+02  0.41800000000E+01 0. -1.
</event>
<event>
11    1  0.6455215E-009  0.1458293E+03  0.7561462E-02  0.1101218E+00
         22   -1    0    0    0    0  0.00000000000E+00  0.00000000000E+00  0.47773541989E+03  0.47773541989E+03  0.00000000000E+00 0. -1.
         22   -1    0    0    0    0 -0.00000000000E+00 -0.00000000000E+00 -0.30737888587E+03  0.30737888587E+03  0.00000000000E+00 0.  1.
        -24    2    1    2    0    0  0.22167687217E+02 -0.48715779117E+01 -0.21492059375E+03  0.23049123941E+03  0.80126220410E+02 0.  0.
         25    2    1    2    0    0  0.25602355693E+02  0.63833455747E+02 -0.10360577730E+02  0.14312666672E+03  0.12509080888E+03 0.  0.
         24    2    1    2    0    0 -0.47770042910E+02 -0.58961877835E+02  0.39563770551E+03  0.41149639964E+03  0.83914318562E+02 0.  0.
        -13    1    5    5    0    0 -0.65793137672E+02 -0.31760114617E+02  0.19527628472E+03  0.20849524987E+03  0.00000000000E+00 0.  1.
         14    1    5    5    0    0  0.18023094762E+02 -0.27201763218E+02  0.20036142078E+03  0.20300114976E+03  0.00000000000E+00 0. -1.
         11    1    3    3    0    0 -0.26254135900E+01 -0.36214711090E+02 -0.56921098048E+02  0.67515994392E+02  0.00000000000E+00 0. -1.
        -12    1    3    3    0    0  0.24793100807E+02  0.31343133178E+02 -0.15799949570E+03  0.16297524501E+03  0.00000000000E+00 0.  1.
          5    1    4    4  501    0 -0.32684276724E+02 -0.14561557463E+02  0.19404543117E+02  0.40918328342E+02  0.41800000000E+01 0.  1.
         -5    1    4    4    0  501  0.58286632418E+02  0.78395013210E+02 -0.29765120846E+02  0.10220833838E+03  0.41800000000E+01 0.  1.
</event>
<event>
11    1  0.6455215E-009  0.1440265E+03  0.7561462E-02  0.1103144E+00
         22   -1    0    0    0    0  0.00000000000E+00  0.00000000000E+00  0.41957551365E+03  0.41957551365E+03  0.00000000000E+00 0. -1.
         22   -1    0    0    0    0 -0.00000000000E+00 -0.00000000000E+00 -0.67223968260E+03  0.67223968260E+03  0.00000000000E+00 0.  1.
         24    2    1    2    0    0 -0.12169228693E+02 -0.66142615662E+02 -0.44984519801E+03  0.46192295306E+03  0.80555425987E+02 0.  0.
         25    2    1    2    0    0  0.66692424952E+02  0.18279339239E+02 -0.18439838072E+03  0.23330847446E+03  0.12509223658E+03 0.  0.
        -24    2    1    2    0    0 -0.54523196259E+02  0.47863276422E+02  0.38157940978E+03  0.39658376874E+03  0.80076010773E+02 0.  0.
        -13    1    3    3    0    0 -0.23625993519E+02 -0.67050098673E+02 -0.20816162528E+03  0.21996628274E+03  0.00000000000E+00 0.  1.
         14    1    3    3    0    0  0.11456764826E+02  0.90748301133E+00 -0.24168357272E+03  0.24195667032E+03  0.00000000000E+00 0. -1.
         11    1    5    5    0    0 -0.62946479596E+02  0.63887135683E+02  0.32726180890E+03  0.33932892149E+03  0.00000000000E+00 0. -1.
        -12    1    5    5    0    0  0.84232833370E+01 -0.16023859260E+02  0.54317600881E+02  0.57254847246E+02  0.00000000000E+00 0.  1.
          5    1    4    4  501    0  0.11227651852E+02 -0.29757727883E+02 -0.14773378174E+03  0.15117647040E+03  0.41800000000E+01 0.  1.
         -5    1    4    4    0  501  0.55464773100E+02  0.48037067122E+02 -0.36664598979E+02  0.82132004060E+02  0.41800000000E+01 0.  1.
</event>
<event>
11    1  0.6455215E-009  0.1475117E+03  0.7561462E-02  0.1099449E+00
         22   -1    0    0    0    0  0.00000000000E+00  0.00000000000E+00  0.15816214442E+03  0.15816214442E+03  0.00000000000E+00 0. -1.
         22   -1    0    0    0    0 -0.00000000000E+00 -0.00000000000E+00 -0.30107605068E+03  0.30107605068E+03  0.00000000000E+00 0. -1.
        -24    2    1    2    0    0  0.54949516710E+02 -0.30967445674E+02 -0.97910877246E+02  0.14289955984E+03  0.82796812998E+02 0.  0.
         25    2    1    2    0    0 -0.11974252706E+03  0.45986822776E+01 -0.94032882190E+02  0.19710805223E+03  0.12509988272E+03 0.  0.
         24    2    1    2    0    0  0.64793010351E+02  0.26368763396E+02  0.49029853173E+02  0.11923058302E+03  0.83177878980E+02 0.  0.
        -13    1    5    5    0    0 -0.17587650887E+02 -0.62242759182E+01  0.15628598920E+01  0.18721901759E+02  0.00000000000E+00 0.  1.
         14    1    5    5    0    0  0.82380661238E+02  0.32593039314E+02  0.47466993281E+02  0.10050868126E+03  0.00000000000E+00 0. -1.
         13    1    3    3    0    0 -0.51090105098E+01  0.22212951895E+02 -0.13690189639E+02  0.26588315340E+02  0.00000000000E+00 0. -1.
        -14    1    3    3    0    0  0.60058527219E+02 -0.53180397568E+02 -0.84220687607E+02  0.11631124450E+03  0.00000000000E+00 0.  1.
          5    1    4    4  501    0 -0.63396868427E+02 -0.32107821488E+02 -0.10697824687E+03  0.12849861023E+03  0.41800000000E+01 0.  1.
         -5    1    4    4    0  501 -0.56345658634E+02  0.36706503766E+02  0.12945364679E+02  0.68609442005E+02  0.41800000000E+01 0.  1.
</event>
<event>
11    1  0.6455215E-009  0.1530783E+03  0.7561462E-02  0.1093774E+00
         22   -1    0    0    0    0  0.00000000000E+00  0.00000000000E+00  0.56398634747E+03  0.56398634747E+03  0.00000000000E+00 0.  1.
         22   -1    0    0    0    0 -0.00000000000E+00 -0.00000000000E+00 -0.19669817419E+04  0.19669817419E+04  0.00000000000E+00 0. -1.
         24    2    1    2    0    0 -0.71440127536E+02  0.51931214923E+02 -0.19281150767E+04  0.19318414295E+04  0.81135792761E+02 0.  0.
         25    2    1    2    0    0  0.56799345000E+02 -0.58579624539E+02  0.13824271885E+03  0.20350996128E+03  0.12509003565E+03 0.  0.
        -24    2    1    2    0    0  0.14640782535E+02  0.66484096168E+01  0.38687696343E+03  0.39561669858E+03  0.81118638460E+02 0.  0.
        -11    1    3    3    0    0 -0.46888201573E+02 -0.14162048410E+02 -0.87345341230E+03  0.87482565722E+03  0.00000000000E+00 0.  1.
         12    1    3    3    0    0 -0.24551925962E+02  0.66093263332E+02 -0.10546616644E+04  0.10570157723E+04  0.00000000000E+00 0. -1.
         13    1    5    5    0    0 -0.18851318318E+02  0.19367164258E+02  0.49974008530E+02  0.56814265658E+02  0.00000000000E+00 0. -1.
        -14    1    5    5    0    0  0.33492100854E+02 -0.12718754641E+02  0.33690295489E+03  0.33880243293E+03  0.00000000000E+00 0.  1.
          5    1    4    4  501    0 -0.20062080159E+02 -0.44936342282E+02  0.58151709928E+01  0.49729775101E+02  0.41800000000E+01 0. -1.
         -5    1    4    4    0  501  0.76861425159E+02 -0.13643282258E+02  0.13242754786E+03  0.15378018618E+03  0.41800000000E+01 0. -1.
</event>
<event>
11    1  0.6455215E-009  0.1301892E+03  0.7561462E-02  0.1119037E+00
         22   -1    0    0    0    0  0.00000000000E+00  0.00000000000E+00  0.19559391801E+04  0.19559391801E+04  0.00000000000E+00 0. -1.
         22   -1    0    0    0    0 -0.00000000000E+00 -0.00000000000E+00 -0.71222234826E+03  0.71222234826E+03  0.00000000000E+00 0. -1.
        -24    2    1    2    0    0 -0.54394148678E+01 -0.14203238982E+02 -0.62402649467E+03  0.62904430546E+03  0.77822573539E+02 0.  0.
         25    2    1    2    0    0  0.41442725520E+02  0.15041424603E+02 -0.32706036899E+02  0.13660411601E+03  0.12508899116E+03 0.  0.
         24    2    1    2    0    0 -0.36003310653E+02 -0.83818562063E+00  0.19004493634E+04  0.19025131069E+04  0.80940707530E+02 0.  0.
        -13    1    5    5    0    0 -0.36536588031E+02  0.27576960393E+02  0.59641755579E+03  0.59817164080E+03  0.00000000000E+00 0.  1.
         14    1    5    5    0    0  0.53327737842E+00 -0.28415146014E+02  0.13040318076E+04  0.13043414661E+04  0.00000000000E+00 0. -1.
         13    1    3    3    0    0 -0.33354562825E+02 -0.81352877486E+01 -0.52101916398E+03  0.52214909653E+03  0.00000000000E+00 0. -1.
        -14    1    3    3    0    0  0.27915147957E+02 -0.60679512333E+01 -0.10300733068E+03  0.10689520893E+03  0.00000000000E+00 0.  1.
          5    1    4    4  501    0  0.79492907463E+02 -0.24319071244E+01  0.54172679401E+01  0.79823904321E+02  0.41800000000E+01 0. -1.
         -5    1    4    4    0  501 -0.38050181943E+02  0.17473331727E+02 -0.38123304839E+02  0.56780211688E+02  0.41800000000E+01 0. -1.
</event>
<event>
11    1  0.6455215E-009  0.3485666E+03  0.7561462E-02  0.9815032E-01
         22   -1    0    0    0    0  0.00000000000E+00  0.00000000000E+00  0.92727326398E+03  0.92727326398E+03  0.00000000000E+00 0. -1.
         22   -1    0    0    0    0 -0.00000000000E+00 -0.00000000000E+00 -0.49100791056E+03  0.49100791056E+03  0.00000000000E+00 0.  1.
         24    2    1    2    0    0  0.13055535773E+03  0.30440137303E+03 -0.37421231582E+03  0.50646088822E+03  0.82236711081E+02 0.  0.
         25    2    1    2    0    0 -0.66748515752E+02 -0.26949536046E+03  0.53550563617E+03  0.61602963414E+03  0.12507241945E+03 0.  0.
        -24    2    1    2    0    0 -0.63806841978E+02 -0.34906012569E+02  0.27497203307E+03  0.29579065218E+03  0.81195739731E+02 0.  0.
        -13    1    3    3    0    0  0.87918760600E+02  0.11196964734E+03 -0.13152369911E+03  0.19381793988E+03  0.00000000000E+00 0.  1.
         14    1    3    3    0    0  0.42636597130E+02  0.19243172569E+03 -0.24268861671E+03  0.31264294834E+03  0.00000000000E+00 0. -1.
         11    1    5    5    0    0 -0.29004233804E+02 -0.48297646103E+02  0.23269485280E+03  0.23941763243E+03  0.00000000000E+00 0. -1.
        -12    1    5    5    0    0 -0.34802608174E+02  0.13391633534E+02  0.42277180263E+02  0.56373019747E+02  0.00000000000E+00 0.  1.
          5    1    4    4  501    0 -0.42074725299E+02 -0.21440343487E+03  0.50048832313E+03  0.54611825586E+03  0.41800000000E+01 0.  1.
         -5    1    4    4    0  501 -0.24673790453E+02 -0.55091925594E+02  0.35017313038E+02  0.69911378283E+02  0.41800000000E+01 0.  1.
</event>
<event>
11    1  0.6455215E-009  0.1617017E+03  0.7561462E-02  0.1085488E+00
         22   -1    0    0    0    0  0.00000000000E+00  0.00000000000E+00  0.18173891907E+04  0.18173891907E+04  0.00000000000E+00 0. -1.
         22   -1    0    0    0    0 -0.00000000000E+00 -0.00000000000E+00 -0.77264046134E+03  0.77264046134E+03  0.00000000000E+00 0.  1.
         24    2    1    2    0    0  0.52177264170E+02 -0.88096599507E+02 -0.75607246596E+03  0.76735838479E+03  0.81913608070E+02 0.  0.
         25    2    1    2    0    0 -0.44996926629E+02  0.10478636236E+03  0.75771971647E+03  0.77639680985E+03  0.12509169625E+03 0.  0.
        -24    2    1    2    0    0 -0.71803375404E+01 -0.16689762849E+02  0.10431014789E+04  0.10462744574E+04  0.79369009096E+02 0.  0.
        -11    1    3    3    0    0  0.70390664231E+02 -0.72937498190E+02 -0.49869461607E+03  0.50889197709E+03  0.00000000000E+00 0.  1.
         12    1    3    3    0    0 -0.18213400061E+02 -0.15159101317E+02 -0.25737784989E+03  0.25846640770E+03  0.00000000000E+00 0. -1.
         13    1    5    5    0    0  0.28633511544E+02 -0.30886582185E+02  0.47218450028E+03  0.47405913265E+03  0.00000000000E+00 0. -1.
        -14    1    5    5    0    0 -0.35813849084E+02  0.14196819336E+02  0.57091697861E+03  0.57221532480E+03  0.00000000000E+00 0.  1.
          5    1    4    4  501    0 -0.59161363261E+02 -0.39201341664E+01  0.25201782112E+03  0.25893220912E+03  0.41800000000E+01 0.  1.
         -5    1    4    4    0  501  0.14164436631E+02  0.10870649652E+03  0.50570189535E+03  0.51746460073E+03  0.41800000000E+01 0.  1.
</event>
<event>
11    1  0.6455215E-009  0.4140834E+03  0.7561462E-02  0.9609094E-01
         22   -1    0    0    0    0  0.00000000000E+00  0.00000000000E+00  0.12637334116E+04  0.12637334116E+04  0.00000000000E+00 0.  1.
         22   -1    0    0    0    0 -0.00000000000E+00 -0.00000000000E+00 -0.12163214647E+04  0.12163214647E+04  0.00000000000E+00 0. -1.
        -24    2    1    2    0    0 -0.11710063573E+03 -0.37478482047E+03 -0.10479280257E+04  0.11219721651E+04  0.80574014167E+02 0.  0.
         25    2    1    2    0    0  0.10671286641E+03  0.40167234957E+03  0.23522082660E+03  0.49366460442E+03  0.12509033587E+03 0.  0.
         24    2    1    2    0    0  0.10387769315E+02 -0.26887529096E+02  0.86011914592E+03  0.86441810674E+03  0.81134906858E+02 0.  0.
        -13    1    5    5    0    0  0.84413255571E+01 -0.27709264636E+02  0.86143969844E+03  0.86192657075E+03  0.00000000000E+00 0.  1.
         14    1    5    5    0    0  0.19464437574E+01  0.82173554031E+00 -0.13205525220E+01  0.24915359845E+01  0.00000000000E+00 0. -1.
         11    1    3    3    0    0 -0.11155788698E+03 -0.37796254381E+03 -0.10363547120E+04  0.11087524231E+04  0.00000000000E+00 0. -1.
        -12    1    3    3    0    0 -0.55427487456E+01  0.31777233436E+01 -0.11573313724E+02  0.13219742049E+02  0.00000000000E+00 0.  1.
          5    1    4    4  501    0  0.97562803071E+02  0.19905338526E+03  0.17375297665E+03  0.28168833845E+03  0.41800000000E+01 0. -1.
         -5    1    4    4    0  501  0.91500633419E+01  0.20261896431E+03  0.61467849951E+02  0.21197626597E+03  0.41800000000E+01 0. -1.
</event>
<event>
11    1  0.6455215E-009  0.1432806E+03  0.7561462E-02  0.1103949E+00
         22   -1    0    0    0    0  0.00000000000E+00  0.00000000000E+00  0.79155776742E+03  0.79155776742E+03  0.00000000000E+00 0.  1.
         22   -1    0    0    0    0 -0.00000000000E+00 -0.00000000000E+00 -0.13977782774E+03  0.13977782774E+03  0.00000000000E+00 0.  1.
         24    2    1    2    0    0  0.41560866112E+01  0.44284895909E+02 -0.14399056353E+02  0.94468163210E+02  0.82088220682E+02 0.  0.
         25    2    1    2    0    0  0.99427990645E+01  0.26326435650E+02 -0.30621465341E+02  0.13182301990E+03  0.12509074293E+03 0.  0.
        -24    2    1    2    0    0 -0.14098885676E+02 -0.70611331558E+02  0.69680046138E+03  0.70504441206E+03  0.79824816166E+02 0.  0.
        -13    1    3    3    0    0  0.35436426539E+02  0.50108133981E+02 -0.12210309267E+02  0.62575211301E+02  0.00000000000E+00 0.  1.
         14    1    3    3    0    0 -0.31280339928E+02 -0.58232380721E+01 -0.21887470860E+01  0.31892951909E+02  0.00000000000E+00 0. -1.
         11    1    5    5    0    0  0.24900181116E+02 -0.62398513069E+02  0.46824773938E+03  0.47304285100E+03  0.00000000000E+00 0. -1.
        -12    1    5    5    0    0 -0.38999066792E+02 -0.82128184895E+01  0.22855272200E+03  0.23200156105E+03  0.00000000000E+00 0.  1.
          5    1    4    4  501    0 -0.38791613722E+02  0.17974987586E+02  0.30802631944E+02  0.52859852521E+02  0.41800000000E+01 0. -1.
         -5    1    4    4    0  501  0.48734412787E+02  0.83514480641E+01 -0.61424097285E+02  0.78963167374E+02  0.41800000000E+01 0. -1.
</event>
<event>
11    1  0.6455215E-009  0.1371053E+03  0.7561462E-02  0.1110835E+00
         22   -1    0    0    0    0  0.00000000000E+00  0.00000000000E+00  0.15210874323E+03  0.15210874323E+03  0.00000000000E+00 0.  1.
         22   -1    0    0    0    0 -0.00000000000E+00 -0.00000000000E+00 -0.49492175695E+03  0.49492175695E+03  0.00000000000E+00 0.  1.
         24    2    1    2    0    0  0.21145621468E+02  0.52985069266E+02 -0.21555002390E+03  0.23748022856E+03  0.81734272356E+02 0.  0.
         25    2    1    2    0    0 -0.15107912580E+02  0.69710679709E+01 -0.23210112401E+03  0.26418709052E+03  0.12508813781E+03 0.  0.
        -24    2    1    2    0    0 -0.60377088882E+01 -0.59956137237E+02  0.10483813419E+03  0.14536318110E+03  0.80673587482E+02 0.  0.
        -11    1    3    3    0    0 -0.24476572007E+02  0.41815330181E+02 -0.14362009327E+03  0.15157293824E+03  0.00000000000E+00 0.  1.
         12    1    3    3    0    0  0.45622193475E+02  0.11169739085E+02 -0.71929930632E+02  0.85907290316E+02  0.00000000000E+00 0. -1.
         13    1    5    5    0    0 -0.31727850086E+01  0.79575572880E+01 -0.92203469113E+01  0.12585868260E+02  0.00000000000E+00 0. -1.
        -14    1    5    5    0    0 -0.28649238795E+01 -0.67913694525E+02  0.11405848110E+03  0.13277731284E+03  0.00000000000E+00 0.  1.
          5    1    4    4  501    0 -0.43334187181E+01  0.10372059281E+02 -0.24571548638E+03  0.24600798926E+03  0.41800000000E+01 0.  1.
         -5    1    4    4    0  501 -0.10774493862E+02 -0.34009913097E+01  0.13614362374E+02  0.18179101263E+02  0.41800000000E+01 0.  1.
</event>
<event>
11    1  0.6455215E-009  0.1374376E+03  0.7561462E-02  0.1110454E+00
         22   -1    0    0    0    0  0.00000000000E+00  0.00000000000E+00  0.30494813325E+03  0.30494813325E+03  0.00000000000E+00 0. -1.
         22   -1    0    0    0    0 -0.00000000000E+00 -0.00000000000E+00 -0.38123492723E+03  0.38123492723E+03  0.00000000000E+00 0. -1.
         24    2    1    2    0    0  0.50351764205E+02 -0.24619709509E+02 -0.32253086310E+03  0.33827079418E+03  0.85202947641E+02 0.  0.
         25    2    1    2    0    0 -0.73822430377E+02  0.12134262994E+02  0.93008275601E+02  0.17290242318E+03  0.12509083518E+03 0.  0.
        -24    2    1    2    0    0  0.23470666172E+02  0.12485446516E+02  0.15323579353E+03  0.17500984312E+03  0.80252590138E+02 0.  0.
        -11    1    3    3    0    0 -0.72809082825E+01  0.18239370913E+02 -0.22973391909E+02  0.30223550628E+02  0.00000000000E+00 0.  1.
         12    1    3    3    0    0  0.57632672487E+02 -0.42859080422E+02 -0.29955747119E+03  0.30804724355E+03  0.00000000000E+00 0. -1.
         11    1    5    5    0    0  0.32861618812E+02 -0.26794095877E+02  0.96133551863E+02  0.10506887912E+03  0.00000000000E+00 0. -1.
        -12    1    5    5    0    0 -0.93909526397E+01  0.39279542393E+02  0.57102241665E+02  0.69940964000E+02  0.00000000000E+00 0.  1.
          5    1    4    4  501    0 -0.94308292173E+02 -0.23170697430E+02  0.88795845992E+02  0.13165526901E+03  0.41800000000E+01 0. -1.
         -5    1    4    4    0  501  0.20485861796E+02  0.35304960424E+02  0.42124296088E+01  0.41247154171E+02  0.41800000000E+01 0. -1.
</event>
<event>
11    1  0.6455215E-009  0.1336694E+03  0.7561462E-02  0.1114841E+00
         22   -1    0    0    0    0  0.00000000000E+00  0.00000000000E+00  0.32170631706E+03  0.32170631706E+03  0.00000000000E+00 0.  1.
         22   -1    0    0    0    0 -0.00000000000E+00 -0.00000000000E+00 -0.18621281534E+03  0.18621281534E+03  0.00000000000E+00 0.  1.
        -24    2    1    2    0    0 -0.32990367653E+02 -0.35559357117E+02 -0.12632484631E+03  0.15713905062E+03  0.79886683480E+02 0.  0.
         25    2    1    2    0    0  0.45475018098E+02  0.59258253114E+01  0.91412221166E+02  0.16155851866E+03  0.12506745419E+03 0.  0.
         24    2    1    2    0    0 -0.12484650444E+02  0.29633531806E+02  0.17040612687E+03  0.18922156311E+03  0.75713533593E+02 0.  0.
        -13    1    5    5    0    0  0.14862144181E+02  0.43766947429E+02  0.13285319380E+03  0.14066413942E+03  0.00000000000E+00 0.  1.
         14    1    5    5    0    0 -0.27346794625E+02 -0.14133415623E+02  0.37552933068E+02  0.48557423691E+02  0.00000000000E+00 0. -1.
         13    1    3    3    0    0  0.19539895783E+02  0.10376280881E+02 -0.19216813910E+02  0.29304618560E+02  0.00000000000E+00 0. -1.
        -14    1    3    3    0    0 -0.52530263436E+02 -0.45935637998E+02 -0.10710803240E+03  0.12783443206E+03  0.00000000000E+00 0.  1.
          5    1    4    4  501    0  0.83793521124E+02  0.11593843607E+02  0.88488568775E+02  0.12248865497E+03  0.41800000000E+01 0.  1.
         -5    1    4    4    0  501 -0.38318503027E+02 -0.56680182959E+01  0.29236523914E+01  0.39069863692E+02  0.41800000000E+01 0.  1.
</event>
<event>
11    1  0.6455215E-009  0.1342726E+03  0.7561462E-02  0.1114128E+00
         22   -1    0    0    0    0  0.00000000000E+00  0.00000000000E+00  0.26443380582E+03  0.26443380582E+03  0.00000000000E+00 0. -1.
         22   -1    0    0    0    0 -0.00000000000E+00 -0.00000000000E+00 -0.20229944163E+04  0.20229944163E+04  0.00000000000E+00 0. -1.
        -24    2    1    2    0    0  0.14330159759E+01  0.24650622689E+02 -0.19001680510E+04  0.19019556153E+04  0.78656430487E+02 0.  0.
         25    2    1    2    0    0 -0.49838442853E+02 -0.27624093313E+02 -0.69648450310E+02  0.15410188476E+03  0.12509805490E+03 0.  0.
         24    2    1    2    0    0  0.48405426877E+02  0.29734706232E+01  0.21125589082E+03  0.23137072201E+03  0.80940921183E+02 0.  0.
        -13    1    5    5    0    0 -0.21375296530E+01  0.30477566156E+02  0.11713428435E+03  0.12105325952E+03  0.00000000000E+00 0.  1.
         14    1    5    5    0    0  0.50542956530E+02 -0.27504095533E+02  0.94121606469E+02  0.11031746249E+03  0.00000000000E+00 0. -1.
         13    1    3    3    0    0 -0.33089742590E+02  0.20295760094E+02 -0.14190790675E+04  0.14196098932E+04  0.00000000000E+00 0. -1.
        -14    1    3    3    0    0  0.34522758566E+02  0.43548625954E+01 -0.48108898345E+03  0.48234572216E+03  0.00000000000E+00 0.  1.
          5    1    4    4  501    0 -0.82565421822E+02  0.65544157214E+01 -0.66841756520E+02  0.10651432796E+03  0.41800000000E+01 0.  1.
         -5    1    4    4    0  501  0.32726978969E+02 -0.34178509034E+02 -0.28066937907E+01  0.47587556801E+02  0.41800000000E+01 0.  1.
</event>
<event>
11    1  0.6455215E-009  0.1412687E+03  0.7561462E-02  0.1106150E+00
         22   -1    0    0    0    0  0.00000000000E+00  0.00000000000E+00  0.13111640471E+04  0.13111640471E+04  0.00000000000E+00 0.  1.
         22   -1    0    0    0    0 -0.00000000000E+00 -0.00000000000E+00 -0.41356663647E+03  0.41356663647E+03  0.00000000000E+00 0. -1.
         24    2    1    2    0    0  0.29097236748E+02 -0.59086577920E+02 -0.37824018420E+03  0.39305307926E+03  0.84185588412E+02 0.  0.
         25    2    1    2    0    0 -0.30558624509E+02  0.52094977091E+02  0.15617444499E+03  0.20901189567E+03  0.12509116314E+03 0.  0.
        -24    2    1    2    0    0  0.14613877604E+01  0.69916008296E+01  0.11196631498E+04  0.11226657086E+04  0.81741703713E+02 0.  0.
        -13    1    3    3    0    0  0.84526165887E+01  0.21762175474E+02 -0.75887442358E+02  0.79397373484E+02  0.00000000000E+00 0.  1.
         14    1    3    3    0    0  0.20644620160E+02 -0.80848753395E+02 -0.30235274184E+03  0.31365570577E+03  0.00000000000E+00 0. -1.
         13    1    5    5    0    0  0.89064672167E+01  0.43695145829E+02  0.60049460456E+03  0.60214812217E+03  0.00000000000E+00 0. -1.
        -14    1    5    5    0    0 -0.74450794563E+01 -0.36703544999E+02  0.51916854527E+03  0.52051758646E+03  0.00000000000E+00 0.  1.
          5    1    4    4  501    0 -0.55229558953E+02 -0.22722592524E+02  0.62595537777E+02  0.86615784605E+02  0.41800000000E+01 0.  1.
         -5    1    4    4    0  501  0.24670934444E+02  0.74817569615E+02  0.93578907211E+02  0.12239611107E+03  0.41800000000E+01 0.  1.
</event>
<event>
11    1  0.6455215E-009  0.2045988E+03  0.7561462E-02  0.1051318E+00
         22   -1    0    0    0    0  0.00000000000E+00  0.00000000000E+00  0.18734572400E+04  0.18734572400E+04  0.00000000000E+00 0.  1.
         22   -1    0    0    0    0 -0.00000000000E+00 -0.00000000000E+00 -0.18814358357E+03  0.18814358357E+03  0.00000000000E+00 0.  1.
        -24    2    1    2    0    0  0.92256395538E+02 -0.63897650194E+02 -0.99572954393E+02  0.16998884824E+03  0.79920479614E+02 0.  0.
         25    2    1    2    0    0 -0.15666286986E+03  0.20184636953E+03  0.37258466817E+03  0.46877682339E+03  0.12508862258E+03 0.  0.
         24    2    1    2    0    0  0.64406474324E+02 -0.13794871934E+03  0.14123019427E+04  0.14228351520E+04  0.81762150883E+02 0.  0.
        -13    1    5    5    0    0  0.40673634024E+02 -0.13559811843E+03  0.13173154533E+04  0.13249004483E+04  0.00000000000E+00 0.  1.
         14    1    5    5    0    0  0.23732840299E+02 -0.23506009086E+01  0.94986489312E+02  0.97934703681E+02  0.00000000000E+00 0. -1.
         13    1    3    3    0    0  0.12509002270E+01 -0.44553574261E+02 -0.36165692525E+02  0.57398110131E+02  0.00000000000E+00 0. -1.
        -14    1    3    3    0    0  0.91005495311E+02 -0.19344075933E+02 -0.63407261868E+02  0.11259073811E+03  0.00000000000E+00 0.  1.
          5    1    4    4  501    0  0.14496173206E+02  0.23434402810E+02  0.94146510861E+01  0.29417993265E+02  0.41800000000E+01 0. -1.
         -5    1    4    4    0  501 -0.17115904307E+03  0.17841196672E+03  0.36317001709E+03  0.43935883012E+03  0.41800000000E+01 0. -1.
</event>
<event>
11    1  0.6455215E-009  0.2001810E+03  0.7561462E-02  0.1054396E+00
         22   -1    0    0    0    0  0.00000000000E+00  0.00000000000E+00  0.10053077554E+04  0.10053077554E+04  0.00000000000E+00 0. -1.
         22   -1    0    0    0    0 -0.00000000000E+00 -0.00000000000E+00 -0.15698339328E+04  0.15698339328E+04  0.00000000000E+00 0.  1.
        -24    2    1    2    0    0  0.35065326946E+02 -0.58993274998E+01 -0.15057122509E+04  0.15083332690E+04  0.81458508216E+02 0.  0.
         25    2    1    2    0    0 -0.11030734969E+03 -0.12891825816E+03  0.15541602230E+03  0.26188883827E+03  0.12507595668E+03 0.  0.
         24    2    1    2    0    0  0.75242022743E+02  0.13481758566E+03  0.78577005122E+03  0.80491958100E+03  0.81386823839E+02 0.  0.
        -11    1    5    5    0    0  0.60109336736E+02  0.36735661542E+02  0.23700673896E+03  0.24725459653E+03  0.00000000000E+00 0.  1.
         12    1    5    5    0    0  0.15132686007E+02  0.98081924119E+02  0.54876331227E+03  0.55766498448E+03  0.00000000000E+00 0. -1.
         11    1    3    3    0    0 -0.51350694340E+00  0.58833721882E+01 -0.70256383783E+01  0.91780908858E+01  0.00000000000E+00 0. -1.
        -12    1    3    3    0    0  0.35578833890E+02 -0.11782699688E+02 -0.14986866125E+04  0.14991551781E+04  0.00000000000E+00 0.  1.
          5    1    4    4  501    0 -0.21553240466E+02 -0.78658312128E+02  0.13500919661E+03  0.15778665283E+03  0.41800000000E+01 0.  1.
         -5    1    4    4    0  501 -0.88754109223E+02 -0.50259946033E+02  0.20406825694E+02  0.10410218544E+03  0.41800000000E+01 0.  1.
</event>
<event>
11    1  0.6455215E-009  0.2547283E+03  0.7561462E-02  0.1021410E+00
         22   -1    0    0    0    0  0.00000000000E+00  0.00000000000E+00  0.48419297295E+03  0.48419297295E+03  0.00000000000E+00 0. -1.
         22   -1    0    0    0    0 -0.00000000000E+00 -0.00000000000E+00 -0.95142065526E+03  0.95142065526E+03  0.00000000000E+00 0.  1.
         24    2    1    2    0    0 -0.10746964801E+03 -0.19762004344E+03 -0.88204694021E+03  0.91377267614E+03  0.79814109787E+02 0.  0.
         25    2    1    2    0    0  0.60356151703E+02  0.15902486211E+03  0.23635148767E+03  0.31692651128E+03  0.12509442836E+03 0.  0.
        -24    2    1    2    0    0  0.47113496304E+02  0.38595181327E+02  0.17846777023E+03  0.20491444079E+03  0.80186741286E+02 0.  0.
        -13    1    3    3    0    0 -0.10356105605E+03 -0.12129795511E+03 -0.52758788308E+03  0.55116881317E+03  0.00000000000E+00 0.  1.
         14    1    3    3    0    0 -0.39085919562E+01 -0.76322088325E+02 -0.35445905713E+03  0.36260386297E+03  0.00000000000E+00 0. -1.
         13    1    5    5    0    0  0.63618504268E+02  0.46503901650E+02  0.16260839503E+03  0.18069703121E+03  0.00000000000E+00 0. -1.
        -14    1    5    5    0    0 -0.16505007964E+02 -0.79087203236E+01  0.15859375202E+02  0.24217409582E+02  0.00000000000E+00 0.  1.
          5    1    4    4  501    0  0.35571007740E+02  0.52931651957E+02  0.86831624459E+01  0.64497488948E+02  0.41800000000E+01 0. -1.
         -5    1    4    4    0  501  0.24785143963E+02  0.10609321015E+03  0.22766832523E+03  0.25242902233E+03  0.41800000000E+01 0. -1.
</event>
<event>
11    1  0.6455215E-009  0.1879603E+03  0.7561462E-02  0.1063380E+00
         22   -1    0    0    0    0  0.00000000000E+00  0.00000000000E+00  0.19183068843E+03  0.19183068843E+03  0.00000000000E+00 0.  1.
         22   -1    0    0    0    0 -0.00000000000E+00 -0.00000000000E+00 -0.67544507316E+03  0.67544507316E+03  0.00000000000E+00 0.  1.
        -24    2    1    2    0    0 -0.96513213868E+02 -0.93504590668E+02 -0.50496547492E+03  0.52860613617E+03  0.79852410120E+02 0.  0.
         25    2    1    2    0    0  0.13595013454E+03  0.14022648051E+03 -0.12534234175E+02  0.23227303404E+03  0.12509096848E+03 0.  0.
         24    2    1    2    0    0 -0.39436920676E+02 -0.46721889838E+02  0.33885324360E+02  0.10639659139E+03  0.80211057524E+02 0.  0.
        -13    1    5    5    0    0  0.72700192299E+01 -0.53104643387E+02  0.20565601626E+02  0.57409932060E+02  0.00000000000E+00 0.  1.
         14    1    5    5    0    0 -0.46706939906E+02  0.63827535490E+01  0.13319722734E+02  0.48986659326E+02  0.00000000000E+00 0. -1.
         13    1    3    3    0    0 -0.54246163268E+02 -0.25337335310E+02 -0.10675233167E+03  0.12239561719E+03  0.00000000000E+00 0. -1.
        -14    1    3    3    0    0 -0.42267050600E+02 -0.68167255358E+02 -0.39821314326E+03  0.40621051898E+03  0.00000000000E+00 0.  1.
          5    1    4    4  501    0  0.35485870809E+02  0.50430260794E+02  0.53877253135E+02  0.81992005928E+02  0.41800000000E+01 0.  1.
         -5    1    4    4    0  501  0.10046426373E+03  0.89796219713E+02 -0.66411487309E+02  0.15028102811E+03  0.41800000000E+01 0.  1.
</event>
<event>
11    1  0.6455215E-009  0.1498264E+03  0.7561462E-02  0.1097056E+00
         22   -1    0    0    0    0  0.00000000000E+00  0.00000000000E+00  0.97101582256E+03  0.97101582256E+03  0.00000000000E+00 0.  1.
         22   -1    0    0    0    0 -0.00000000000E+00 -0.00000000000E+00 -0.27324147993E+04  0.27324147993E+04  0.00000000000E+00 0.  1.
         24    2    1    2    0    0 -0.18166296019E+02 -0.81973699586E+02 -0.25211536831E+04  0.25238542501E+04  0.81084400318E+02 0.  0.
         25    2    1    2    0    0  0.17461051453E+02  0.54971450534E+02 -0.18480936403E+03  0.23049024612E+03  0.12507799098E+03 0.  0.
        -24    2    1    2    0    0  0.70524456553E+00  0.27002249052E+02  0.94456407041E+03  0.94908612566E+03  0.88507468542E+02 0.  0.
        -13    1    3    3    0    0 -0.10220346751E+02 -0.96949312039E+02 -0.19334790603E+04  0.19359351490E+04  0.00000000000E+00 0.  1.
         14    1    3    3    0    0 -0.79459492681E+01  0.14975612453E+02 -0.58767462285E+03  0.58791910109E+03  0.00000000000E+00 0. -1.
         11    1    5    5    0    0 -0.32380633868E+02  0.46542353201E+01  0.15028777824E+03  0.15380696878E+03  0.00000000000E+00 0. -1.
        -12    1    5    5    0    0  0.33085878433E+02  0.22348013732E+02  0.79427629217E+03  0.79527915689E+03  0.00000000000E+00 0.  1.
          5    1    4    4  501    0 -0.20547141610E+02 -0.71227684146E+01 -0.14640922752E+03  0.14807448518E+03  0.41800000000E+01 0.  1.
         -5    1    4    4    0  501  0.38008193063E+02  0.62094218949E+02 -0.38400136517E+02  0.82415760940E+02  0.41800000000E+01 0.  1.
</event>
<event>
11    1  0.6455215E-009  0.1318130E+03  0.7561462E-02  0.1117061E+00
         22   -1    0    0    0    0  0.00000000000E+00  0.00000000000E+00  0.44584414581E+03  0.44584414581E+03  0.00000000000E+00 0.  1.
         22   -1    0    0    0    0 -0.00000000000E+00 -0.00000000000E+00 -0.53619361659E+03  0.53619361659E+03  0.00000000000E+00 0. -1.
         24    2    1    2    0    0 -0.17123762422E+02  0.85534152657E+01 -0.40949666398E+03  0.41790620609E+03  0.81189254999E+02 0.  0.
         25    2    1    2    0    0  0.55903108059E+02 -0.21363770960E+02 -0.76977837936E+02  0.15859993023E+03  0.12508709820E+03 0.  0.
        -24    2    1    2    0    0 -0.38779345637E+02  0.12810355694E+02  0.39612503113E+03  0.40553162608E+03  0.76634956779E+02 0.  0.
        -13    1    3    3    0    0  0.99001425403E+01 -0.32649969543E+02 -0.16280108136E+03  0.16633768492E+03  0.00000000000E+00 0.  1.
         14    1    3    3    0    0 -0.27023904963E+02  0.41203384808E+02 -0.24669558262E+03  0.25156852117E+03  0.00000000000E+00 0. -1.
         11    1    5    5    0    0  0.14460886591E+02  0.24887354842E+02  0.87424735000E+02  0.92041197091E+02  0.00000000000E+00 0. -1.
        -12    1    5    5    0    0 -0.53240232227E+02 -0.12076999147E+02  0.30870029613E+03  0.31349042899E+03  0.00000000000E+00 0.  1.
          5    1    4    4  501    0 -0.23727546714E+02 -0.40579646852E+02 -0.16287358761E+01  0.47221069368E+02  0.41800000000E+01 0.  1.
         -5    1    4    4    0  501  0.79630654773E+02  0.19215875892E+02 -0.75349102060E+02  0.11137886086E+03  0.41800000000E+01 0.  1.
</event>
<event>
11    1  0.6455215E-009  0.1310585E+03  0.7561462E-02  0.1117975E+00
         22   -1    0    0    0    0  0.00000000000E+00  0.00000000000E+00  0.48876005467E+03  0.48876005467E+03  0.00000000000E+00 0. -1.
         22   -1    0    0    0    0 -0.00000000000E+00 -0.00000000000E+00 -0.10271179668E+04  0.10271179668E+04  0.00000000000E+00 0.  1.
        -24    2    1    2    0    0  0.27720190920E+02  0.14550651096E+01 -0.98709724920E+03  0.99075771665E+03  0.80432254224E+02 0.  0.
         25    2    1    2    0    0 -0.46851557512E+02  0.30313610055E+02  0.11072279704E+03  0.17612345568E+03  0.12508377378E+03 0.  0.
         24    2    1    2    0    0  0.19131366592E+02 -0.31768675164E+02  0.33801654005E+03  0.34899684912E+03  0.78538916753E+02 0.  0.
        -11    1    5    5    0    0 -0.24025769292E+02  0.43662114814E+01  0.51401841195E+02  0.56907386788E+02  0.00000000000E+00 0.  1.
         12    1    5    5    0    0  0.43157135884E+02 -0.36134886646E+02  0.28661469885E+03  0.29208946234E+03  0.00000000000E+00 0. -1.
         11    1    3    3    0    0  0.26374883308E+02  0.22478015888E+02 -0.17558187035E+03  0.17896896061E+03  0.00000000000E+00 0. -1.
        -12    1    3    3    0    0  0.13453076119E+01 -0.21022950779E+02 -0.81151537885E+03  0.81178875603E+03  0.00000000000E+00 0.  1.
          5    1    4    4  501    0 -0.67110548617E+02  0.63221184470E+02  0.52686940930E+02  0.10627384460E+03  0.41800000000E+01 0. -1.
         -5    1    4    4    0  501  0.20258991106E+02 -0.32907574415E+02  0.58035856107E+02  0.69849611084E+02  0.41800000000E+01 0. -1.
</event>
<event>
11    1  0.6455215E-009  0.1636256E+03  0.7561462E-02  0.1083716E+00
         22   -1    0    0    0    0  0.00000000000E+00  0.00000000000E+00  0.37043024550E+03  0.37043024550E+03  0.00000000000E+00 0.  1.
         22   -1    0    0    0    0 -0.00000000000E+00 -0.00000000000E+00 -0.15948422915E+03  0.15948422915E+03  0.00000000000E+00 0.  1.
        -24    2    1    2    0    0 -0.99174028215E+01  0.41725592023E+02 -0.51675083800E+02  0.11043065286E+03  0.87665471522E+02 0.  0.
         25    2    1    2    0    0 -0.43897306442E+02 -0.12330227251E+03  0.81449680447E+02  0.19852648812E+03  0.12509313379E+03 0.  0.
         24    2    1    2    0    0  0.53814709263E+02  0.81576680491E+02  0.18117141970E+03  0.22095733367E+03  0.80301197076E+02 0.  0.
        -11    1    5    5    0    0  0.34322352663E+02  0.97720410695E+01  0.11824263716E+03  0.12351047697E+03  0.00000000000E+00 0.  1.
         12    1    5    5    0    0  0.19492356601E+02  0.71804639422E+02  0.62928782549E+02  0.97446856704E+02  0.00000000000E+00 0. -1.
         11    1    3    3    0    0  0.37096812620E+02  0.22788079893E+02 -0.96601026586E+01  0.44595825759E+02  0.00000000000E+00 0. -1.
        -12    1    3    3    0    0 -0.47014215441E+02  0.18937512131E+02 -0.42014981142E+02  0.65834827102E+02  0.00000000000E+00 0.  1.
          5    1    4    4  501    0  0.14764586528E+02 -0.11577550273E+03  0.75207208825E+02  0.13890844721E+03  0.41800000000E+01 0.  1.
         -5    1    4    4    0  501 -0.58661892970E+02 -0.75267697891E+01  0.62424716219E+01  0.59618040913E+02  0.41800000000E+01 0.  1.
</event>
<event>
11    1  0.6455215E-009  0.1392763E+03  0.7561462E-02  0.1108369E+00
         22   -1    0    0    0    0  0.00000000000E+00  0.00000000000E+00  0.39500102597E+03  0.39500102597E+03  0.00000000000E+00 0.  1.
         22   -1    0    0    0    0 -0.00000000000E+00 -0.00000000000E+00 -0.17511022203E+03  0.17511022203E+03  0.00000000000E+00 0.  1.
         24    2    1    2    0    0 -0.39594120254E+02  0.41190969009E+01 -0.11970336585E+03  0.14960503563E+03  0.80424558258E+02 0.  0.
         25    2    1    2    0    0  0.72418561462E+02  0.37072980036E+02  0.18447347947E+03  0.23726837277E+03  0.12508781794E+03 0.  0.
        -24    2    1    2    0    0 -0.32824441208E+02 -0.41192076937E+02  0.15512069033E+03  0.18323783960E+03  0.82094129823E+02 0.  0.
        -13    1    3    3    0    0 -0.35788907343E+02  0.37905107403E+02 -0.92019225301E+02  0.10576001551E+03  0.00000000000E+00 0.  1.
         14    1    3    3    0    0 -0.38052129113E+01 -0.33786010502E+02 -0.27684140549E+02  0.43845020114E+02  0.00000000000E+00 0. -1.
         13    1    5    5    0    0  0.19689931470E+01  0.19286044246E+02  0.72747633984E+02  0.75286430962E+02  0.00000000000E+00 0. -1.
        -14    1    5    5    0    0 -0.34793434355E+02 -0.60478121183E+02  0.82373056341E+02  0.10795140864E+03  0.00000000000E+00 0.  1.
          5    1    4    4  501    0 -0.31439103753E+02  0.10714225552E+02  0.14918265110E+02  0.36650223844E+02  0.41800000000E+01 0.  1.
         -5    1    4    4    0  501  0.10385766522E+03  0.26358754484E+02  0.16955521436E+03  0.20061814893E+03  0.41800000000E+01 0.  1.
</event>
<event>
11    1  0.6455215E-009  0.2269280E+03  0.7561462E-02  0.1036962E+00
         22   -1    0    0    0    0  0.00000000000E+00  0.00000000000E+00  0.53507303521E+03  0.53507303521E+03  0.00000000000E+00 0. -1.
         22   -1    0    0    0    0 -0.00000000000E+00 -0.00000000000E+00 -0.22176519350E+04  0.22176519350E+04  0.00000000000E+00 0. -1.
        -24    2    1    2    0    0 -0.27456178905E+02 -0.19854279673E+02 -0.17336901960E+04  0.17359143906E+04  0.81049624822E+02 0.  0.
         25    2    1    2    0    0  0.14883835115E+03  0.16330034329E+03 -0.42713370451E+03  0.49690396306E+03  0.12510191881E+03 0.  0.
         24    2    1    2    0    0 -0.12138217225E+03 -0.14344606361E+03  0.47824500065E+03  0.51990661658E+03  0.79209875726E+02 0.  0.
        -11    1    5    5    0    0 -0.67039985458E+02 -0.30683573420E+02  0.12480549705E+03  0.14495603962E+03  0.00000000000E+00 0.  1.
         12    1    5    5    0    0 -0.54342186789E+02 -0.11276249019E+03  0.35343950360E+03  0.37495057696E+03  0.00000000000E+00 0. -1.
         11    1    3    3    0    0  0.40260405397E+01 -0.33021797310E+02 -0.14170904202E+04  0.14174808313E+04  0.00000000000E+00 0. -1.
        -12    1    3    3    0    0 -0.31482219444E+02  0.13167517637E+02 -0.31659977575E+03  0.31843355926E+03  0.00000000000E+00 0.  1.
          5    1    4    4  501    0  0.49273738206E+02 -0.13234148005E+02 -0.86284398322E+02  0.10032703396E+03  0.41800000000E+01 0.  1.
         -5    1    4    4    0  501  0.99564612947E+02  0.17653449129E+03 -0.34084930618E+03  0.39657692910E+03  0.41800000000E+01 0.  1.
</event>
<event>
11    1  0.6455215E-009  0.2310799E+03  0.7561462E-02  0.1034490E+00
         22   -1    0    0    0    0  0.00000000000E+00  0.00000000000E+00  0.70154744627E+03  0.70154744627E+03  0.00000000000E+00 0. -1.
         22   -1    0    0    0    0 -0.00000000000E+00 -0.00000000000E+00 -0.10936289867E+04  0.10936289867E+04  0.00000000000E+00 0. -1.
        -24    2    1    2    0    0 -0.10248567176E+02 -0.19213450283E+03 -0.10120188023E+04  0.10333379000E+04  0.81144679867E+02 0.  0.
         25    2    1    2    0    0 -0.42895826919E+02  0.25728911823E+03  0.27990582787E+03  0.40252988387E+03  0.12508114408E+03 0.  0.
         24    2    1    2    0    0  0.53144394095E+02 -0.65154615401E+02  0.34003143404E+03  0.35930864904E+03  0.80074206877E+02 0.  0.
        -11    1    5    5    0    0 -0.63253339644E+01 -0.21045772692E+02  0.16682074742E+02  0.27590324675E+02  0.00000000000E+00 0.  1.
         12    1    5    5    0    0  0.59469728059E+02 -0.44108842709E+02  0.32334935930E+03  0.33171832437E+03  0.00000000000E+00 0. -1.
         13    1    3    3    0    0  0.21436625810E+02 -0.16665445968E+03 -0.79991859215E+03  0.81737567368E+03  0.00000000000E+00 0. -1.
        -14    1    3    3    0    0 -0.31685192986E+02 -0.25480043155E+02 -0.21210021016E+03  0.21596222634E+03  0.00000000000E+00 0.  1.
          5    1    4    4  501    0 -0.39963079431E+02  0.33921056972E+02  0.10971749659E+03  0.12166793860E+03  0.41800000000E+01 0. -1.
         -5    1    4    4    0  501 -0.29327474876E+01  0.22336806126E+03  0.17018833128E+03  0.28086194527E+03  0.41800000000E+01 0. -1.
</event>
<event>
11    1  0.6455215E-009  0.1330497E+03  0.7561462E-02  0.1115578E+00
         22   -1    0    0    0    0  0.00000000000E+00  0.00000000000E+00  0.17604780780E+04  0.17604780780E+04  0.00000000000E+00 0. -1.
         22   -1    0    0    0    0 -0.00000000000E+00 -0.00000000000E+00 -0.52443123786E+03  0.52443123786E+03  0.00000000000E+00 0. -1.
        -24    2    1    2    0    0 -0.20772657799E+02  0.17182596780E+02 -0.50512122882E+03  0.51197464595E+03  0.79017955879E+02 0.  0.
         25    2    1    2    0    0 -0.21097416911E+02  0.57858448781E+01  0.26570848503E+03  0.29450203088E+03  0.12510743453E+03 0.  0.
         24    2    1    2    0    0  0.41870074711E+02 -0.22968441658E+02  0.14754595840E+04  0.14784326391E+04  0.80631457044E+02 0.  0.
        -11    1    5    5    0    0  0.21154511663E+02 -0.38692949712E+02  0.36295637401E+03  0.36562547389E+03  0.00000000000E+00 0.  1.
         12    1    5    5    0    0  0.20715563047E+02  0.15724508054E+02  0.11125032100E+04  0.11128071652E+04  0.00000000000E+00 0. -1.
         13    1    3    3    0    0 -0.46903406326E+02  0.20013885279E+02 -0.22920314529E+03  0.23480751040E+03  0.00000000000E+00 0. -1.
        -14    1    3    3    0    0  0.26130748526E+02 -0.28312884992E+01 -0.27591808353E+03  0.27716713555E+03  0.00000000000E+00 0.  1.
          5    1    4    4  501    0  0.37218519482E+02 -0.12999269104E+02  0.20261566549E+03  0.20645769419E+03  0.41800000000E+01 0. -1.
         -5    1    4    4    0  501 -0.58315936393E+02  0.18785113982E+02  0.63092819536E+02  0.88044336682E+02  0.41800000000E+01 0. -1.
</event>
<event>
11    1  0.6455215E-009  0.2185857E+03  0.7561462E-02  0.1042107E+00
         22   -1    0    0    0    0  0.00000000000E+00  0.00000000000E+00  0.15682808401E+04  0.15682808401E+04  0.00000000000E+00 0. -1.
         22   -1    0    0    0    0 -0.00000000000E+00 -0.00000000000E+00 -0.47177217708E+03  0.47177217708E+03  0.00000000000E+00 0.  1.
        -24    2    1    2    0    0 -0.64762754973E+02  0.16299442844E+03 -0.33579321311E+03  0.38676411935E+03  0.77897393449E+02 0.  0.
         25    2    1    2    0    0  0.93357055610E+02 -0.17629890608E+03  0.17833873406E+02  0.23613850238E+03  0.12508597503E+03 0.  0.
         24    2    1    2    0    0 -0.28594300636E+02  0.13304477637E+02  0.14144680027E+04  0.14171503955E+04  0.81245735035E+02 0.  0.
        -11    1    5    5    0    0  0.21630588586E+02  0.93847443669E+01  0.16597858499E+03  0.16764500131E+03  0.00000000000E+00 0.  1.
         12    1    5    5    0    0 -0.50224889223E+02  0.39197332705E+01  0.12484894177E+04  0.12495053941E+04  0.00000000000E+00 0. -1.
         11    1    3    3    0    0 -0.55272756360E+02  0.10603372336E+03 -0.14786394060E+03  0.19016301695E+03  0.00000000000E+00 0. -1.
        -12    1    3    3    0    0 -0.94899986132E+01  0.56960705083E+02 -0.18792927251E+03  0.19660110240E+03  0.00000000000E+00 0.  1.
          5    1    4    4  501    0  0.11888196975E+03 -0.14074335443E+03 -0.92260034799E+01  0.18451072080E+03  0.41800000000E+01 0. -1.
         -5    1    4    4    0  501 -0.25524914138E+02 -0.35555551642E+02  0.27059876886E+02  0.51627781585E+02  0.41800000000E+01 0. -1.
</event>
<event>
11    1  0.6455215E-009  0.1310407E+03  0.7561462E-02  0.1117997E+00
         22   -1    0    0    0    0  0.00000000000E+00  0.00000000000E+00  0.12606590713E+04  0.12606590713E+04  0.00000000000E+00 0. -1.
         22   -1    0    0    0    0 -0.00000000000E+00 -0.00000000000E+00 -0.30981121291E+03  0.30981121291E+03  0.00000000000E+00 0. -1.
        -24    2    1    2    0    0  0.12218213790E+01 -0.39137811464E+02 -0.29027436672E+03  0.30376835730E+03  0.80515500300E+02 0.  0.
         25    2    1    2    0    0  0.17032203540E+02  0.33275169767E+02  0.38267163832E+03  0.40432871616E+03  0.12508714986E+03 0.  0.
         24    2    1    2    0    0 -0.18254024919E+02  0.58626416966E+01  0.85845058681E+03  0.86237321076E+03  0.79890954721E+02 0.  0.
        -13    1    5    5    0    0 -0.22044265752E+02 -0.19491723605E+02  0.12281032963E+03  0.12628639675E+03  0.00000000000E+00 0.  1.
         14    1    5    5    0    0  0.37902408327E+01  0.25354365302E+02  0.73564025718E+03  0.73608681400E+03  0.00000000000E+00 0. -1.
         13    1    3    3    0    0  0.20092917920E+02 -0.17636205280E+02 -0.26262525036E+03  0.26398254339E+03  0.00000000000E+00 0. -1.
        -14    1    3    3    0    0 -0.18871096541E+02 -0.21501606183E+02 -0.27649116360E+02  0.39785813911E+02  0.00000000000E+00 0.  1.
          5    1    4    4  501    0  0.67475711574E+02  0.23453879944E+02  0.28543055205E+03  0.29426370585E+03  0.41800000000E+01 0. -1.
         -5    1    4    4    0  501 -0.50443508034E+02  0.98212898231E+01  0.97241086274E+02  0.11006501032E+03  0.41800000000E+01 0. -1.
</event>
<event>
11    1  0.6455215E-009  0.1447484E+03  0.7561462E-02  0.1102369E+00
         22   -1    0    0    0    0  0.00000000000E+00  0.00000000000E+00  0.34452870418E+04  0.34452870418E+04  0.00000000000E+00 0. -1.
         22   -1    0    0    0    0 -0.00000000000E+00 -0.00000000000E+00 -0.25248310430E+03  0.25248310430E+03  0.00000000000E+00 0. -1.
         24    2    1    2    0    0 -0.61638724214E+00  0.32195510182E+02 -0.23513824649E+03  0.25053910143E+03  0.80267774186E+02 0.  0.
         25    2    1    2    0    0  0.43942078906E+02 -0.87150165497E+02  0.72403482182E+03  0.74121710467E+03  0.12510122064E+03 0.  0.
        -24    2    1    2    0    0 -0.43325691664E+02  0.54954655315E+02  0.27039073622E+04  0.27060139400E+04  0.80618177160E+02 0.  0.
        -11    1    3    3    0    0 -0.32965301954E+02 -0.80369746666E+01 -0.75835628398E+02  0.83080362476E+02  0.00000000000E+00 0.  1.
         12    1    3    3    0    0  0.32348914712E+02  0.40232484848E+02 -0.15930261810E+03  0.16745873896E+03  0.00000000000E+00 0. -1.
         11    1    5    5    0    0 -0.67810941517E+01  0.60923871029E+02  0.21480990707E+04  0.21489735500E+04  0.00000000000E+00 0. -1.
        -12    1    5    5    0    0 -0.36544597512E+02 -0.59692157145E+01  0.55580829154E+03  0.55704038999E+03  0.00000000000E+00 0.  1.
          5    1    4    4  501    0  0.46846428522E+02 -0.11679031196E+03  0.63112980295E+03  0.64356574287E+03  0.41800000000E+01 0. -1.
         -5    1    4    4    0  501 -0.29043496167E+01  0.29640146463E+02  0.92905018873E+02  0.97651361797E+02  0.41800000000E+01 0. -1.
</event>
<event>
11    1  0.6455215E-009  0.1620142E+03  0.7561462E-02  0.1085198E+00
         22   -1    0    0    0    0  0.00000000000E+00  0.00000000000E+00  0.12980819807E+03  0.12980819807E+03  0.00000000000E+00 0.  1.
         22   -1    0    0    0    0 -0.00000000000E+00 -0.00000000000E+00 -0.29150889308E+04  0.29150889308E+04  0.00000000000E+00 0. -1.
        -24    2    1    2    0    0  0.63069450822E+02  0.79374534222E+02 -0.26816234340E+04  0.26847117346E+04  0.79339671916E+02 0.  0.
         25    2    1    2    0    0 -0.92669026259E+02 -0.12388058273E+03 -0.14542105439E+03  0.24643229586E+03  0.12509055190E+03 0.  0.
         24    2    1    2    0    0  0.29599575437E+02  0.44506048512E+02  0.41763755670E+02  0.11375309845E+03  0.91316115218E+02 0.  0.
        -11    1    5    5    0    0  0.23703474169E+02  0.70738330509E+02  0.44269326949E+02  0.86749866855E+02  0.00000000000E+00 0.  1.
         12    1    5    5    0    0  0.58961012679E+01 -0.26232281997E+02 -0.25055712790E+01  0.27003231592E+02  0.00000000000E+00 0. -1.
         11    1    3    3    0    0  0.50343482660E+02  0.74911418053E+02 -0.13471245676E+04  0.13501447284E+04  0.00000000000E+00 0. -1.
        -12    1    3    3    0    0  0.12725968162E+02  0.44631161690E+01 -0.13344988664E+04  0.13345670062E+04  0.00000000000E+00 0.  1.
          5    1    4    4  501    0 -0.29128314280E+02  0.23803802153E+02 -0.32912799792E+02  0.50157795804E+02  0.41800000000E+01 0. -1.
         -5    1    4    4    0  501 -0.63540711980E+02 -0.14768438489E+03 -0.11250825460E+03  0.19627450006E+03  0.41800000000E+01 0. -1.
</event>
<event>
11    1  0.6455215E-009  0.1458435E+03  0.7561462E-02  0.1101203E+00
         22   -1    0    0    0    0  0.00000000000E+00  0.00000000000E+00  0.20633938074E+04  0.20633938074E+04  0.00000000000E+00 0.  1.
         22   -1    0    0    0    0 -0.00000000000E+00 -0.00000000000E+00 -0.23375572397E+03  0.23375572397E+03  0.00000000000E+00 0. -1.
        -24    2    1    2    0    0 -0.59702782125E+02 -0.48811217695E+02 -0.19109121136E+03  0.22133380521E+03  0.80782703002E+02 0.  0.
         25    2    1    2    0    0  0.76556712226E+01 -0.11420051486E+02  0.12718790331E+03  0.17892260991E+03  0.12509001043E+03 0.  0.
         24    2    1    2    0    0  0.52047110902E+02  0.60231269181E+02  0.18935413915E+04  0.18968931163E+04  0.79798406529E+02 0.  0.
        -13    1    5    5    0    0  0.40108830108E+02  0.79156820124E+02  0.16249770773E+04  0.16273982371E+04  0.00000000000E+00 0.  1.
         14    1    5    5    0    0  0.11938280794E+02 -0.18925550943E+02  0.26856431420E+03  0.26949487915E+03  0.00000000000E+00 0. -1.
         11    1    3    3    0    0 -0.38893376119E+02 -0.68317660944E+02 -0.16458836262E+03  0.18239881198E+03  0.00000000000E+00 0. -1.
        -12    1    3    3    0    0 -0.20809406006E+02  0.19506443248E+02 -0.26502848745E+02  0.38934993234E+02  0.00000000000E+00 0.  1.
          5    1    4    4  501    0 -0.46045797642E+02 -0.12870441131E+02  0.87234938233E+01  0.48779457560E+02  0.41800000000E+01 0. -1.
         -5    1    4    4    0  501  0.53701468864E+02  0.14503896458E+01  0.11846440948E+03  0.13014315235E+03  0.41800000000E+01 0. -1.
</event>
<event>
11    1  0.6455215E-009  0.1412269E+03  0.7561462E-02  0.1106196E+00
         22   -1    0    0    0    0  0.00000000000E+00  0.00000000000E+00  0.16136606875E+03  0.16136606875E+03  0.00000000000E+00 0.  1.
         22   -1    0    0    0    0 -0.00000000000E+00 -0.00000000000E+00 -0.43102724328E+03  0.43102724328E+03  0.00000000000E+00 0. -1.
         24    2    1    2    0    0  0.16276136038E+02 -0.77318377003E+02 -0.26611552018E+03  0.28901762387E+03  0.80440492320E+02 0.  0.
         25    2    1    2    0    0 -0.30191348449E+02  0.21286945280E+02 -0.10258513401E+03  0.16593868178E+03  0.12508910756E+03 0.  0.
        -24    2    1    2    0    0  0.13915212411E+02  0.56031431724E+02  0.99039479650E+02  0.13743700639E+03  0.75808691571E+02 0.  0.
        -11    1    3    3    0    0  0.27318989577E+02 -0.56232157418E+02 -0.80710810487E+02  0.10209122219E+03  0.00000000000E+00 0.  1.
         12    1    3    3    0    0 -0.11042853539E+02 -0.21086219586E+02 -0.18540470969E+03  0.18692640168E+03  0.00000000000E+00 0. -1.
         13    1    5    5    0    0  0.36591849153E+01  0.51225117810E+02  0.16233902781E+02  0.53860392947E+02  0.00000000000E+00 0. -1.
        -14    1    5    5    0    0  0.10256027496E+02  0.48063139137E+01  0.82805576869E+02  0.83576613439E+02  0.00000000000E+00 0.  1.
          5    1    4    4  501    0  0.45457288059E+02  0.25340585200E+02 -0.26747727562E+02  0.58663648247E+02  0.41800000000E+01 0. -1.
         -5    1    4    4    0  501 -0.75648636508E+02 -0.40536399208E+01 -0.75837406445E+02  0.10727503353E+03  0.41800000000E+01 0. -1.
</event>
<event>
11    1  0.6455215E-009  0.1489734E+03  0.7561462E-02  0.1097932E+00
         22   -1    0    0    0    0  0.00000000000E+00  0.00000000000E+00  0.27166389916E+04  0.27166389916E+04  0.00000000000E+00 0.  1.
         22   -1    0    0    0    0 -0.00000000000E+00 -0.00000000000E+00 -0.80889643106E+02  0.80889643106E+02  0.00000000000E+00 0.  1.
        -24    2    1    2    0    0 -0.23936013368E+02 -0.41241424807E+02 -0.44859250828E+02  0.10335006855E+03  0.79969346805E+02 0.  0.
         25    2    1    2    0    0  0.83368228448E+02  0.69064905994E+02  0.16063569545E+04  0.16148528536E+04  0.12508737209E+03 0.  0.
         24    2    1    2    0    0 -0.59432215080E+02 -0.27823481188E+02  0.10742516448E+04  0.10793257125E+04  0.81369915515E+02 0.  0.
        -11    1    5    5    0    0 -0.64922380907E+02 -0.40137877971E+02  0.59388266057E+03  0.59876755032E+03  0.00000000000E+00 0.  1.
         12    1    5    5    0    0  0.54901658270E+01  0.12314396783E+02  0.48036898418E+03  0.48055816220E+03  0.00000000000E+00 0. -1.
         13    1    3    3    0    0 -0.27495409424E+02 -0.54877169248E+02 -0.55962865193E+01  0.61634565520E+02  0.00000000000E+00 0. -1.
        -14    1    3    3    0    0  0.35593960564E+01  0.13635744441E+02 -0.39262964309E+02  0.41715503030E+02  0.00000000000E+00 0.  1.
          5    1    4    4  501    0  0.43693850194E+02  0.10369039555E+03  0.10863641454E+04  0.10921837664E+04  0.41800000000E+01 0. -1.
         -5    1    4    4    0  501  0.39674378254E+02 -0.34625489553E+02  0.51999280914E+03  0.52266908726E+03  0.41800000000E+01 0. -1.
</event>
<event>
11    1  0.6455215E-009  0.1744916E+03  0.7561462E-02  0.1074188E+00
         22   -1    0    0    0    0  0.00000000000E+00  0.00000000000E+00  0.94933758365E+03  0.94933758365E+03  0.00000000000E+00 0.  1.
         22   -1    0    0    0    0 -0.00000000000E+00 -0.00000000000E+00 -0.22113112972E+03  0.22113112972E+03  0.00000000000E+00 0.  1.
        -24    2    1    2    0    0  0.92396133141E+02  0.54428523910E+02 -0.73282014656E+02  0.15548951742E+03  0.85482318176E+02 0.  0.
         25    2    1    2    0    0 -0.13970093011E+03 -0.68493654579E+02 -0.79074591180E+01  0.19979482974E+03  0.12509082896E+03 0.  0.
         24    2    1    2    0    0  0.47304796973E+02  0.14065130670E+02  0.80939592771E+03  0.81518436621E+03  0.83475813294E+02 0.  0.
        -11    1    5    5    0    0  0.63902635528E+02 -0.10423481942E+02  0.45937734925E+03  0.46391782118E+03  0.00000000000E+00 0.  1.
         12    1    5    5    0    0 -0.16597838555E+02  0.24488612611E+02  0.35001857846E+03  0.35126654503E+03  0.00000000000E+00 0. -1.
         11    1    3    3    0    0  0.67834047401E+00 -0.15018899551E+02  0.55520112574E+01  0.16026612822E+02  0.00000000000E+00 0. -1.
        -12    1    3    3    0    0  0.91717792667E+02  0.69447423461E+02 -0.78834025914E+02  0.13946290460E+03  0.00000000000E+00 0.  1.
          5    1    4    4  501    0 -0.12791808033E+03 -0.70914740029E+02  0.38804882087E+02  0.15137776225E+03  0.41800000000E+01 0.  1.
         -5    1    4    4    0  501 -0.11782849780E+02  0.24210854499E+01 -0.46712341205E+02  0.48417067493E+02  0.41800000000E+01 0.  1.
</event>
<event>
11    1  0.6455215E-009  0.2006401E+03  0.7561462E-02  0.1054072E+00
         22   -1    0    0    0    0  0.00000000000E+00  0.00000000000E+00  0.12456322014E+04  0.12456322014E+04  0.00000000000E+00 0.  1.
         22   -1    0    0    0    0 -0.00000000000E+00 -0.00000000000E+00 -0.41346906354E+03  0.41346906354E+03  0.00000000000E+00 0.  1.
         24    2    1    2    0    0 -0.11255583292E+02  0.53392542054E+02 -0.31334527407E+03  0.32794177104E+03  0.79894259564E+02 0.  0.
         25    2    1    2    0    0  0.11290805976E+03 -0.16799296980E+03  0.79644168065E+02  0.25091891724E+03  0.12508893500E+03 0.  0.
        -24    2    1    2    0    0 -0.10165247647E+03  0.11460042775E+03  0.10658642439E+04  0.10802405767E+04  0.85945524140E+02 0.  0.
        -11    1    3    3    0    0 -0.31010244732E+01  0.22874787335E+02 -0.28364743058E+03  0.28458520187E+03  0.00000000000E+00 0.  1.
         12    1    3    3    0    0 -0.81545588185E+01  0.30517754719E+02 -0.29697843489E+02  0.43356569174E+02  0.00000000000E+00 0. -1.
         11    1    5    5    0    0 -0.69670135062E+02  0.61266979241E+02  0.36440202556E+03  0.37602713558E+03  0.00000000000E+00 0. -1.
        -12    1    5    5    0    0 -0.31982341406E+02  0.53333448507E+02  0.70146221834E+03  0.70421344112E+03  0.00000000000E+00 0.  1.
          5    1    4    4  501    0  0.43763331924E+02 -0.65416553710E+02  0.98030129078E+02  0.12578526673E+03  0.41800000000E+01 0.  1.
         -5    1    4    4    0  501  0.69144727835E+02 -0.10257641609E+03 -0.18385961012E+02  0.12513365050E+03  0.41800000000E+01 0.  1.
</event>
<event>
11    1  0.1058176E-008  0.1470597E+03  0.7561462E-02  0.1099922E+00
         22   -1    0    0    0    0  0.00000000000E+00  0.00000000000E+00  0.21219109818E+04  0.21219109818E+04  0.00000000000E+00 0. -1.
         22   -1    0    0    0    0 -0.00000000000E+00 -0.00000000000E+00 -0.43116027009E+03  0.43116027009E+03  0.00000000000E+00 0.  1.
        -24    2    1    2    0    0 -0.15901932552E+02  0.13167213428E+02 -0.28848902559E+03  0.30000884157E+03  0.79706587974E+02 0.  0.
         25    2    1    2    0    0  0.82292255020E+01 -0.89976541615E+02 -0.91438407911E+02  0.17936788973E+03  0.12509340202E+03 0.  0.
         24    2    1    2    0    0  0.76727070504E+01  0.76809328187E+02  0.20706781452E+04  0.20736945206E+04  0.80885353328E+02 0.  0.
        -11    1    5    5    0    0 -0.20214213499E+02 -0.72855416529E+01  0.27845421218E+03  0.27928201128E+03  0.00000000000E+00 0.  1.
         12    1    5    5    0    0  0.27886920549E+02  0.84094869840E+02  0.17922239330E+04  0.17944125093E+04  0.00000000000E+00 0. -1.
         11    1    3    3    0    0  0.14868928222E+02  0.16467327802E+02 -0.20401495437E+02  0.30140984182E+02  0.00000000000E+00 0. -1.
        -12    1    3    3    0    0 -0.30770860775E+02 -0.33001143738E+01 -0.26808753015E+03  0.26986785739E+03  0.00000000000E+00 0.  1.
          5    1    4    4  501    0 -0.47302072347E+02 -0.50870261284E+02 -0.55795305598E+01  0.69813129802E+02  0.41800000000E+01 0. -1.
         -5    1    4    4    0  501  0.55531297849E+02 -0.39106280331E+02 -0.85858877352E+02  0.10955475992E+03  0.41800000000E+01 0. -1.
</event>
<event>
11    1  0.6455215E-009  0.2592475E+03  0.7561462E-02  0.1019085E+00
         22   -1    0    0    0    0  0.00000000000E+00  0.00000000000E+00  0.14949408061E+04  0.14949408061E+04  0.00000000000E+00 0. -1.
         22   -1    0    0    0    0 -0.00000000000E+00 -0.00000000000E+00 -0.57981317092E+03  0.57981317092E+03  0.00000000000E+00 0.  1.
         24    2    1    2    0    0  0.45426163034E+01  0.22824759657E+03 -0.50847394693E+03  0.56291363280E+03  0.78793417100E+02 0.  0.
         25    2    1    2    0    0 -0.31854230758E+02 -0.21028615990E+03  0.31613817850E+03  0.40103072658E+03  0.12508930688E+03 0.  0.
        -24    2    1    2    0    0  0.27311614454E+02 -0.17961436666E+02  0.11074634036E+04  0.11108096176E+04  0.79713730263E+02 0.  0.
        -11    1    3    3    0    0 -0.30257743921E+00  0.23399158262E+03 -0.49231836924E+03  0.54509588971E+03  0.00000000000E+00 0.  1.
         12    1    3    3    0    0  0.48451937426E+01 -0.57439860484E+01 -0.16155577695E+02  0.17817743089E+02  0.00000000000E+00 0. -1.
         11    1    5    5    0    0  0.21835754606E+02  0.97587022878E+01  0.97827323985E+03  0.97856556462E+03  0.00000000000E+00 0. -1.
        -12    1    5    5    0    0  0.54758598480E+01 -0.27720138954E+02  0.12919016376E+03  0.13224405302E+03  0.00000000000E+00 0.  1.
          5    1    4    4  501    0  0.27818993489E+02 -0.15107573815E+02  0.10743241001E+02  0.33690129304E+02  0.41800000000E+01 0. -1.
         -5    1    4    4    0  501 -0.59673224247E+02 -0.19517858609E+03  0.30539493750E+03  0.36734059728E+03  0.41800000000E+01 0. -1.
</event>
<event>
11    1  0.6455215E-009  0.1675579E+03  0.7561462E-02  0.1080177E+00
         22   -1    0    0    0    0  0.00000000000E+00  0.00000000000E+00  0.62476483207E+03  0.62476483207E+03  0.00000000000E+00 0.  1.
         22   -1    0    0    0    0 -0.00000000000E+00 -0.00000000000E+00 -0.11615278758E+04  0.11615278758E+04  0.00000000000E+00 0.  1.
        -24    2    1    2    0    0 -0.10853384526E+03 -0.22128085056E+02 -0.11086682212E+04  0.11170900837E+04  0.80472247013E+02 0.  0.
         25    2    1    2    0    0  0.14181697013E+03  0.82922007633E+02  0.21971956221E+03  0.30151673544E+03  0.12509014096E+03 0.  0.
         24    2    1    2    0    0 -0.33283124867E+02 -0.60793922577E+02  0.35218561529E+03  0.36768588876E+03  0.79715354539E+02 0.  0.
        -13    1    5    5    0    0 -0.37159025759E+02 -0.20542235020E+01  0.21802399996E+03  0.22117747983E+03  0.00000000000E+00 0.  1.
         14    1    5    5    0    0  0.38759008920E+01 -0.58739699075E+02  0.13416161534E+03  0.14650840892E+03  0.00000000000E+00 0. -1.
         11    1    3    3    0    0 -0.80598267954E+01 -0.25590262975E+02 -0.10402171660E+03  0.10742597401E+03  0.00000000000E+00 0. -1.
        -12    1    3    3    0    0 -0.10047401847E+03  0.34621779188E+01 -0.10046465046E+04  0.10096641097E+04  0.00000000000E+00 0.  1.
          5    1    4    4  501    0  0.26535484407E+02  0.68357761251E+02  0.30713389045E+02  0.79609673549E+02  0.41800000000E+01 0.  1.
         -5    1    4    4    0  501  0.11528148572E+03  0.14564246382E+02  0.18900617316E+03  0.22190706189E+03  0.41800000000E+01 0.  1.
</event>
<event>
11    1  0.6455215E-009  0.1684117E+03  0.7561462E-02  0.1079422E+00
         22   -1    0    0    0    0  0.00000000000E+00  0.00000000000E+00  0.73168225400E+03  0.73168225400E+03  0.00000000000E+00 0.  1.
         22   -1    0    0    0    0 -0.00000000000E+00 -0.00000000000E+00 -0.15464164692E+03  0.15464164692E+03  0.00000000000E+00 0.  1.
        -24    2    1    2    0    0 -0.15854279845E+02 -0.67101175500E+01 -0.10362695826E+03  0.13207340736E+03  0.80052823737E+02 0.  0.
         25    2    1    2    0    0 -0.66817498482E+01 -0.10660637074E+03  0.23405489992E+03  0.28606826206E+03  0.12507513869E+03 0.  0.
         24    2    1    2    0    0  0.22536029693E+02  0.11331648829E+03  0.44661266542E+03  0.46818223150E+03  0.79895117660E+02 0.  0.
        -13    1    5    5    0    0 -0.58221129772E+01  0.93805152234E+02  0.39581489253E+03  0.40682027080E+03  0.00000000000E+00 0.  1.
         14    1    5    5    0    0  0.28358142670E+02  0.19511336057E+02  0.50797772891E+02  0.61361960701E+02  0.00000000000E+00 0. -1.
         11    1    3    3    0    0 -0.35856801095E+02  0.25429603930E+02 -0.52979403552E+02  0.68841790662E+02  0.00000000000E+00 0. -1.
        -12    1    3    3    0    0  0.20002521251E+02 -0.32139721480E+02 -0.50647554705E+02  0.63231616702E+02  0.00000000000E+00 0.  1.
          5    1    4    4  501    0 -0.27985970942E+02  0.10682134247E+02  0.10953974082E+03  0.11363868083E+03  0.41800000000E+01 0.  1.
         -5    1    4    4    0  501  0.21304221094E+02 -0.11728850499E+03  0.12451515910E+03  0.17242958123E+03  0.41800000000E+01 0.  1.
</event>
<event>
11    1  0.6455215E-009  0.1976666E+03  0.7561462E-02  0.1056186E+00
         22   -1    0    0    0    0  0.00000000000E+00  0.00000000000E+00  0.27712306368E+03  0.27712306368E+03  0.00000000000E+00 0. -1.
         22   -1    0    0    0    0 -0.00000000000E+00 -0.00000000000E+00 -0.84340946076E+03  0.84340946076E+03  0.00000000000E+00 0. -1.
        -24    2    1    2    0    0  0.25891485943E+02  0.14874271136E+03 -0.58868190672E+03  0.61285126721E+03  0.79028635244E+02 0.  0.
         25    2    1    2    0    0  0.68448931330E+01 -0.16360884237E+03 -0.18853479498E+03  0.27929679180E+03  0.12508646261E+03 0.  0.
         24    2    1    2    0    0 -0.32736379076E+02  0.14866131007E+02  0.21093030464E+03  0.22838446543E+03  0.79844838718E+02 0.  0.
        -13    1    5    5    0    0 -0.30354430493E+02  0.25584108073E+02  0.37507862499E+02  0.54614812878E+02  0.00000000000E+00 0.  1.
         14    1    5    5    0    0 -0.23819485832E+01 -0.10717977066E+02  0.17342244214E+03  0.17376965255E+03  0.00000000000E+00 0. -1.
         13    1    3    3    0    0  0.50213951419E+02  0.71423397247E+02 -0.25766775183E+03  0.27205773822E+03  0.00000000000E+00 0. -1.
        -14    1    3    3    0    0 -0.24322465476E+02  0.77319314115E+02 -0.33101415490E+03  0.34079352899E+03  0.00000000000E+00 0.  1.
          5    1    4    4  501    0  0.20615205914E+02 -0.91787923508E+02 -0.21044799370E+02  0.96490235762E+02  0.41800000000E+01 0. -1.
         -5    1    4    4    0  501 -0.13770312781E+02 -0.71820918861E+02 -0.16748999561E+03  0.18280655604E+03  0.41800000000E+01 0. -1.
</event>
<event>
11    1  0.6455215E-009  0.1555969E+03  0.7561462E-02  0.1091293E+00
         22   -1    0    0    0    0  0.00000000000E+00  0.00000000000E+00  0.10914047184E+04  0.10914047184E+04  0.00000000000E+00 0. -1.
         22   -1    0    0    0    0 -0.00000000000E+00 -0.00000000000E+00 -0.67892893888E+02  0.67892893888E+02  0.00000000000E+00 0.  1.
        -24    2    1    2    0    0  0.51729613722E+02  0.80554450215E+02  0.16451815388E+02  0.12607879418E+03  0.80375541847E+02 0.  0.
         25    2    1    2    0    0 -0.44127491012E+02 -0.51245828184E+02  0.55964167424E+03  0.57742514713E+03  0.12509047374E+03 0.  0.
         24    2    1    2    0    0 -0.76021227101E+01 -0.29308622031E+02  0.44741833487E+03  0.45579367097E+03  0.81534756514E+02 0.  0.
        -11    1    5    5    0    0 -0.19610915003E+02 -0.10153453441E+02  0.27510202748E+02  0.35277356183E+02  0.00000000000E+00 0.  1.
         12    1    5    5    0    0  0.12008792293E+02 -0.19155168590E+02  0.41990813212E+03  0.42051631478E+03  0.00000000000E+00 0. -1.
         11    1    3    3    0    0  0.45810594777E+02  0.24252593531E+02  0.39281081102E+02  0.65036929658E+02  0.00000000000E+00 0. -1.
        -12    1    3    3    0    0  0.59190189453E+01  0.56301856684E+02 -0.22829265714E+02  0.61041864522E+02  0.00000000000E+00 0.  1.
          5    1    4    4  501    0 -0.51426325140E+02 -0.65972590528E+02  0.19296979235E+03  0.21036126729E+03  0.41800000000E+01 0. -1.
         -5    1    4    4    0  501  0.72988341286E+01  0.14726762343E+02  0.36667188189E+03  0.36706387983E+03  0.41800000000E+01 0. -1.
</event>
<event>
11    1  0.6455215E-009  0.1743415E+03  0.7561462E-02  0.1074314E+00
         22   -1    0    0    0    0  0.00000000000E+00  0.00000000000E+00  0.58645422622E+03  0.58645422622E+03  0.00000000000E+00 0.  1.
         22   -1    0    0    0    0 -0.00000000000E+00 -0.00000000000E+00 -0.93530931792E+03  0.93530931792E+03  0.00000000000E+00 0. -1.
         24    2    1    2    0    0 -0.42692026919E+02  0.11396402327E+03 -0.88646088825E+03  0.89824066563E+03  0.78822453794E+02 0.  0.
         25    2    1    2    0    0  0.52439419070E+02 -0.10121820426E+03  0.14788349031E+03  0.22474956360E+03  0.12509125503E+03 0.  0.
        -24    2    1    2    0    0 -0.97473921514E+01 -0.12745819007E+02  0.38972230625E+03  0.39877331491E+03  0.82941022065E+02 0.  0.
        -11    1    3    3    0    0 -0.20138762896E+02  0.31833649987E+01 -0.31765446877E+03  0.31830812920E+03  0.00000000000E+00 0.  1.
         12    1    3    3    0    0 -0.22553264023E+02  0.11078065827E+03 -0.56880641948E+03  0.57993253643E+03  0.00000000000E+00 0. -1.
         11    1    5    5    0    0  0.14396169483E+02 -0.41079813066E+02  0.26714609170E+03  0.27066923550E+03  0.00000000000E+00 0. -1.
        -12    1    5    5    0    0 -0.24143561634E+02  0.28333994059E+02  0.12257621455E+03  0.12810407941E+03  0.00000000000E+00 0.  1.
          5    1    4    4  501    0  0.70832341335E+02 -0.97208671050E+02  0.16130523985E+03  0.20125505984E+03  0.41800000000E+01 0.  1.
         -5    1    4    4    0  501 -0.18392922265E+02 -0.40095332089E+01 -0.13421749545E+02  0.23494503758E+02  0.41800000000E+01 0.  1.
</event>
<event>
11    1  0.6455215E-009  0.3034698E+03  0.7561462E-02  0.9987333E-01
         22   -1    0    0    0    0  0.00000000000E+00  0.00000000000E+00  0.42422942143E+03  0.42422942143E+03  0.00000000000E+00 0. -1.
         22   -1    0    0    0    0 -0.00000000000E+00 -0.00000000000E+00 -0.22884752164E+04  0.22884752164E+04  0.00000000000E+00 0.  1.
         24    2    1    2    0    0  0.23850729786E+03 -0.11642036084E+03 -0.17062238896E+04  0.17285691216E+04  0.79446932998E+02 0.  0.
         25    2    1    2    0    0 -0.32650882247E+03  0.90343641801E+02 -0.50263670004E+03  0.61891968107E+03  0.12509170484E+03 0.  0.
        -24    2    1    2    0    0  0.88001524604E+02  0.26076719040E+02  0.34461479466E+03  0.36521583517E+03  0.78733639287E+02 0.  0.
        -13    1    3    3    0    0  0.20200330445E+03 -0.83807548024E+02 -0.15344482931E+04  0.15499550330E+04  0.00000000000E+00 0.  1.
         14    1    3    3    0    0  0.36503993410E+02 -0.32612812817E+02 -0.17177559644E+03  0.17861408854E+03  0.00000000000E+00 0. -1.
         11    1    5    5    0    0  0.46632042286E+02  0.41156171420E+02  0.28130888527E+03  0.28810252819E+03  0.00000000000E+00 0. -1.
        -12    1    5    5    0    0  0.41369482318E+02 -0.15079452380E+02  0.63305909385E+02  0.77113306987E+02  0.00000000000E+00 0.  1.
          5    1    4    4  501    0 -0.25158483532E+03  0.11555266784E+03 -0.34365985944E+03  0.44132405304E+03  0.41800000000E+01 0.  1.
         -5    1    4    4    0  501 -0.74923987152E+02 -0.25209026036E+02 -0.15897684061E+03  0.17759562803E+03  0.41800000000E+01 0.  1.
</event>
<event>
11    1  0.6455215E-009  0.1353049E+03  0.7561462E-02  0.1112917E+00
         22   -1    0    0    0    0  0.00000000000E+00  0.00000000000E+00  0.56524067994E+03  0.56524067994E+03  0.00000000000E+00 0. -1.
         22   -1    0    0    0    0 -0.00000000000E+00 -0.00000000000E+00 -0.21719398846E+03  0.21719398846E+03  0.00000000000E+00 0.  1.
         24    2    1    2    0    0  0.41278886030E+02  0.12734620055E+02 -0.15844373587E+03  0.18731085176E+03  0.90082299976E+02 0.  0.
         25    2    1    2    0    0  0.10066915868E+02  0.12079420830E+02  0.64162971870E+02  0.14146296896E+03  0.12509048495E+03 0.  0.
        -24    2    1    2    0    0 -0.51345801898E+02 -0.24814040885E+02  0.44232745548E+03  0.45366084770E+03  0.83081037916E+02 0.  0.
        -13    1    3    3    0    0  0.65898779161E+02  0.22359198388E+02 -0.88796231357E+02  0.11281557317E+03  0.00000000000E+00 0.  1.
         14    1    3    3    0    0 -0.24619893131E+02 -0.96245783334E+01 -0.69647504514E+02  0.74495278582E+02  0.00000000000E+00 0. -1.
         11    1    5    5    0    0 -0.14618325963E+02  0.30726196269E+02  0.16183770700E+03  0.16537605026E+03  0.00000000000E+00 0. -1.
        -12    1    5    5    0    0 -0.36727475935E+02 -0.55540237154E+02  0.28048974848E+03  0.28828479744E+03  0.00000000000E+00 0.  1.
          5    1    4    4  501    0 -0.25120271843E+02  0.60408221371E+02  0.40341631604E+02  0.76974677051E+02  0.41800000000E+01 0.  1.
         -5    1    4    4    0  501  0.35187187712E+02 -0.48328800541E+02  0.23821340265E+02  0.64488291905E+02  0.41800000000E+01 0.  1.
</event>
<event>
11    1  0.6455215E-009  0.1661605E+03  0.7561462E-02  0.1081422E+00
         22   -1    0    0    0    0  0.00000000000E+00  0.00000000000E+00  0.68936043729E+03  0.68936043729E+03  0.00000000000E+00 0. -1.
         22   -1    0    0    0    0 -0.00000000000E+00 -0.00000000000E+00 -0.15464604256E+04  0.15464604256E+04  0.00000000000E+00 0.  1.
        -24    2    1    2    0    0  0.36851119660E+02 -0.18449335453E+02 -0.14760612248E+04  0.14797275968E+04  0.95596225310E+02 0.  0.
         25    2    1    2    0    0 -0.12509680280E+03  0.74320882424E+02  0.92247997274E+02  0.21290709851E+03  0.12508771306E+03 0.  0.
         24    2    1    2    0    0  0.88245683140E+02 -0.55871546971E+02  0.52671323918E+03  0.54318616764E+03  0.81947825082E+02 0.  0.
        -13    1    5    5    0    0  0.12044125168E+02  0.21116731001E+02  0.87771274541E+02  0.91075649401E+02  0.00000000000E+00 0.  1.
         14    1    5    5    0    0  0.76201557971E+02 -0.76988277973E+02  0.43894196464E+03  0.45211051824E+03  0.00000000000E+00 0. -1.
         11    1    3    3    0    0  0.74596222724E+00 -0.52179158757E+02 -0.59588955879E+03  0.59817019931E+03  0.00000000000E+00 0. -1.
        -12    1    3    3    0    0  0.36105157433E+02  0.33729823304E+02 -0.88017166601E+03  0.88155739747E+03  0.00000000000E+00 0.  1.
          5    1    4    4  501    0 -0.65820275034E+02  0.48455640809E+02  0.11763532477E+03  0.14330317430E+03  0.41800000000E+01 0.  1.
         -5    1    4    4    0  501 -0.59276527766E+02  0.25865241615E+02 -0.25387327494E+02  0.69603924207E+02  0.41800000000E+01 0.  1.
</event>
<event>
11    1  0.6455215E-009  0.1477197E+03  0.7561462E-02  0.1099232E+00
         22   -1    0    0    0    0  0.00000000000E+00  0.00000000000E+00  0.47523451197E+02  0.47523451197E+02  0.00000000000E+00 0.  1.
         22   -1    0    0    0    0 -0.00000000000E+00 -0.00000000000E+00 -0.24041672240E+04  0.24041672240E+04  0.00000000000E+00 0.  1.
         24    2    1    2    0    0 -0.28235708840E+02  0.66481552963E+02 -0.16960997169E+04  0.16993739431E+04  0.76814689480E+02 0.  0.
         25    2    1    2    0    0  0.25162633045E+02 -0.13005988821E+03 -0.61118979070E+03  0.63776866370E+03  0.12508867065E+03 0.  0.
        -24    2    1    2    0    0  0.30730757951E+01  0.63578335244E+02 -0.49354265174E+02  0.11454806841E+03  0.81447946436E+02 0.  0.
        -11    1    3    3    0    0 -0.40607455805E+02  0.76771140546E+02 -0.12673215106E+04  0.12702938970E+04  0.00000000000E+00 0.  1.
         12    1    3    3    0    0  0.12371746965E+02 -0.10289587583E+02 -0.42877820633E+03  0.42908004610E+03  0.00000000000E+00 0. -1.
         11    1    5    5    0    0 -0.12925539580E+02 -0.16420693764E+02 -0.16384475354E+02  0.26554844940E+02  0.00000000000E+00 0. -1.
        -12    1    5    5    0    0  0.15998615375E+02  0.79999029008E+02 -0.32969789819E+02  0.87993223471E+02  0.00000000000E+00 0.  1.
          5    1    4    4  501    0  0.48037187301E+02 -0.25744045928E+02 -0.86639800928E+02  0.10244146997E+03  0.41800000000E+01 0.  1.
         -5    1    4    4    0  501 -0.22874554257E+02 -0.10431584228E+03 -0.52454998977E+03  0.53532719373E+03  0.41800000000E+01 0.  1.
</event>
<event>
11    1  0.6455215E-009  0.1336164E+03  0.7561462E-02  0.1114904E+00
         22   -1    0    0    0    0  0.00000000000E+00  0.00000000000E+00  0.41815033140E+03  0.41815033140E+03  0.00000000000E+00 0. -1.
         22   -1    0    0    0    0 -0.00000000000E+00 -0.00000000000E+00 -0.22986102942E+03  0.22986102942E+03  0.00000000000E+00 0.  1.
         24    2    1    2    0    0  0.67335262645E+01 -0.48226007773E+02 -0.14312507631E+03  0.17137060690E+03  0.80697021261E+02 0.  0.
         25    2    1    2    0    0 -0.14800089139E+02  0.37296170401E+02 -0.37676511521E+01  0.13142210019E+03  0.12509007258E+03 0.  0.
        -24    2    1    2    0    0  0.80665628741E+01  0.10929837372E+02  0.33518202943E+03  0.34521865373E+03  0.81513159992E+02 0.  0.
        -13    1    3    3    0    0  0.85358333838E+01 -0.56229752872E+02 -0.44001566703E+02  0.71908159704E+02  0.00000000000E+00 0.  1.
         14    1    3    3    0    0 -0.18023071193E+01  0.80037450997E+01 -0.99123509602E+02  0.99462447196E+02  0.00000000000E+00 0. -1.
         11    1    5    5    0    0 -0.71820545682E+00 -0.16921801503E+02  0.29531017196E+03  0.29579547132E+03  0.00000000000E+00 0. -1.
        -12    1    5    5    0    0  0.87847683310E+01  0.27851638874E+02  0.39871857463E+02  0.49423182416E+02  0.00000000000E+00 0.  1.
          5    1    4    4  501    0  0.32750827723E+02 -0.19505381097E+02  0.31164744662E+02  0.49414474784E+02  0.41800000000E+01 0.  1.
         -5    1    4    4    0  501 -0.47550916862E+02  0.56801551498E+02 -0.34932395815E+02  0.82007625404E+02  0.41800000000E+01 0.  1.
</event>
<event>
11    1  0.6455215E-009  0.1653885E+03  0.7561462E-02  0.1082116E+00
         22   -1    0    0    0    0  0.00000000000E+00  0.00000000000E+00  0.38018150147E+03  0.38018150147E+03  0.00000000000E+00 0. -1.
         22   -1    0    0    0    0 -0.00000000000E+00 -0.00000000000E+00 -0.16174084787E+04  0.16174084787E+04  0.00000000000E+00 0. -1.
        -24    2    1    2    0    0 -0.80196020397E+02  0.59047334307E+02 -0.15371255659E+04  0.15424240478E+04  0.79993428076E+02 0.  0.
         25    2    1    2    0    0 -0.82316171261E+01  0.82208966197E+02  0.18695894706E+03  0.23963319404E+03  0.12507736068E+03 0.  0.
         24    2    1    2    0    0  0.88427637523E+02 -0.14125630050E+03  0.11293964159E+03  0.21553273835E+03  0.76981875452E+02 0.  0.
        -11    1    5    5    0    0 -0.88740638608E+01 -0.27742324767E+01  0.20905301747E+02  0.22879620110E+02  0.00000000000E+00 0.  1.
         12    1    5    5    0    0  0.97301701384E+02 -0.13848206803E+03  0.92034339846E+02  0.19265311824E+03  0.00000000000E+00 0. -1.
         11    1    3    3    0    0 -0.69488096193E+02  0.64868974494E+02 -0.86841562562E+03  0.87360304383E+03  0.00000000000E+00 0. -1.
        -12    1    3    3    0    0 -0.10707924204E+02 -0.58216401867E+01 -0.66870994024E+03  0.66882100394E+03  0.00000000000E+00 0.  1.
          5    1    4    4  501    0  0.39104838091E+02  0.65516908126E+02  0.17017383916E+03  0.18654292146E+03  0.41800000000E+01 0.  1.
         -5    1    4    4    0  501 -0.47336455218E+02  0.16692058072E+02  0.16785107902E+02  0.53090272579E+02  0.41800000000E+01 0.  1.
</event>
<event>
11    1  0.6455215E-009  0.1645314E+03  0.7561462E-02  0.1082891E+00
         22   -1    0    0    0    0  0.00000000000E+00  0.00000000000E+00  0.77849118585E+03  0.77849118585E+03  0.00000000000E+00 0.  1.
         22   -1    0    0    0    0 -0.00000000000E+00 -0.00000000000E+00 -0.77893814141E+03  0.77893814141E+03  0.00000000000E+00 0. -1.
         24    2    1    2    0    0 -0.31837105016E+02  0.80879845829E+01 -0.73908138463E+03  0.74397706402E+03  0.78622909700E+02 0.  0.
         25    2    1    2    0    0  0.11880720775E+03  0.44363825894E+02  0.24466153576E+03  0.30263461164E+03  0.12508053175E+03 0.  0.
        -24    2    1    2    0    0 -0.86970102735E+02 -0.52451810477E+02  0.49397289332E+03  0.51081765159E+03  0.81304751711E+02 0.  0.
        -13    1    3    3    0    0 -0.37935809921E+02  0.38389802604E+02 -0.50057494845E+03  0.50347609837E+03  0.00000000000E+00 0.  1.
         14    1    3    3    0    0  0.60987049051E+01 -0.30301818022E+02 -0.23850643618E+03  0.24050096565E+03  0.00000000000E+00 0. -1.
         13    1    5    5    0    0 -0.79000547790E+02 -0.55853172912E+02  0.27233441957E+03  0.28900986066E+03  0.00000000000E+00 0. -1.
        -14    1    5    5    0    0 -0.79695549448E+01  0.34013624348E+01  0.22163847375E+03  0.22180779093E+03  0.00000000000E+00 0.  1.
          5    1    4    4  501    0 -0.19560059866E+02 -0.17274284364E+02  0.31880516524E+02  0.41410585314E+02  0.41800000000E+01 0.  1.
         -5    1    4    4    0  501  0.13836726762E+03  0.61638110258E+02  0.21278101923E+03  0.26122402632E+03  0.41800000000E+01 0.  1.
</event>
<event>
11    1  0.6455215E-009  0.1273166E+03  0.7561462E-02  0.1122611E+00
         22   -1    0    0    0    0  0.00000000000E+00  0.00000000000E+00  0.12796539524E+03  0.12796539524E+03  0.00000000000E+00 0.  1.
         22   -1    0    0    0    0 -0.00000000000E+00 -0.00000000000E+00 -0.30774494041E+04  0.30774494041E+04  0.00000000000E+00 0.  1.
        -24    2    1    2    0    0  0.17936628497E+02  0.33681601455E+02 -0.29817512855E+04  0.29830861296E+04  0.80659500770E+02 0.  0.
         25    2    1    2    0    0 -0.36487419754E+01 -0.87141238043E+00 -0.43226092961E+01  0.12522346759E+03  0.12509260252E+03 0.  0.
         24    2    1    2    0    0 -0.14287886521E+02 -0.32810189075E+02  0.36589885998E+02  0.97105202100E+02  0.82522410952E+02 0.  0.
        -13    1    5    5    0    0 -0.35506208369E+02 -0.85581410512E+01  0.50237247511E+02  0.62110495478E+02  0.00000000000E+00 0.  1.
         14    1    5    5    0    0  0.21218321848E+02 -0.24252048023E+02 -0.13647361513E+02  0.34994706623E+02  0.00000000000E+00 0. -1.
         13    1    3    3    0    0  0.13079418431E+02 -0.12563954804E+02 -0.17264158386E+03  0.17359159145E+03  0.00000000000E+00 0. -1.
        -14    1    3    3    0    0  0.48572100658E+01  0.46245556259E+02 -0.28091097017E+04  0.28094945382E+04  0.00000000000E+00 0.  1.
          5    1    4    4  501    0  0.65798156541E+01 -0.52270429128E+02  0.31575891756E+02  0.61562984621E+02  0.41800000000E+01 0. -1.
         -5    1    4    4    0  501 -0.10228557629E+02  0.51399016747E+02 -0.35898501052E+02  0.63660482967E+02  0.41800000000E+01 0. -1.
</event>
<event>
11    1  0.6455215E-009  0.1948101E+03  0.7561462E-02  0.1058256E+00
         22   -1    0    0    0    0  0.00000000000E+00  0.00000000000E+00  0.31255304286E+03  0.31255304286E+03  0.00000000000E+00 0. -1.
         22   -1    0    0    0    0 -0.00000000000E+00 -0.00000000000E+00 -0.83412009779E+03  0.83412009779E+03  0.00000000000E+00 0. -1.
        -24    2    1    2    0    0  0.13178540405E+03 -0.77955474015E+02 -0.75943524427E+03  0.77876480237E+03  0.79298666600E+02 0.  0.
         25    2    1    2    0    0 -0.46738912965E+02  0.89983106456E+02  0.12046080266E+03  0.20109650899E+03  0.12509002965E+03 0.  0.
         24    2    1    2    0    0 -0.85046491085E+02 -0.12027632442E+02  0.11740738667E+03  0.16681182928E+03  0.81634075933E+02 0.  0.
        -13    1    5    5    0    0 -0.20828702504E+02  0.15972067854E+02 -0.40893199643E+01  0.26564343344E+02  0.00000000000E+00 0.  1.
         14    1    5    5    0    0 -0.64217788581E+02 -0.27999700295E+02  0.12149670664E+03  0.14024748593E+03  0.00000000000E+00 0. -1.
         11    1    3    3    0    0  0.47849775089E+02 -0.70756582314E+02 -0.45178286223E+03  0.45978674353E+03  0.00000000000E+00 0. -1.
        -12    1    3    3    0    0  0.83935628961E+02 -0.71988917011E+01 -0.30765238204E+03  0.31897805885E+03  0.00000000000E+00 0.  1.
          5    1    4    4  501    0  0.28808518442E+02  0.55522310167E+02  0.95593135570E+02  0.11431613022E+03  0.41800000000E+01 0.  1.
         -5    1    4    4    0  501 -0.75547431407E+02  0.34460796289E+02  0.24867667094E+02  0.86780378772E+02  0.41800000000E+01 0.  1.
</event>
<event>
11    1  0.6455215E-009  0.1628758E+03  0.7561462E-02  0.1084403E+00
         22   -1    0    0    0    0  0.00000000000E+00  0.00000000000E+00  0.11783602786E+03  0.11783602786E+03  0.00000000000E+00 0.  1.
         22   -1    0    0    0    0 -0.00000000000E+00 -0.00000000000E+00 -0.14839445571E+04  0.14839445571E+04  0.00000000000E+00 0.  1.
        -24    2    1    2    0    0  0.19654348412E+01  0.26041402950E+02 -0.12885281304E+04  0.12913662456E+04  0.81486317189E+02 0.  0.
         25    2    1    2    0    0  0.29315520785E+02 -0.11652212606E+03 -0.64957905025E+02  0.18521131102E+03  0.12508754807E+03 0.  0.
         24    2    1    2    0    0 -0.31280955626E+02  0.90480723112E+02 -0.12622493810E+02  0.12520302833E+03  0.79694488593E+02 0.  0.
        -11    1    5    5    0    0  0.17573300097E+02  0.66285821542E+02  0.25195353485E+01  0.68622001371E+02  0.00000000000E+00 0.  1.
         12    1    5    5    0    0 -0.48854255723E+02  0.24194901571E+02 -0.15142029158E+02  0.56581026955E+02  0.00000000000E+00 0. -1.
         13    1    3    3    0    0  0.53988262834E+01  0.41617923427E+02 -0.32404377041E+03  0.32675000232E+03  0.00000000000E+00 0. -1.
        -14    1    3    3    0    0 -0.34333914422E+01 -0.15576520477E+02 -0.96448435998E+03  0.96461624329E+03  0.00000000000E+00 0.  1.
          5    1    4    4  501    0  0.58744852371E+02 -0.12015244697E+03 -0.26397353920E+02  0.13638863914E+03  0.41800000000E+01 0.  1.
         -5    1    4    4    0  501 -0.29429331586E+02  0.36303209064E+01 -0.38560551105E+02  0.48822671875E+02  0.41800000000E+01 0.  1.
</event>
<event>
11    1  0.6455215E-009  0.1287401E+03  0.7561462E-02  0.1120827E+00
         22   -1    0    0    0    0  0.00000000000E+00  0.00000000000E+00  0.44022678652E+03  0.44022678652E+03  0.00000000000E+00 0. -1.
         22   -1    0    0    0    0 -0.00000000000E+00 -0.00000000000E+00 -0.16407688849E+04  0.16407688849E+04  0.00000000000E+00 0. -1.
        -24    2    1    2    0    0  0.29018800808E+02 -0.10179944119E+01 -0.13364114178E+04  0.13390941526E+04  0.79589853036E+02 0.  0.
         25    2    1    2    0    0 -0.45532727335E+02  0.11676677043E+02 -0.28389445137E+03  0.31377245069E+03  0.12509003656E+03 0.  0.
         24    2    1    2    0    0  0.16513926527E+02 -0.10658682631E+02  0.41976377077E+03  0.42812906819E+03  0.81893580329E+02 0.  0.
        -11    1    5    5    0    0 -0.98201373777E+01 -0.22177620195E+02  0.36713187398E+02  0.44001591614E+02  0.00000000000E+00 0.  1.
         12    1    5    5    0    0  0.26334063904E+02  0.11518937564E+02  0.38305058337E+03  0.38412747658E+03  0.00000000000E+00 0. -1.
         11    1    3    3    0    0 -0.69055193091E+01 -0.16806159220E+02 -0.10325007756E+04  0.10326606339E+04  0.00000000000E+00 0. -1.
        -12    1    3    3    0    0  0.35924320118E+02  0.15788164808E+02 -0.30391064220E+03  0.30643351868E+03  0.00000000000E+00 0.  1.
          5    1    4    4  501    0 -0.54769547399E+02 -0.45632330163E+02 -0.11755050855E+03  0.13754129321E+03  0.41800000000E+01 0. -1.
         -5    1    4    4    0  501  0.92368200636E+01  0.57309007206E+02 -0.16634394283E+03  0.17623115748E+03  0.41800000000E+01 0. -1.
</event>
<event>
11    1  0.6455215E-009  0.2360607E+03  0.7561462E-02  0.1031598E+00
         22   -1    0    0    0    0  0.00000000000E+00  0.00000000000E+00  0.15824959313E+04  0.15824959313E+04  0.00000000000E+00 0. -1.
         22   -1    0    0    0    0 -0.00000000000E+00 -0.00000000000E+00 -0.10173796460E+04  0.10173796460E+04  0.00000000000E+00 0.  1.
         24    2    1    2    0    0  0.18733320644E+03 -0.51624200004E+02 -0.86240053526E+03  0.88750673068E+03  0.78579421699E+02 0.  0.
         25    2    1    2    0    0 -0.25983980945E+03  0.11035519924E+03  0.30841162796E+02  0.31031163908E+03  0.12508852645E+03 0.  0.
        -24    2    1    2    0    0  0.72506603010E+02 -0.58730999240E+02  0.13966756577E+04  0.14020572076E+04  0.79718145211E+02 0.  0.
        -11    1    3    3    0    0  0.19124266208E+03 -0.42916025360E+02 -0.76764689148E+03  0.79227349509E+03  0.00000000000E+00 0.  1.
         12    1    3    3    0    0 -0.39094556426E+01 -0.87081746446E+01 -0.94753643787E+02  0.95233235585E+02  0.00000000000E+00 0. -1.
         11    1    5    5    0    0  0.65813223547E+02 -0.76490587381E+02  0.12653681244E+04  0.12693851585E+04  0.00000000000E+00 0. -1.
        -12    1    5    5    0    0  0.66933794629E+01  0.17759588142E+02  0.13130753328E+03  0.13267204904E+03  0.00000000000E+00 0.  1.
          5    1    4    4  501    0 -0.17883965649E+03  0.11655943654E+03 -0.19902513694E+02  0.21443718761E+03  0.41800000000E+01 0.  1.
         -5    1    4    4    0  501 -0.81000152964E+02 -0.62042372969E+01  0.50743676491E+02  0.95874451468E+02  0.41800000000E+01 0.  1.
</event>
<event>
11    1  0.6455215E-009  0.1770325E+03  0.7561462E-02  0.1072069E+00
         22   -1    0    0    0    0  0.00000000000E+00  0.00000000000E+00  0.32486147729E+03  0.32486147729E+03  0.00000000000E+00 0. -1.
         22   -1    0    0    0    0 -0.00000000000E+00 -0.00000000000E+00 -0.15121158197E+04  0.15121158197E+04  0.00000000000E+00 0. -1.
        -24    2    1    2    0    0  0.73278731340E+02 -0.45749314374E+02 -0.13560984080E+04  0.13612804619E+04  0.81356200953E+02 0.  0.
         25    2    1    2    0    0 -0.24311449767E+02  0.15834132302E+03 -0.52083273311E+02  0.20981756817E+03  0.12509086053E+03 0.  0.
         24    2    1    2    0    0 -0.48967281573E+02 -0.11259200865E+03  0.22092733896E+03  0.26587926689E+03  0.82511456091E+02 0.  0.
        -13    1    5    5    0    0  0.12838226835E+02  0.49767160808E+01  0.32940367416E+02  0.35702318927E+02  0.00000000000E+00 0.  1.
         14    1    5    5    0    0 -0.61805508408E+02 -0.11756872473E+03  0.18798697154E+03  0.23017694796E+03  0.00000000000E+00 0. -1.
         13    1    3    3    0    0  0.85055072053E+02 -0.56989438551E+02 -0.11738604082E+04  0.11783167738E+04  0.00000000000E+00 0. -1.
        -14    1    3    3    0    0 -0.11776340713E+02  0.11240124177E+02 -0.18223799979E+03  0.18296368809E+03  0.00000000000E+00 0.  1.
          5    1    4    4  501    0 -0.69685061742E+02  0.10777479025E+03 -0.78680985893E+01  0.12864988386E+03  0.41800000000E+01 0.  1.
         -5    1    4    4    0  501  0.45373611975E+02  0.50566532775E+02 -0.44215174721E+02  0.81167684310E+02  0.41800000000E+01 0.  1.
</event>
<event>
11    1  0.6455215E-009  0.1377614E+03  0.7561462E-02  0.1110084E+00
         22   -1    0    0    0    0  0.00000000000E+00  0.00000000000E+00  0.19413736946E+04  0.19413736946E+04  0.00000000000E+00 0. -1.
         22   -1    0    0    0    0 -0.00000000000E+00 -0.00000000000E+00 -0.39236137194E+03  0.39236137194E+03  0.00000000000E+00 0.  1.
         24    2    1    2    0    0  0.13143775567E+02 -0.55259044334E+02 -0.36638115718E+03  0.37915223733E+03  0.79340695230E+02 0.  0.
         25    2    1    2    0    0 -0.40323367424E+02  0.10883201721E+03  0.38481962842E+03  0.42095607342E+03  0.12508991725E+03 0.  0.
        -24    2    1    2    0    0  0.27179591858E+02 -0.53572972873E+02  0.15305738515E+04  0.15336267558E+04  0.75801832541E+02 0.  0.
        -13    1    3    3    0    0  0.22877538479E+02 -0.47546954557E+02 -0.10534146379E+03  0.11781731048E+03  0.00000000000E+00 0.  1.
         14    1    3    3    0    0 -0.97337629123E+01 -0.77120897779E+01 -0.26103969339E+03  0.26133492685E+03  0.00000000000E+00 0. -1.
         13    1    5    5    0    0  0.45131242577E+02 -0.72583073714E+01  0.86131182076E+03  0.86252395020E+03  0.00000000000E+00 0. -1.
        -14    1    5    5    0    0 -0.17951650720E+02 -0.46314665502E+02  0.66926203069E+03  0.67110280563E+03  0.00000000000E+00 0.  1.
          5    1    4    4  501    0 -0.91718451448E+01  0.28871236607E+02  0.29529559423E+03  0.29687477397E+03  0.41800000000E+01 0. -1.
         -5    1    4    4    0  501 -0.31151522280E+02  0.79960780601E+02  0.89524034187E+02  0.12408129944E+03  0.41800000000E+01 0. -1.
</event>
<event>
11    1  0.6455215E-009  0.1372920E+03  0.7561462E-02  0.1110621E+00
         22   -1    0    0    0    0  0.00000000000E+00  0.00000000000E+00  0.92976344732E+02  0.92976344732E+02  0.00000000000E+00 0.  1.
         22   -1    0    0    0    0 -0.00000000000E+00 -0.00000000000E+00 -0.22806497980E+04  0.22806497980E+04  0.00000000000E+00 0. -1.
         24    2    1    2    0    0 -0.84084166896E+01  0.57130049948E+02 -0.20510908429E+04  0.20533464549E+04  0.76964108856E+02 0.  0.
         25    2    1    2    0    0  0.15005096494E+02 -0.33251751089E+02 -0.18225852580E+03  0.22404463926E+03  0.12508796217E+03 0.  0.
        -24    2    1    2    0    0 -0.65966798040E+01 -0.23878298859E+02  0.45675915432E+02  0.96235048553E+02  0.81001271464E+02 0.  0.
        -13    1    3    3    0    0 -0.30392964883E+02  0.53053577833E+02 -0.91745220685E+03  0.91948733884E+03  0.00000000000E+00 0.  1.
         14    1    3    3    0    0  0.21984548194E+02  0.40764721150E+01 -0.11336386360E+04  0.11338591161E+04  0.00000000000E+00 0. -1.
         13    1    5    5    0    0 -0.22180604687E+02  0.24910757675E+02  0.20661442722E+02  0.39235446825E+02  0.00000000000E+00 0. -1.
        -14    1    5    5    0    0  0.15583924883E+02 -0.48789056534E+02  0.25014472709E+02  0.56999601728E+02  0.00000000000E+00 0.  1.
          5    1    4    4  501    0  0.10267763736E+02 -0.51778932167E+02 -0.19408213733E+03  0.20117612488E+03  0.41800000000E+01 0.  1.
         -5    1    4    4    0  501  0.47373327571E+01  0.18527181078E+02  0.11823611530E+02  0.22868514380E+02  0.41800000000E+01 0.  1.
</event>
<event>
11    1  0.6455215E-009  0.1571398E+03  0.7561462E-02  0.1089799E+00
         22   -1    0    0    0    0  0.00000000000E+00  0.00000000000E+00  0.26916207016E+03  0.26916207016E+03  0.00000000000E+00 0. -1.
         22   -1    0    0    0    0 -0.00000000000E+00 -0.00000000000E+00 -0.83105326623E+03  0.83105326623E+03  0.00000000000E+00 0.  1.
         24    2    1    2    0    0 -0.83631207915E+01 -0.86984010105E+02 -0.60054511934E+03  0.61321921402E+03  0.88018204296E+02 0.  0.
         25    2    1    2    0    0 -0.12271361914E+02  0.15328969161E+03 -0.16411667839E+03  0.25735428489E+03  0.12509447608E+03 0.  0.
        -24    2    1    2    0    0  0.20634482706E+02 -0.66305681504E+02  0.20277060166E+03  0.22964183748E+03  0.82445323386E+02 0.  0.
        -11    1    3    3    0    0 -0.41641378242E+02 -0.78907550963E+02 -0.45895191943E+03  0.46754386995E+03  0.00000000000E+00 0.  1.
         12    1    3    3    0    0  0.33278257450E+02 -0.80764591412E+01 -0.14159319991E+03  0.14567534408E+03  0.00000000000E+00 0. -1.
         11    1    5    5    0    0  0.49616571424E+02 -0.49857605247E+02  0.16443131335E+03  0.17884418294E+03  0.00000000000E+00 0. -1.
        -12    1    5    5    0    0 -0.28982088718E+02 -0.16448076257E+02  0.38339288310E+02  0.50797654544E+02  0.00000000000E+00 0.  1.
          5    1    4    4  501    0 -0.43499962076E+02  0.15620113346E+03 -0.11462964649E+03  0.19861638665E+03  0.41800000000E+01 0. -1.
         -5    1    4    4    0  501  0.31228600162E+02 -0.29114418465E+01 -0.49487031909E+02  0.58737898234E+02  0.41800000000E+01 0. -1.
</event>
<event>
11    1  0.6455215E-009  0.2122187E+03  0.7561462E-02  0.1046204E+00
         22   -1    0    0    0    0  0.00000000000E+00  0.00000000000E+00  0.44849878427E+03  0.44849878427E+03  0.00000000000E+00 0. -1.
         22   -1    0    0    0    0 -0.00000000000E+00 -0.00000000000E+00 -0.97507696656E+03  0.97507696656E+03  0.00000000000E+00 0. -1.
         24    2    1    2    0    0  0.47061388714E+02 -0.12419516680E+02 -0.85453992763E+03  0.85962884807E+03  0.79713548461E+02 0.  0.
         25    2    1    2    0    0 -0.11425828984E+03  0.14307799926E+03  0.30630312121E+03  0.37814653054E+03  0.12508767256E+03 0.  0.
        -24    2    1    2    0    0  0.67196901121E+02 -0.13065848258E+03  0.21658624136E+02  0.18580037223E+03  0.11164953977E+03 0.  0.
        -11    1    3    3    0    0  0.38158304960E+02 -0.40097162815E+01 -0.14521808619E+03  0.15020128701E+03  0.00000000000E+00 0.  1.
         12    1    3    3    0    0  0.89030837542E+01 -0.84098003984E+01 -0.70932184144E+03  0.70942756106E+03  0.00000000000E+00 0. -1.
         11    1    5    5    0    0 -0.31051404029E+02 -0.38142247492E+02  0.40492222449E+00  0.49185208122E+02  0.00000000000E+00 0. -1.
        -12    1    5    5    0    0  0.98248305150E+02 -0.92516235088E+02  0.21253701912E+02  0.13661516411E+03  0.00000000000E+00 0.  1.
          5    1    4    4  501    0 -0.69651899530E+02  0.15657084123E+03  0.26570093930E+03  0.31619657964E+03  0.41800000000E+01 0.  1.
         -5    1    4    4    0  501 -0.44606390305E+02 -0.13492841968E+02  0.40602181906E+02  0.61949950896E+02  0.41800000000E+01 0.  1.
</event>
<event>
11    1  0.6455215E-009  0.1521560E+03  0.7561462E-02  0.1094696E+00
         22   -1    0    0    0    0  0.00000000000E+00  0.00000000000E+00  0.45005281563E+03  0.45005281563E+03  0.00000000000E+00 0. -1.
         22   -1    0    0    0    0 -0.00000000000E+00 -0.00000000000E+00 -0.42611058861E+03  0.42611058861E+03  0.00000000000E+00 0. -1.
        -24    2    1    2    0    0 -0.25372408639E+00 -0.23722202210E+02 -0.36822733054E+03  0.37753079986E+03  0.79845667571E+02 0.  0.
         25    2    1    2    0    0 -0.38940354051E+02  0.95828502606E+02  0.11661138255E+03  0.19986331011E+03  0.12509066753E+03 0.  0.
         24    2    1    2    0    0  0.39194078137E+02 -0.72106300396E+02  0.27555817501E+03  0.29876929427E+03  0.81211385085E+02 0.  0.
        -13    1    5    5    0    0 -0.43454224526E+01 -0.30337093912E+02  0.20982499337E+02  0.37141449107E+02  0.00000000000E+00 0.  1.
         14    1    5    5    0    0  0.43539500590E+02 -0.41769206484E+02  0.25457567567E+03  0.26162784517E+03  0.00000000000E+00 0. -1.
         11    1    3    3    0    0  0.32142008474E+02 -0.29790940005E+02 -0.27879359760E+03  0.28221707758E+03  0.00000000000E+00 0. -1.
        -12    1    3    3    0    0 -0.32395732560E+02  0.60687377950E+01 -0.89433732939E+02  0.95313722275E+02  0.00000000000E+00 0.  1.
          5    1    4    4  501    0 -0.56552096891E+01 -0.28813630771E+02  0.39883077501E+02  0.49702504824E+02  0.41800000000E+01 0.  1.
         -5    1    4    4    0  501 -0.33285144361E+02  0.12464213338E+03  0.76728305047E+02  0.15016080528E+03  0.41800000000E+01 0.  1.
</event>
<event>
11    1  0.6455215E-009  0.2001751E+03  0.7561462E-02  0.1054400E+00
         22   -1    0    0    0    0  0.00000000000E+00  0.00000000000E+00  0.35682005928E+03  0.35682005928E+03  0.00000000000E+00 0. -1.
         22   -1    0    0    0    0 -0.00000000000E+00 -0.00000000000E+00 -0.89050565407E+03  0.89050565407E+03  0.00000000000E+00 0.  1.
         24    2    1    2    0    0 -0.13909767691E+01 -0.14570378780E+02 -0.49840089639E+03  0.50528892018E+03  0.81848693213E+02 0.  0.
         25    2    1    2    0    0 -0.54855927559E+02  0.15951535494E+03 -0.33426804482E+03  0.39475719042E+03  0.12507514683E+03 0.  0.
        -24    2    1    2    0    0  0.56246904328E+02 -0.14494497616E+03  0.29898334642E+03  0.34727960275E+03  0.83900659630E+02 0.  0.
        -11    1    3    3    0    0 -0.33531852359E+02 -0.14712244523E+02 -0.40214385617E+03  0.40380752385E+03  0.00000000000E+00 0.  1.
         12    1    3    3    0    0  0.32140875590E+02  0.14186574367E+00 -0.96257040220E+02  0.10148139633E+03  0.00000000000E+00 0. -1.
         11    1    5    5    0    0  0.39454997344E+02 -0.51217691212E+02  0.19886854807E+03  0.20911395965E+03  0.00000000000E+00 0. -1.
        -12    1    5    5    0    0  0.16791906983E+02 -0.93727284945E+02  0.10011479835E+03  0.13816564309E+03  0.00000000000E+00 0.  1.
          5    1    4    4  501    0 -0.22234759303E+02 -0.10875238532E+02 -0.10091512574E+02  0.27054876832E+02  0.41800000000E+01 0. -1.
         -5    1    4    4    0  501 -0.32621168256E+02  0.17039059347E+03 -0.32417653225E+03  0.36770231359E+03  0.41800000000E+01 0. -1.
</event>
<event>
11    1  0.6455215E-009  0.1451818E+03  0.7561462E-02  0.1101906E+00
         22   -1    0    0    0    0  0.00000000000E+00  0.00000000000E+00  0.15701944086E+04  0.15701944086E+04  0.00000000000E+00 0.  1.
         22   -1    0    0    0    0 -0.00000000000E+00 -0.00000000000E+00 -0.71661249862E+03  0.71661249862E+03  0.00000000000E+00 0.  1.
        -24    2    1    2    0    0 -0.12805326951E+02  0.58353015447E+02 -0.31610264720E+03  0.33540881211E+03  0.94916473089E+02 0.  0.
         25    2    1    2    0    0  0.53186588461E+02 -0.85337365845E+02 -0.37251668764E+03  0.40561994083E+03  0.12509026592E+03 0.  0.
         24    2    1    2    0    0 -0.40381261511E+02  0.26984350398E+02  0.15422012448E+04  0.15457781543E+04  0.93202045498E+02 0.  0.
        -11    1    5    5    0    0 -0.57405059679E+02  0.50125299189E+02  0.10809755046E+04  0.10836585846E+04  0.00000000000E+00 0.  1.
         12    1    5    5    0    0  0.17023798168E+02 -0.23140948790E+02  0.46122574022E+03  0.46211956966E+03  0.00000000000E+00 0. -1.
         13    1    3    3    0    0  0.17504374987E+02 -0.11144415122E+02 -0.16938478786E+02  0.26786436786E+02  0.00000000000E+00 0. -1.
        -14    1    3    3    0    0 -0.30309701938E+02  0.69497430569E+02 -0.29916416841E+03  0.30862237532E+03  0.00000000000E+00 0.  1.
          5    1    4    4  501    0  0.24799540413E+02 -0.10741820237E+03 -0.19139067116E+03  0.22091072588E+03  0.41800000000E+01 0.  1.
         -5    1    4    4    0  501  0.28387048049E+02  0.22080836525E+02 -0.18112601649E+03  0.18470921495E+03  0.41800000000E+01 0.  1.
</event>
<event>
11    1  0.6455215E-009  0.1511017E+03  0.7561462E-02  0.1095758E+00
         22   -1    0    0    0    0  0.00000000000E+00  0.00000000000E+00  0.32178332312E+03  0.32178332312E+03  0.00000000000E+00 0.  1.
         22   -1    0    0    0    0 -0.00000000000E+00 -0.00000000000E+00 -0.16793356822E+03  0.16793356822E+03  0.00000000000E+00 0. -1.
        -24    2    1    2    0    0 -0.60411624604E+02 -0.79121713165E+02 -0.72703246140E+02  0.14665657621E+03  0.79451743003E+02 0.  0.
         25    2    1    2    0    0  0.49673211806E+02  0.12974818658E+02  0.64244642606E+02  0.14970231409E+03  0.12509050663E+03 0.  0.
         24    2    1    2    0    0  0.10738412798E+02  0.66146894507E+02  0.16230835844E+03  0.19335800105E+03  0.80948058579E+02 0.  0.
        -13    1    5    5    0    0  0.19040631743E+02 -0.86427701264E+01  0.76133726926E+02  0.78953071557E+02  0.00000000000E+00 0.  1.
         14    1    5    5    0    0 -0.83022189448E+01  0.74789664633E+02  0.86174631510E+02  0.11440492949E+03  0.00000000000E+00 0. -1.
         11    1    3    3    0    0 -0.31467382108E+02 -0.82486381588E+02 -0.26758917999E+02  0.92250956508E+02  0.00000000000E+00 0. -1.
        -12    1    3    3    0    0 -0.28944242496E+02  0.33646684232E+01 -0.45944328141E+02  0.54405619706E+02  0.00000000000E+00 0.  1.
          5    1    4    4  501    0  0.83458667064E+02 -0.19916406095E+02  0.28931925538E+02  0.90645138067E+02  0.41800000000E+01 0. -1.
         -5    1    4    4    0  501 -0.33785455258E+02  0.32891224753E+02  0.35312717068E+02  0.59057176020E+02  0.41800000000E+01 0. -1.
</event>
<event>
11    1  0.6455215E-009  0.1259992E+03  0.7561462E-02  0.1124285E+00
         22   -1    0    0    0    0  0.00000000000E+00  0.00000000000E+00  0.42944374058E+03  0.42944374058E+03  0.00000000000E+00 0.  1.
         22   -1    0    0    0    0 -0.00000000000E+00 -0.00000000000E+00 -0.11433096882E+03  0.11433096882E+03  0.00000000000E+00 0.  1.
         24    2    1    2    0    0 -0.11985403904E+02 -0.11455187908E+02 -0.55169381699E+02  0.10199399478E+03  0.84167945543E+02 0.  0.
         25    2    1    2    0    0  0.50121156566E+01  0.45315312371E+01  0.10266609015E+03  0.16196821847E+03  0.12509085358E+03 0.  0.
        -24    2    1    2    0    0  0.69732882476E+01  0.69236566714E+01  0.26761606331E+03  0.27981249615E+03  0.81117888855E+02 0.  0.
        -11    1    3    3    0    0  0.12280681539E+02  0.59953669977E+01 -0.68078206735E+02  0.69436314683E+02  0.00000000000E+00 0.  1.
         12    1    3    3    0    0 -0.24266085444E+02 -0.17450554906E+02  0.12908825037E+02  0.32557680094E+02  0.00000000000E+00 0. -1.
         11    1    5    5    0    0 -0.16838443884E+02  0.22142329024E+02  0.31554604506E+02  0.42065532120E+02  0.00000000000E+00 0. -1.
        -12    1    5    5    0    0  0.23811732131E+02 -0.15218672352E+02  0.23606145880E+03  0.23774696403E+03  0.00000000000E+00 0.  1.
          5    1    4    4  501    0 -0.12761106094E+02 -0.57685704727E+02  0.37864249701E+02  0.70296942778E+02  0.41800000000E+01 0.  1.
         -5    1    4    4    0  501  0.17773221751E+02  0.62217235964E+02  0.64801840446E+02  0.91671275695E+02  0.41800000000E+01 0.  1.
</event>
<event>
11    1  0.6455215E-009  0.2440907E+03  0.7561462E-02  0.1027095E+00
         22   -1    0    0    0    0  0.00000000000E+00  0.00000000000E+00  0.46850688986E+03  0.46850688986E+03  0.00000000000E+00 0.  1.
         22   -1    0    0    0    0 -0.00000000000E+00 -0.00000000000E+00 -0.98692997545E+03  0.98692997545E+03  0.00000000000E+00 0. -1.
        -24    2    1    2    0    0  0.18276384621E+03  0.45638358849E+02 -0.53840840761E+03  0.57583865857E+03  0.78873722067E+02 0.  0.
         25    2    1    2    0    0 -0.27911987770E+03  0.38609641443E+01 -0.36313212886E+03  0.47480026707E+03  0.12509011724E+03 0.  0.
         24    2    1    2    0    0  0.96356031489E+02 -0.49499322993E+02  0.38311745088E+03  0.40479793968E+03  0.73128127390E+02 0.  0.
        -13    1    5    5    0    0  0.50345542514E+02 -0.17394019892E+02  0.29886439685E+03  0.30357396674E+03  0.00000000000E+00 0.  1.
         14    1    5    5    0    0  0.46010488975E+02 -0.32105303101E+02  0.84253054029E+02  0.10122397293E+03  0.00000000000E+00 0. -1.
         13    1    3    3    0    0  0.14797828822E+03  0.17260325112E+01 -0.37858000946E+03  0.40647678475E+03  0.00000000000E+00 0. -1.
        -14    1    3    3    0    0  0.34785557989E+02  0.43912326338E+02 -0.15982839815E+03  0.16936187382E+03  0.00000000000E+00 0.  1.
          5    1    4    4  501    0 -0.75376767392E+02 -0.34241379301E+02 -0.18004446171E+03  0.19821102318E+03  0.41800000000E+01 0.  1.
         -5    1    4    4    0  501 -0.20374311030E+03  0.38102343445E+02 -0.18308766715E+03  0.27658924389E+03  0.41800000000E+01 0.  1.
</event>
<event>
11    1  0.6455215E-009  0.2631028E+03  0.7561462E-02  0.1017142E+00
         22   -1    0    0    0    0  0.00000000000E+00  0.00000000000E+00  0.49138353866E+03  0.49138353866E+03  0.00000000000E+00 0.  1.
         22   -1    0    0    0    0 -0.00000000000E+00 -0.00000000000E+00 -0.76627042470E+03  0.76627042470E+03  0.00000000000E+00 0.  1.
         24    2    1    2    0    0  0.77949136362E+02 -0.13170420995E+03 -0.57666930149E+03  0.60639034604E+03  0.10834990410E+03 0.  0.
         25    2    1    2    0    0  0.14188071407E+03  0.21469083240E+03  0.37722670014E+02  0.28860668146E+03  0.12509406943E+03 0.  0.
        -24    2    1    2    0    0 -0.21982985043E+03 -0.82986622455E+02  0.26405974544E+03  0.36265693586E+03  0.81120659038E+02 0.  0.
        -13    1    3    3    0    0 -0.39980541826E+01 -0.80577411059E+02 -0.36371808898E+03  0.37255811877E+03  0.00000000000E+00 0.  1.
         14    1    3    3    0    0  0.81947190545E+02 -0.51126798886E+02 -0.21295121251E+03  0.23383222727E+03  0.00000000000E+00 0. -1.
         11    1    5    5    0    0 -0.46593585029E+01 -0.25405921679E+02  0.26474100506E+02  0.36987139328E+02  0.00000000000E+00 0. -1.
        -12    1    5    5    0    0 -0.21517049193E+03 -0.57580700775E+02  0.23758564493E+03  0.32566979654E+03  0.00000000000E+00 0.  1.
          5    1    4    4  501    0  0.13402122854E+02  0.67329319092E+02 -0.38390675897E+02  0.78766557004E+02  0.41800000000E+01 0. -1.
         -5    1    4    4    0  501  0.12847859122E+03  0.14736151331E+03  0.76113345911E+02  0.20984012446E+03  0.41800000000E+01 0. -1.
</event>
<event>
11    1  0.6455215E-009  0.1782104E+03  0.7561462E-02  0.1071100E+00
         22   -1    0    0    0    0  0.00000000000E+00  0.00000000000E+00  0.64983426263E+03  0.64983426263E+03  0.00000000000E+00 0. -1.
         22   -1    0    0    0    0 -0.00000000000E+00 -0.00000000000E+00 -0.20457687213E+03  0.20457687213E+03  0.00000000000E+00 0.  1.
         24    2    1    2    0    0  0.49658254695E+02 -0.11452683916E+03 -0.41540064867E+02  0.15975886738E+03  0.90636524483E+02 0.  0.
         25    2    1    2    0    0 -0.60922182068E+02  0.11486989128E+03 -0.20120159891E+02  0.18154669803E+03  0.12509108098E+03 0.  0.
        -24    2    1    2    0    0  0.11263927373E+02 -0.34305211994E+00  0.50691761525E+03  0.51310556935E+03  0.78643899304E+02 0.  0.
        -11    1    3    3    0    0  0.31403546678E+02 -0.73419745833E+02 -0.70285355566E+02  0.10637985255E+03  0.00000000000E+00 0.  1.
         12    1    3    3    0    0  0.18254708017E+02 -0.41107093331E+02  0.28745290699E+02  0.53379014831E+02  0.00000000000E+00 0. -1.
         11    1    5    5    0    0  0.20937924166E+02  0.30664390567E+02  0.38988423421E+03  0.39164833410E+03  0.00000000000E+00 0. -1.
        -12    1    5    5    0    0 -0.96739967934E+01 -0.31007442687E+02  0.11703338104E+03  0.12145723525E+03  0.00000000000E+00 0.  1.
          5    1    4    4  501    0 -0.60482218709E+02  0.56288689843E+02 -0.66954281247E+02  0.10642773868E+03  0.41800000000E+01 0. -1.
         -5    1    4    4    0  501 -0.43996335977E+00  0.58581201441E+02  0.46834121356E+02  0.75118959346E+02  0.41800000000E+01 0. -1.
</event>
<event>
11    1  0.6455215E-009  0.1581787E+03  0.7561462E-02  0.1088803E+00
         22   -1    0    0    0    0  0.00000000000E+00  0.00000000000E+00  0.35483922444E+03  0.35483922444E+03  0.00000000000E+00 0.  1.
         22   -1    0    0    0    0 -0.00000000000E+00 -0.00000000000E+00 -0.47667830966E+03  0.47667830966E+03  0.00000000000E+00 0. -1.
         24    2    1    2    0    0 -0.53782222829E+01  0.89393424724E+02 -0.19904545334E+03  0.23300548026E+03  0.81561949940E+02 0.  0.
         25    2    1    2    0    0  0.68540726655E+01 -0.10805117805E+03 -0.22828633155E+03  0.28193113949E+03  0.12509389615E+03 0.  0.
        -24    2    1    2    0    0 -0.14758503827E+01  0.18657753330E+02  0.30549269967E+03  0.31658091435E+03  0.80915980394E+02 0.  0.
        -13    1    3    3    0    0 -0.40699495915E+02  0.31300125376E+02 -0.10585949202E+03  0.11765363942E+03  0.00000000000E+00 0.  1.
         14    1    3    3    0    0  0.35321273632E+02  0.58093299348E+02 -0.93185961316E+02  0.11535184085E+03  0.00000000000E+00 0. -1.
         11    1    5    5    0    0  0.57056140036E+01 -0.26918053852E+02  0.19365257482E+03  0.19559768758E+03  0.00000000000E+00 0. -1.
        -12    1    5    5    0    0 -0.71814643863E+01  0.45575807183E+02  0.11184012485E+03  0.12098322677E+03  0.00000000000E+00 0.  1.
          5    1    4    4  501    0  0.47206719037E+02 -0.10973468376E+03 -0.13572727265E+03  0.18085778967E+03  0.41800000000E+01 0.  1.
         -5    1    4    4    0  501 -0.40352646372E+02  0.16835057098E+01 -0.92559058902E+02  0.10107334983E+03  0.41800000000E+01 0.  1.
</event>
<event>
11    1  0.6455215E-009  0.2450855E+03  0.7561462E-02  0.1026550E+00
         22   -1    0    0    0    0  0.00000000000E+00  0.00000000000E+00  0.14881190404E+04  0.14881190404E+04  0.00000000000E+00 0. -1.
         22   -1    0    0    0    0 -0.00000000000E+00 -0.00000000000E+00 -0.16591153357E+03  0.16591153357E+03  0.00000000000E+00 0. -1.
         24    2    1    2    0    0  0.42062580682E+02  0.68922629802E+02 -0.74079499809E+02  0.13625922367E+03  0.80988975492E+02 0.  0.
         25    2    1    2    0    0  0.17609678550E+03 -0.41445616120E+02  0.19581064692E+03  0.29447683637E+03  0.12508789211E+03 0.  0.
        -24    2    1    2    0    0 -0.21815936618E+03 -0.27477013682E+02  0.12004763597E+04  0.12232945139E+04  0.83411523385E+02 0.  0.
        -11    1    3    3    0    0  0.43450158217E+02  0.62680265865E+02 -0.16125639483E+02  0.77953628695E+02  0.00000000000E+00 0.  1.
         12    1    3    3    0    0 -0.13875775348E+01  0.62423639370E+01 -0.57953860326E+02  0.58305594977E+02  0.00000000000E+00 0. -1.
         13    1    5    5    0    0 -0.13903436920E+03 -0.26671513174E+02  0.95347960701E+03  0.96393220011E+03  0.00000000000E+00 0. -1.
        -14    1    5    5    0    0 -0.79124996981E+02 -0.80550050763E+00  0.24699675267E+03  0.25936231378E+03  0.00000000000E+00 0.  1.
          5    1    4    4  501    0  0.15822842700E+03 -0.67960132632E+01  0.91301661761E+02  0.18285482423E+03  0.41800000000E+01 0. -1.
         -5    1    4    4    0  501  0.17868358503E+02 -0.34649602857E+02  0.10450898516E+03  0.11162201213E+03  0.41800000000E+01 0. -1.
</event>
<event>
11    1  0.6455215E-009  0.1388565E+03  0.7561462E-02  0.1108842E+00
         22   -1    0    0    0    0  0.00000000000E+00  0.00000000000E+00  0.35325903317E+03  0.35325903317E+03  0.00000000000E+00 0. -1.
         22   -1    0    0    0    0 -0.00000000000E+00 -0.00000000000E+00 -0.10995998613E+04  0.10995998613E+04  0.00000000000E+00 0. -1.
        -24    2    1    2    0    0 -0.24990275215E+02  0.54734556008E+02 -0.84201712967E+03  0.84813884895E+03  0.82013870531E+02 0.  0.
         25    2    1    2    0    0  0.49934785277E+01 -0.64267313879E+02 -0.22969017568E+03  0.26936756298E+03  0.12508431045E+03 0.  0.
         24    2    1    2    0    0  0.19996796687E+02  0.95327578704E+01  0.32536647725E+03  0.33535248252E+03  0.78148561511E+02 0.  0.
        -11    1    5    5    0    0 -0.16618471354E+02 -0.22551773830E+02  0.17699306401E+03  0.17919626336E+03  0.00000000000E+00 0.  1.
         12    1    5    5    0    0  0.36615268042E+02  0.32084531700E+02  0.14837341323E+03  0.15615621916E+03  0.00000000000E+00 0. -1.
         11    1    3    3    0    0 -0.39403041396E+02  0.68507728325E+02 -0.73872801102E+03  0.74294345866E+03  0.00000000000E+00 0. -1.
        -12    1    3    3    0    0  0.14412766181E+02 -0.13773172316E+02 -0.10328911866E+03  0.10519539029E+03  0.00000000000E+00 0.  1.
          5    1    4    4  501    0  0.91775048275E+01 -0.35446890432E+02 -0.23634687624E+03  0.23920289911E+03  0.41800000000E+01 0.  1.
         -5    1    4    4    0  501 -0.41840262998E+01 -0.28820423447E+02  0.66567005599E+01  0.30164663865E+02  0.41800000000E+01 0.  1.
</event>
<event>
11    1  0.6455215E-009  0.1396841E+03  0.7561462E-02  0.1107912E+00
         22   -1    0    0    0    0  0.00000000000E+00  0.00000000000E+00  0.28118998226E+03  0.28118998226E+03  0.00000000000E+00 0.  1.
         22   -1    0    0    0    0 -0.00000000000E+00 -0.00000000000E+00 -0.53630480809E+03  0.53630480809E+03  0.00000000000E+00 0.  1.
        -24    2    1    2    0    0 -0.40282236358E+01  0.20293203870E+02 -0.30936418935E+03  0.32112723016E+03  0.83596983145E+02 0.  0.
         25    2    1    2    0    0  0.58925308969E+02 -0.48115397017E+02 -0.18507215735E+03  0.23598100832E+03  0.12509216359E+03 0.  0.
         24    2    1    2    0    0 -0.54897085333E+02  0.27822193146E+02  0.23932152087E+03  0.26038655188E+03  0.82088986077E+02 0.  0.
        -11    1    5    5    0    0 -0.54486220461E+02 -0.94031985710E+01  0.19405329898E+03  0.20177673604E+03  0.00000000000E+00 0.  1.
         12    1    5    5    0    0 -0.41086487209E+00  0.37225391717E+02  0.45268221893E+02  0.58609815831E+02  0.00000000000E+00 0. -1.
         11    1    3    3    0    0  0.19603346631E+02  0.48549667334E+01 -0.14371594487E+02  0.24787186795E+02  0.00000000000E+00 0. -1.
        -12    1    3    3    0    0 -0.23631570267E+02  0.15438237137E+02 -0.29499259486E+03  0.29634004337E+03  0.00000000000E+00 0.  1.
          5    1    4    4  501    0  0.74695190827E+02  0.13304335271E+02 -0.13562437436E+03  0.15546002763E+03  0.41800000000E+01 0.  1.
         -5    1    4    4    0  501 -0.15769881858E+02 -0.61419732287E+02 -0.49447782996E+02  0.80520980690E+02  0.41800000000E+01 0.  1.
</event>
<event>
11    1  0.6455215E-009  0.1285458E+03  0.7561462E-02  0.1121069E+00
         22   -1    0    0    0    0  0.00000000000E+00  0.00000000000E+00  0.58668312227E+02  0.58668312227E+02  0.00000000000E+00 0. -1.
         22   -1    0    0    0    0 -0.00000000000E+00 -0.00000000000E+00 -0.68073225930E+03  0.68073225930E+03  0.00000000000E+00 0.  1.
         24    2    1    2    0    0  0.20611257520E+02 -0.20417649714E+02 -0.33841016935E+03  0.34883382518E+03  0.79510317037E+02 0.  0.
         25    2    1    2    0    0 -0.13647314012E+02  0.29674989896E+02 -0.28542820080E+03  0.31334289807E+03  0.12509060617E+03 0.  0.
        -24    2    1    2    0    0 -0.69639435078E+01 -0.92573401822E+01  0.17744230742E+01  0.77223848281E+02  0.76329413136E+02 0.  0.
        -13    1    3    3    0    0  0.40678671552E+02 -0.22008984192E+01 -0.29398352952E+03  0.29679271201E+03  0.00000000000E+00 0.  1.
         14    1    3    3    0    0 -0.20067414032E+02 -0.18216751295E+02 -0.44426639830E+02  0.52041113172E+02  0.00000000000E+00 0. -1.
         13    1    5    5    0    0  0.67299132807E+01 -0.37591975735E+01  0.37650491987E+02  0.38431534526E+02  0.00000000000E+00 0. -1.
        -14    1    5    5    0    0 -0.13693856789E+02 -0.54981426088E+01 -0.35876068913E+02  0.38792313756E+02  0.00000000000E+00 0.  1.
          5    1    4    4  501    0 -0.25101499772E+02  0.42738328953E+02 -0.31693344275E+02  0.58979577176E+02  0.41800000000E+01 0. -1.
         -5    1    4    4    0  501  0.11454185760E+02 -0.13063339057E+02 -0.25373485653E+03  0.25436332089E+03  0.41800000000E+01 0. -1.
</event>
<event>
11    1  0.6455215E-009  0.1813197E+03  0.7561462E-02  0.1068580E+00
         22   -1    0    0    0    0  0.00000000000E+00  0.00000000000E+00  0.19784530688E+04  0.19784530688E+04  0.00000000000E+00 0.  1.
         22   -1    0    0    0    0 -0.00000000000E+00 -0.00000000000E+00 -0.68726736479E+03  0.68726736479E+03  0.00000000000E+00 0. -1.
        -24    2    1    2    0    0 -0.59294437185E+02 -0.27181285690E+02 -0.66807014872E+03  0.67602035643E+03  0.80194426990E+02 0.  0.
         25    2    1    2    0    0 -0.78364899592E+02 -0.45161547855E+02  0.61404022558E+03  0.63314593926E+03  0.12509100242E+03 0.  0.
         24    2    1    2    0    0  0.13765933678E+03  0.72342833546E+02  0.13452156271E+04  0.13565541379E+04  0.80314799177E+02 0.  0.
        -13    1    5    5    0    0  0.52728655724E+02  0.72593990210E+02  0.64680739509E+03  0.65300076944E+03  0.00000000000E+00 0.  1.
         14    1    5    5    0    0  0.84930681053E+02 -0.25115666393E+00  0.69840823206E+03  0.70355336846E+03  0.00000000000E+00 0. -1.
         13    1    3    3    0    0 -0.76273455109E+02 -0.64072510006E+01 -0.49434565152E+03  0.50023626018E+03  0.00000000000E+00 0. -1.
        -14    1    3    3    0    0  0.16979017923E+02 -0.20774034690E+02 -0.17372449720E+03  0.17578409625E+03  0.00000000000E+00 0.  1.
          5    1    4    4  501    0 -0.12891495199E+02 -0.68477245628E+02  0.44317743625E+03  0.44864132246E+03  0.41800000000E+01 0. -1.
         -5    1    4    4    0  501 -0.65473404393E+02  0.23315697773E+02  0.17086278932E+03  0.18450461680E+03  0.41800000000E+01 0. -1.
</event>
<event>
11    1  0.6455215E-009  0.1284358E+03  0.7561462E-02  0.1121206E+00
         22   -1    0    0    0    0  0.00000000000E+00  0.00000000000E+00  0.29506646460E+03  0.29506646460E+03  0.00000000000E+00 0. -1.
         22   -1    0    0    0    0 -0.00000000000E+00 -0.00000000000E+00 -0.12216655782E+04  0.12216655782E+04  0.00000000000E+00 0.  1.
         24    2    1    2    0    0 -0.24495398693E+02  0.15853628165E+02 -0.10846115298E+04  0.10880229406E+04  0.80996213042E+02 0.  0.
         25    2    1    2    0    0  0.42706708205E+02  0.16241347545E+02 -0.94442729909E+02  0.16326160440E+03  0.12508908003E+03 0.  0.
        -24    2    1    2    0    0 -0.18211309512E+02 -0.32094975710E+02  0.25245514615E+03  0.26544749780E+03  0.73260043740E+02 0.  0.
        -13    1    3    3    0    0  0.26322580036E+01  0.33385481104E+01 -0.95513225959E+03  0.95514172142E+03  0.00000000000E+00 0.  1.
         14    1    3    3    0    0 -0.27127656696E+02  0.12515080055E+02 -0.12947927026E+03  0.13288121919E+03  0.00000000000E+00 0. -1.
         13    1    5    5    0    0 -0.16682533263E+02  0.19597298488E+02  0.12995057062E+03  0.13247457050E+03  0.00000000000E+00 0. -1.
        -14    1    5    5    0    0 -0.15287762484E+01 -0.51692274198E+02  0.12250457553E+03  0.13297292730E+03  0.00000000000E+00 0.  1.
          5    1    4    4  501    0  0.23755559032E+02  0.45742726782E+02  0.10298401240E+02  0.52728105470E+02  0.41800000000E+01 0.  1.
         -5    1    4    4    0  501  0.18951149173E+02 -0.29501379237E+02 -0.10474113115E+03  0.11053349893E+03  0.41800000000E+01 0.  1.
</event>
<event>
11    1  0.6455215E-009  0.1635596E+03  0.7561462E-02  0.1083776E+00
         22   -1    0    0    0    0  0.00000000000E+00  0.00000000000E+00  0.68312889933E+02  0.68312889933E+02  0.00000000000E+00 0.  1.
         22   -1    0    0    0    0 -0.00000000000E+00 -0.00000000000E+00 -0.94431555713E+03  0.94431555713E+03  0.00000000000E+00 0. -1.
         24    2    1    2    0    0 -0.24074747438E+02 -0.19341878096E+02 -0.22761998766E+03  0.23954738683E+03  0.67958737815E+02 0.  0.
         25    2    1    2    0    0  0.10274710459E+03 -0.49682933837E+02 -0.61295353318E+03  0.63591319153E+03  0.12509273323E+03 0.  0.
        -24    2    1    2    0    0 -0.78672357156E+02  0.69024811933E+02 -0.35429146361E+02  0.13716786870E+03  0.81277520563E+02 0.  0.
        -13    1    3    3    0    0  0.74776666021E+01  0.18162985331E+02 -0.11585307369E+03  0.11750635819E+03  0.00000000000E+00 0.  1.
         14    1    3    3    0    0 -0.31552414040E+02 -0.37504863427E+02 -0.11176691397E+03  0.12204102864E+03  0.00000000000E+00 0. -1.
         13    1    5    5    0    0 -0.74295539845E+01  0.59801751204E+02 -0.10771817561E+02  0.61216662544E+02  0.00000000000E+00 0. -1.
        -14    1    5    5    0    0 -0.71242803172E+02  0.92230607292E+01 -0.24657328800E+02  0.75951206156E+02  0.00000000000E+00 0.  1.
          5    1    4    4  501    0  0.34637295356E+02 -0.35891139501E+02 -0.58008212481E+02  0.76618152154E+02  0.41800000000E+01 0.  1.
         -5    1    4    4    0  501  0.68109809238E+02 -0.13791794335E+02 -0.55494532070E+03  0.55929503937E+03  0.41800000000E+01 0.  1.
</event>
<event>
11    1  0.6455215E-009  0.1417491E+03  0.7561462E-02  0.1105621E+00
         22   -1    0    0    0    0  0.00000000000E+00  0.00000000000E+00  0.13434356679E+04  0.13434356679E+04  0.00000000000E+00 0. -1.
         22   -1    0    0    0    0 -0.00000000000E+00 -0.00000000000E+00 -0.55159998461E+03  0.55159998461E+03  0.00000000000E+00 0. -1.
         24    2    1    2    0    0 -0.46593989056E+02  0.40332873161E+02 -0.33889053188E+03  0.35367729487E+03  0.80268897062E+02 0.  0.
         25    2    1    2    0    0  0.64583348929E+02 -0.56749972307E+02 -0.17557246380E+03  0.23208732340E+03  0.12508903757E+03 0.  0.
        -24    2    1    2    0    0 -0.17989359873E+02  0.16417099146E+02  0.13062986790E+04  0.13092710342E+04  0.84742340017E+02 0.  0.
        -13    1    3    3    0    0 -0.11403349864E+02  0.45164565139E+02 -0.81709514157E+02  0.94054872474E+02  0.00000000000E+00 0.  1.
         14    1    3    3    0    0 -0.35190639192E+02 -0.48316919780E+01 -0.25718101772E+03  0.25962242239E+03  0.00000000000E+00 0. -1.
         11    1    5    5    0    0 -0.39305288645E+02 -0.13942647520E+02  0.97696431148E+03  0.97785406326E+03  0.00000000000E+00 0. -1.
        -12    1    5    5    0    0  0.21315928772E+02  0.30359746666E+02  0.32933436750E+03  0.33141697098E+03  0.00000000000E+00 0.  1.
          5    1    4    4  501    0  0.29300001612E+02  0.24454036701E+02 -0.35300076284E+01  0.38554161374E+02  0.41800000000E+01 0. -1.
         -5    1    4    4    0  501  0.35283347317E+02 -0.81204009008E+02 -0.17204245617E+03  0.19353316202E+03  0.41800000000E+01 0. -1.
</event>
<event>
11    1  0.6455215E-009  0.2002820E+03  0.7561462E-02  0.1054324E+00
         22   -1    0    0    0    0  0.00000000000E+00  0.00000000000E+00  0.39561101354E+03  0.39561101354E+03  0.00000000000E+00 0. -1.
         22   -1    0    0    0    0 -0.00000000000E+00 -0.00000000000E+00 -0.13631988143E+04  0.13631988143E+04  0.00000000000E+00 0.  1.
        -24    2    1    2    0    0  0.12048726401E+02  0.22791731161E+02 -0.10406487534E+04  0.10439388414E+04  0.78700964143E+02 0.  0.
         25    2    1    2    0    0  0.14025059505E+02 -0.17562676796E+03 -0.26050590228E+03  0.33845704810E+03  0.12509350250E+03 0.  0.
         24    2    1    2    0    0 -0.26073785906E+02  0.15283503680E+03  0.33356685497E+03  0.37641393831E+03  0.79888769162E+02 0.  0.
        -13    1    5    5    0    0 -0.10371329412E+02  0.85231534628E+01  0.90005799318E+00  0.13454319868E+02  0.00000000000E+00 0.  1.
         14    1    5    5    0    0 -0.15702456494E+02  0.14431188333E+03  0.33266679698E+03  0.36295961845E+03  0.00000000000E+00 0. -1.
         13    1    3    3    0    0 -0.19372059359E+02 -0.15665287623E+02 -0.59693922952E+03  0.59745888700E+03  0.00000000000E+00 0. -1.
        -14    1    3    3    0    0  0.31420785761E+02  0.38457018785E+02 -0.44370952392E+03  0.44647995441E+03  0.00000000000E+00 0.  1.
          5    1    4    4  501    0 -0.30899876656E+02 -0.11305139041E+03 -0.79451988374E+02  0.14165278009E+03  0.41800000000E+01 0. -1.
         -5    1    4    4    0  501  0.44924936160E+02 -0.62575377543E+02 -0.18105391391E+03  0.19680426801E+03  0.41800000000E+01 0. -1.
</event>
<event>
11    1  0.6455215E-009  0.1570096E+03  0.7561462E-02  0.1089924E+00
         22   -1    0    0    0    0  0.00000000000E+00  0.00000000000E+00  0.19225612222E+03  0.19225612222E+03  0.00000000000E+00 0.  1.
         22   -1    0    0    0    0 -0.00000000000E+00 -0.00000000000E+00 -0.11561536452E+04  0.11561536452E+04  0.00000000000E+00 0. -1.
        -24    2    1    2    0    0 -0.22996140459E+02  0.89549939262E+02 -0.69351331739E+03  0.70511402043E+03  0.87618755514E+02 0.  0.
         25    2    1    2    0    0 -0.10748769611E+02 -0.10526526615E+03 -0.43037042886E+03  0.46050076549E+03  0.12508371867E+03 0.  0.
         24    2    1    2    0    0  0.33744910071E+02  0.15715326886E+02  0.15998622331E+03  0.18279498146E+03  0.80204258892E+02 0.  0.
        -13    1    5    5    0    0 -0.12763832750E+02  0.25282976980E+02  0.19198831543E+02  0.34216070553E+02  0.00000000000E+00 0.  1.
         14    1    5    5    0    0  0.46508742821E+02 -0.95676500941E+01  0.14078739176E+03  0.14857891091E+03  0.00000000000E+00 0. -1.
         11    1    3    3    0    0 -0.47951152031E+02  0.83570801298E+02 -0.61531348600E+03  0.62281143042E+03  0.00000000000E+00 0. -1.
        -12    1    3    3    0    0  0.24955011571E+02  0.59791379645E+01 -0.78199831386E+02  0.82302590009E+02  0.00000000000E+00 0.  1.
          5    1    4    4  501    0  0.46242778219E+02 -0.14828814003E+02 -0.20938452860E+03  0.21498288648E+03  0.41800000000E+01 0.  1.
         -5    1    4    4    0  501 -0.56991547831E+02 -0.90436452145E+02 -0.22098590026E+03  0.24551787901E+03  0.41800000000E+01 0.  1.
</event>
<event>
11    1  0.6455215E-009  0.1590712E+03  0.7561462E-02  0.1087954E+00
         22   -1    0    0    0    0  0.00000000000E+00  0.00000000000E+00  0.20140486948E+03  0.20140486948E+03  0.00000000000E+00 0.  1.
         22   -1    0    0    0    0 -0.00000000000E+00 -0.00000000000E+00 -0.52832805461E+03  0.52832805461E+03  0.00000000000E+00 0. -1.
         24    2    1    2    0    0  0.70755471751E+01  0.51108756752E+01 -0.37361139577E+03  0.38312733641E+03  0.84409101598E+02 0.  0.
         25    2    1    2    0    0  0.68007512422E+02  0.60745742713E+02 -0.73241761648E+02  0.17125033092E+03  0.12508898108E+03 0.  0.
        -24    2    1    2    0    0 -0.75083059597E+02 -0.65856618389E+02  0.11992997229E+03  0.17535525676E+03  0.79948156936E+02 0.  0.
        -11    1    3    3    0    0 -0.21594824913E+02  0.35763283780E+02 -0.15549060948E+03  0.16100521286E+03  0.00000000000E+00 0.  1.
         12    1    3    3    0    0  0.28670372088E+02 -0.30652408105E+02 -0.21812078629E+03  0.22212212355E+03  0.00000000000E+00 0. -1.
         11    1    5    5    0    0 -0.21626944135E+01 -0.53992933150E+02  0.49323391251E+02  0.73162223871E+02  0.00000000000E+00 0. -1.
        -12    1    5    5    0    0 -0.72920365184E+02 -0.11863685239E+02  0.70606581037E+02  0.10219303289E+03  0.00000000000E+00 0.  1.
          5    1    4    4  501    0  0.72993684435E+02  0.93914008917E+02 -0.45130362089E+02  0.12728763106E+03  0.41800000000E+01 0.  1.
         -5    1    4    4    0  501 -0.49861720127E+01 -0.33168266204E+02 -0.28111399559E+02  0.43962699865E+02  0.41800000000E+01 0.  1.
</event>
<event>
11    1  0.6455215E-009  0.1739929E+03  0.7561462E-02  0.1074608E+00
         22   -1    0    0    0    0  0.00000000000E+00  0.00000000000E+00  0.10426843408E+04  0.10426843408E+04  0.00000000000E+00 0.  1.
         22   -1    0    0    0    0 -0.00000000000E+00 -0.00000000000E+00 -0.97409881791E+03  0.97409881791E+03  0.00000000000E+00 0. -1.
         24    2    1    2    0    0  0.11998470101E+03  0.33548299100E+02 -0.81439715275E+03  0.82764973845E+03  0.78990824162E+02 0.  0.
         25    2    1    2    0    0 -0.95355035469E+02 -0.23256691314E+02 -0.10949629271E+03  0.19304136258E+03  0.12506827363E+03 0.  0.
        -24    2    1    2    0    0 -0.24629665543E+02 -0.10291607785E+02  0.99247896833E+03  0.99609205767E+03  0.80450898970E+02 0.  0.
        -13    1    3    3    0    0  0.13268087943E+02  0.18824926915E+02 -0.43115970963E+02  0.48881560768E+02  0.00000000000E+00 0.  1.
         14    1    3    3    0    0  0.10671661307E+03  0.14723372184E+02 -0.77128118179E+03  0.77876817768E+03  0.00000000000E+00 0. -1.
         11    1    5    5    0    0 -0.13655683710E+02  0.21564409290E+02  0.10814049139E+03  0.11111195851E+03  0.00000000000E+00 0. -1.
        -12    1    5    5    0    0 -0.10973981833E+02 -0.31856017075E+02  0.88433847694E+03  0.88498009916E+03  0.00000000000E+00 0.  1.
          5    1    4    4  501    0 -0.11262574200E+02  0.44871822047E+02 -0.54371199992E+02  0.71512416964E+02  0.41800000000E+01 0. -1.
         -5    1    4    4    0  501 -0.84092461269E+02 -0.68128513361E+02 -0.55125092720E+02  0.12152894562E+03  0.41800000000E+01 0. -1.
</event>
<event>
11    1  0.6455215E-009  0.1740865E+03  0.7561462E-02  0.1074529E+00
         22   -1    0    0    0    0  0.00000000000E+00  0.00000000000E+00  0.14816296480E+03  0.14816296480E+03  0.00000000000E+00 0. -1.
         22   -1    0    0    0    0 -0.00000000000E+00 -0.00000000000E+00 -0.13026174609E+04  0.13026174609E+04  0.00000000000E+00 0.  1.
        -24    2    1    2    0    0 -0.23926781491E+01  0.54431184500E+02 -0.10892847561E+04  0.10935662295E+04  0.79858248258E+02 0.  0.
         25    2    1    2    0    0 -0.11789427095E+03 -0.58389008922E+02 -0.10164225754E+03  0.20805848959E+03  0.12509536796E+03 0.  0.
         24    2    1    2    0    0  0.12028694910E+03  0.39578244218E+01  0.36472517477E+02  0.14915570662E+03  0.80203277907E+02 0.  0.
        -13    1    5    5    0    0  0.84519638440E+01  0.17013341665E+02 -0.16091173430E+02  0.24896091054E+02  0.00000000000E+00 0.  1.
         14    1    5    5    0    0  0.11183498526E+03 -0.13055517244E+02  0.52563690906E+02  0.12425961556E+03  0.00000000000E+00 0. -1.
         13    1    3    3    0    0  0.23175160159E+02  0.28531780488E+02 -0.18872271139E+03  0.19226911437E+03  0.00000000000E+00 0. -1.
        -14    1    3    3    0    0 -0.25567838308E+02  0.25899404012E+02 -0.90056204468E+03  0.90129711517E+03  0.00000000000E+00 0.  1.
          5    1    4    4  501    0 -0.37369162605E+02  0.24263157297E+02 -0.78400684441E+02  0.90273444804E+02  0.41800000000E+01 0.  1.
         -5    1    4    4    0  501 -0.80525108348E+02 -0.82652166219E+02 -0.23241573098E+02  0.11778504479E+03  0.41800000000E+01 0.  1.
</event>
<event>
11    1  0.6455215E-009  0.1313128E+03  0.7561462E-02  0.1117666E+00
         22   -1    0    0    0    0  0.00000000000E+00  0.00000000000E+00  0.49486519077E+02  0.49486519077E+02  0.00000000000E+00 0. -1.
         22   -1    0    0    0    0 -0.00000000000E+00 -0.00000000000E+00 -0.30376937018E+04  0.30376937018E+04  0.00000000000E+00 0. -1.
        -24    2    1    2    0    0 -0.37532328370E+02 -0.76339974453E+01 -0.25463268818E+04  0.25478326179E+04  0.78762339626E+02 0.  0.
         25    2    1    2    0    0  0.62108782608E+02  0.20046678886E+02 -0.42868082162E+03  0.45130121278E+03  0.12508464185E+03 0.  0.
         24    2    1    2    0    0 -0.24576454238E+02 -0.12412681440E+02 -0.13199479314E+02  0.88046390227E+02  0.82582466749E+02 0.  0.
        -13    1    5    5    0    0 -0.42511381649E+02 -0.15457184335E+02 -0.36754792667E+02  0.58284276621E+02  0.00000000000E+00 0.  1.
         14    1    5    5    0    0  0.17934927411E+02  0.30445028948E+01  0.23555313353E+02  0.29762113605E+02  0.00000000000E+00 0. -1.
         13    1    3    3    0    0  0.15952147445E+02 -0.88095499237E+01 -0.15224631199E+04  0.15225721758E+04  0.00000000000E+00 0. -1.
        -14    1    3    3    0    0 -0.53484475815E+02  0.11755524783E+01 -0.10238637620E+04  0.10252604421E+04  0.00000000000E+00 0.  1.
          5    1    4    4  501    0  0.82383100683E+02  0.51828237215E+02 -0.24328273567E+03  0.26206316667E+03  0.41800000000E+01 0.  1.
         -5    1    4    4    0  501 -0.20274318074E+02 -0.31781558329E+02 -0.18539808595E+03  0.18923804611E+03  0.41800000000E+01 0.  1.
</event>
<event>
11    1  0.6455215E-009  0.1348832E+03  0.7561462E-02  0.1113411E+00
         22   -1    0    0    0    0  0.00000000000E+00  0.00000000000E+00  0.60072110419E+02  0.60072110419E+02  0.00000000000E+00 0.  1.
         22   -1    0    0    0    0 -0.00000000000E+00 -0.00000000000E+00 -0.25039010909E+04  0.25039010909E+04  0.00000000000E+00 0. -1.
         24    2    1    2    0    0 -0.37458129036E+02  0.11966044201E+02 -0.12854475751E+04  0.12886164903E+04  0.81306170157E+02 0.  0.
         25    2    1    2    0    0  0.69676303640E+02  0.26106253202E+02 -0.11669539431E+04  0.11759955780E+04  0.12509104825E+03 0.  0.
        -24    2    1    2    0    0 -0.32218174604E+02 -0.38072297403E+02  0.85725376691E+01  0.99361133014E+02  0.85508103402E+02 0.  0.
        -13    1    3    3    0    0  0.58876824803E+01  0.35652153988E+02 -0.34864920569E+03  0.35051677495E+03  0.00000000000E+00 0.  1.
         14    1    3    3    0    0 -0.43345811516E+02 -0.23686109787E+02 -0.93679836936E+03  0.93809971538E+03  0.00000000000E+00 0. -1.
         11    1    5    5    0    0  0.16362644608E+02 -0.19648366639E+02 -0.26382556564E+02  0.36740083574E+02  0.00000000000E+00 0. -1.
        -12    1    5    5    0    0 -0.48580819212E+02 -0.18423930764E+02  0.34955094233E+02  0.62621049440E+02  0.00000000000E+00 0.  1.
          5    1    4    4  501    0  0.47054507078E+02  0.73062461694E+02 -0.88226430003E+03  0.88654386099E+03  0.41800000000E+01 0. -1.
         -5    1    4    4    0  501  0.22621796562E+02 -0.46956208492E+02 -0.28468964311E+03  0.28945171703E+03  0.41800000000E+01 0. -1.
</event>
<event>
11    1  0.6455215E-009  0.1639877E+03  0.7561462E-02  0.1083386E+00
         22   -1    0    0    0    0  0.00000000000E+00  0.00000000000E+00  0.29269306116E+03  0.29269306116E+03  0.00000000000E+00 0. -1.
         22   -1    0    0    0    0 -0.00000000000E+00 -0.00000000000E+00 -0.55303713625E+03  0.55303713625E+03  0.00000000000E+00 0.  1.
         24    2    1    2    0    0 -0.47543475803E+02  0.95798097146E+02 -0.48552275993E+03  0.50366538348E+03  0.80677199988E+02 0.  0.
         25    2    1    2    0    0  0.82032912174E+02 -0.56712893552E+02  0.14874850118E+03  0.21844523819E+03  0.12508578861E+03 0.  0.
        -24    2    1    2    0    0 -0.34489436371E+02 -0.39085203594E+02  0.76430183665E+02  0.12361957574E+03  0.81994220338E+02 0.  0.
        -13    1    3    3    0    0 -0.44678439099E+02  0.88052405523E+02 -0.48546711975E+03  0.49540661421E+03  0.00000000000E+00 0.  1.
         14    1    3    3    0    0 -0.28650367036E+01  0.77456916229E+01 -0.55640174094E-01  0.82587692703E+01  0.00000000000E+00 0. -1.
         11    1    5    5    0    0  0.17199915289E+02 -0.48580354548E+01  0.55310681325E+02  0.58126663959E+02  0.00000000000E+00 0. -1.
        -12    1    5    5    0    0 -0.51689351660E+02 -0.34227168139E+02  0.21119502340E+02  0.65492911776E+02  0.00000000000E+00 0.  1.
          5    1    4    4  501    0  0.10034701220E+02 -0.44825004909E+02 -0.67586335150E+01  0.46616819075E+02  0.41800000000E+01 0. -1.
         -5    1    4    4    0  501  0.71998210954E+02 -0.11887888643E+02  0.15550713469E+03  0.17182841912E+03  0.41800000000E+01 0. -1.
</event>
<event>
11    1  0.6455215E-009  0.1491100E+03  0.7561462E-02  0.1097792E+00
         22   -1    0    0    0    0  0.00000000000E+00  0.00000000000E+00  0.20957132858E+04  0.20957132858E+04  0.00000000000E+00 0. -1.
         22   -1    0    0    0    0 -0.00000000000E+00 -0.00000000000E+00 -0.13051119803E+03  0.13051119803E+03  0.00000000000E+00 0. -1.
        -24    2    1    2    0    0 -0.19624355621E+02  0.21793626902E+02 -0.10376367938E+03  0.13491504878E+03  0.81086939276E+02 0.  0.
         25    2    1    2    0    0  0.95117149421E+02 -0.10036801662E+01  0.68477925709E+03  0.70258069414E+03  0.12509484944E+03 0.  0.
         24    2    1    2    0    0 -0.75492793800E+02 -0.20789946736E+02  0.13841865101E+04  0.13887287410E+04  0.80397993695E+02 0.  0.
        -11    1    5    5    0    0  0.13338590021E+02  0.10947596987E+02  0.16560620802E+03  0.16650280478E+03  0.00000000000E+00 0.  1.
         12    1    5    5    0    0 -0.88831383821E+02 -0.31737543723E+02  0.12185803021E+04  0.12222259362E+04  0.00000000000E+00 0. -1.
         11    1    3    3    0    0  0.27087077594E+01  0.25528717203E+02 -0.10874177564E+03  0.11173104434E+03  0.00000000000E+00 0. -1.
        -12    1    3    3    0    0 -0.22333063381E+02 -0.37350903010E+01  0.49780962581E+01  0.23184004440E+02  0.00000000000E+00 0.  1.
          5    1    4    4  501    0  0.77738415554E+02 -0.56454062639E+02  0.36030354760E+03  0.37291613166E+03  0.41800000000E+01 0.  1.
         -5    1    4    4    0  501  0.17378733867E+02  0.55450382472E+02  0.32447570949E+03  0.32966456248E+03  0.41800000000E+01 0.  1.
</event>
<event>
11    1  0.6455215E-009  0.1953885E+03  0.7561462E-02  0.1057833E+00
         22   -1    0    0    0    0  0.00000000000E+00  0.00000000000E+00  0.16089162165E+04  0.16089162165E+04  0.00000000000E+00 0.  1.
         22   -1    0    0    0    0 -0.00000000000E+00 -0.00000000000E+00 -0.12408660602E+03  0.12408660602E+03  0.00000000000E+00 0.  1.
        -24    2    1    2    0    0  0.14420057405E+03  0.69710293606E+02 -0.16727784999E+01  0.17902910246E+03  0.79970561762E+02 0.  0.
         25    2    1    2    0    0 -0.11814464571E+03 -0.35837923179E+02  0.21338317924E+03  0.27644550135E+03  0.12508884838E+03 0.  0.
         24    2    1    2    0    0 -0.26055928339E+02 -0.33872370426E+02  0.12731192098E+04  0.12775282187E+04  0.97054512861E+02 0.  0.
        -11    1    5    5    0    0 -0.43330210522E+02 -0.59373859834E+02  0.78315072609E+03  0.78659253883E+03  0.00000000000E+00 0.  1.
         12    1    5    5    0    0  0.17274282183E+02  0.25501489407E+02  0.48996848366E+03  0.49093567987E+03  0.00000000000E+00 0. -1.
         13    1    3    3    0    0 -0.78626169111E+01  0.26130712090E+01 -0.95385974831E+01  0.12634624165E+02  0.00000000000E+00 0. -1.
        -14    1    3    3    0    0  0.15206319096E+03  0.67097222397E+02  0.78658189833E+01  0.16639447830E+03  0.00000000000E+00 0.  1.
          5    1    4    4  501    0  0.78144514741E+01 -0.39138026743E+02  0.96568023225E+02  0.10457392743E+03  0.41800000000E+01 0. -1.
         -5    1    4    4    0  501 -0.12595909719E+03  0.33001035632E+01  0.11681515601E+03  0.17187157392E+03  0.41800000000E+01 0. -1.
</event>
<event>
11    1  0.6455215E-009  0.1493270E+03  0.7561462E-02  0.1097568E+00
         22   -1    0    0    0    0  0.00000000000E+00  0.00000000000E+00  0.64811718521E+03  0.64811718521E+03  0.00000000000E+00 0.  1.
         22   -1    0    0    0    0 -0.00000000000E+00 -0.00000000000E+00 -0.48485996186E+03  0.48485996186E+03  0.00000000000E+00 0. -1.
         24    2    1    2    0    0 -0.59038552399E+02 -0.36358264519E+02 -0.33857322650E+03  0.35446781622E+03  0.78791680804E+02 0.  0.
         25    2    1    2    0    0  0.13610697237E+03  0.53375417864E+02 -0.63093968707E+02  0.20248958355E+03  0.12508852624E+03 0.  0.
        -24    2    1    2    0    0 -0.77068419976E+02 -0.17017153345E+02  0.56492441856E+03  0.57601974730E+03  0.80187441190E+02 0.  0.
        -13    1    3    3    0    0  0.46747108222E+01 -0.32032565781E+02 -0.19020419696E+03  0.19293930324E+03  0.00000000000E+00 0.  1.
         14    1    3    3    0    0 -0.63713263221E+02 -0.43256987384E+01 -0.14836902954E+03  0.16152851298E+03  0.00000000000E+00 0. -1.
         11    1    5    5    0    0 -0.16483045911E+02 -0.72414432596E+00  0.14302641450E+02  0.21835309477E+02  0.00000000000E+00 0. -1.
        -12    1    5    5    0    0 -0.60585374066E+02 -0.16293009019E+02  0.55062177711E+03  0.55418443782E+03  0.00000000000E+00 0.  1.
          5    1    4    4  501    0  0.18067193134E+02  0.70022284356E+02 -0.15576096909E+02  0.74092043899E+02  0.41800000000E+01 0.  1.
         -5    1    4    4    0  501  0.11803977924E+03 -0.16646866491E+02 -0.47517871798E+02  0.12839753965E+03  0.41800000000E+01 0.  1.
</event>
<event>
11    1  0.6455215E-009  0.1464302E+03  0.7561462E-02  0.1100583E+00
         22   -1    0    0    0    0  0.00000000000E+00  0.00000000000E+00  0.11081266252E+04  0.11081266252E+04  0.00000000000E+00 0. -1.
         22   -1    0    0    0    0 -0.00000000000E+00 -0.00000000000E+00 -0.30441132213E+03  0.30441132213E+03  0.00000000000E+00 0. -1.
        -24    2    1    2    0    0 -0.46260040342E+00 -0.49727175460E+02 -0.21468374009E+03  0.23448608088E+03  0.80134935508E+02 0.  0.
         25    2    1    2    0    0  0.16645948989E+02 -0.26556387611E+02 -0.22618414499E+02  0.13092306754E+03  0.12508767965E+03 0.  0.
         24    2    1    2    0    0 -0.16183348585E+02  0.76283563070E+02  0.10410174577E+04  0.10471287989E+04  0.81733050816E+02 0.  0.
        -11    1    5    5    0    0  0.33053596653E+02  0.24703631382E+02  0.34047133072E+03  0.34296287947E+03  0.00000000000E+00 0.  1.
         12    1    5    5    0    0 -0.49236945238E+02  0.51579931689E+02  0.70054612695E+03  0.70416591945E+03  0.00000000000E+00 0. -1.
         11    1    3    3    0    0 -0.14909070019E+02 -0.34244875968E+02 -0.20934127277E+03  0.21264703239E+03  0.00000000000E+00 0. -1.
        -12    1    3    3    0    0  0.14446469615E+02 -0.15482299492E+02 -0.53424673195E+01  0.21839048490E+02  0.00000000000E+00 0.  1.
          5    1    4    4  501    0  0.68844060081E+02  0.21510832631E+01 -0.16038102060E+02  0.70843665104E+02  0.41800000000E+01 0. -1.
         -5    1    4    4    0  501 -0.52198111092E+02 -0.28707470874E+02 -0.65803124386E+01  0.60079402439E+02  0.41800000000E+01 0. -1.
</event>
<event>
11    1  0.6455215E-009  0.1473088E+03  0.7561462E-02  0.1099661E+00
         22   -1    0    0    0    0  0.00000000000E+00  0.00000000000E+00  0.23920128170E+04  0.23920128170E+04  0.00000000000E+00 0. -1.
         22   -1    0    0    0    0 -0.00000000000E+00 -0.00000000000E+00 -0.14090330629E+04  0.14090330629E+04  0.00000000000E+00 0.  1.
        -24    2    1    2    0    0 -0.65312246134E+02  0.45266505722E+02 -0.13219185385E+04  0.13267728569E+04  0.80887856463E+02 0.  0.
         25    2    1    2    0    0  0.11155342512E+02 -0.52943202144E+02 -0.28149846978E+02  0.13916530270E+03  0.12508854172E+03 0.  0.
         24    2    1    2    0    0  0.54156903621E+02  0.76766964219E+01  0.23330481396E+04  0.23351077203E+04  0.81379000717E+02 0.  0.
        -11    1    5    5    0    0 -0.13088903648E+02  0.14214275029E+02  0.18686044115E+03  0.18785683240E+03  0.00000000000E+00 0.  1.
         12    1    5    5    0    0  0.67245807269E+02 -0.65375786066E+01  0.21461876985E+04  0.21472508879E+04  0.00000000000E+00 0. -1.
         13    1    3    3    0    0 -0.49246136015E+02  0.65191556954E+02 -0.78397204596E+03  0.78821779342E+03  0.00000000000E+00 0. -1.
        -14    1    3    3    0    0 -0.16066110119E+02 -0.19925051232E+02 -0.53794649259E+03  0.53855506353E+03  0.00000000000E+00 0.  1.
          5    1    4    4  501    0  0.58325144008E+02 -0.63090974865E+02 -0.28848926738E+02  0.90730515852E+02  0.41800000000E+01 0.  1.
         -5    1    4    4    0  501 -0.47169801495E+02  0.10147772721E+02  0.69907975995E+00  0.48434786846E+02  0.41800000000E+01 0.  1.
</event>
<event>
11    1  0.6455215E-009  0.1461735E+03  0.7561462E-02  0.1100854E+00
         22   -1    0    0    0    0  0.00000000000E+00  0.00000000000E+00  0.57883718425E+03  0.57883718425E+03  0.00000000000E+00 0. -1.
         22   -1    0    0    0    0 -0.00000000000E+00 -0.00000000000E+00 -0.36388919445E+03  0.36388919445E+03  0.00000000000E+00 0. -1.
         24    2    1    2    0    0  0.60422447621E+01 -0.44126059202E+02 -0.27345273361E+03  0.28789281215E+03  0.78244846122E+02 0.  0.
         25    2    1    2    0    0  0.11184114650E+02 -0.32873321979E+02 -0.22415761595E+02  0.13173884186E+03  0.12508763476E+03 0.  0.
        -24    2    1    2    0    0 -0.17226359412E+02  0.76999381181E+02  0.51081648501E+03  0.52309472469E+03  0.80429829530E+02 0.  0.
        -11    1    3    3    0    0 -0.32001079333E+01  0.19690989999E+02 -0.29868678975E+02  0.35918153650E+02  0.00000000000E+00 0.  1.
         12    1    3    3    0    0  0.92423526954E+01 -0.63817049201E+02 -0.24358405463E+03  0.25197465849E+03  0.00000000000E+00 0. -1.
         11    1    5    5    0    0 -0.10729368088E+02 -0.12965460329E+02  0.15944180161E+03  0.16032751043E+03  0.00000000000E+00 0. -1.
        -12    1    5    5    0    0 -0.64969913240E+01  0.89964841510E+02  0.35137468340E+03  0.36276721426E+03  0.00000000000E+00 0.  1.
          5    1    4    4  501    0  0.40477758174E+02 -0.43583394108E+02  0.32897413768E+02  0.68100465354E+02  0.41800000000E+01 0. -1.
         -5    1    4    4    0  501 -0.29293643524E+02  0.10710072129E+02 -0.55313175363E+02  0.63638376509E+02  0.41800000000E+01 0. -1.
</event>
<event>
11    1  0.6455215E-009  0.1258031E+03  0.7561462E-02  0.1124536E+00
         22   -1    0    0    0    0  0.00000000000E+00  0.00000000000E+00  0.77654032479E+03  0.77654032479E+03  0.00000000000E+00 0. -1.
         22   -1    0    0    0    0 -0.00000000000E+00 -0.00000000000E+00 -0.26645558011E+03  0.26645558011E+03  0.00000000000E+00 0.  1.
        -24    2    1    2    0    0 -0.10299465029E+02 -0.57961012010E+01 -0.20448392690E+03  0.22090829339E+03  0.82747350164E+02 0.  0.
         25    2    1    2    0    0  0.88789353337E+01  0.37593643520E+02  0.31626948192E+02  0.13468648712E+03  0.12509223971E+03 0.  0.
         24    2    1    2    0    0  0.14205296954E+01 -0.31797542319E+02  0.68294172339E+03  0.68740112440E+03  0.71398926374E+02 0.  0.
        -11    1    5    5    0    0 -0.29334970582E+02  0.47171683520E+01  0.21817722826E+03  0.22019104229E+03  0.00000000000E+00 0.  1.
         12    1    5    5    0    0  0.30755500277E+02 -0.36514710671E+02  0.46476449513E+03  0.46721008211E+03  0.00000000000E+00 0. -1.
         11    1    3    3    0    0 -0.40854064773E+02  0.39516226994E+01 -0.58625693209E+02  0.71565647029E+02  0.00000000000E+00 0. -1.
        -12    1    3    3    0    0  0.30554599744E+02 -0.97477239004E+01 -0.14585823369E+03  0.14934264636E+03  0.00000000000E+00 0.  1.
          5    1    4    4  501    0 -0.88704838309E+01  0.42741470455E+02  0.75267443942E+02  0.87110156111E+02  0.41800000000E+01 0.  1.
         -5    1    4    4    0  501  0.17749419165E+02 -0.51478269352E+01 -0.43640495750E+02  0.47576331008E+02  0.41800000000E+01 0.  1.
</event>
<event>
11    1  0.6455215E-009  0.1761747E+03  0.7561462E-02  0.1072780E+00
         22   -1    0    0    0    0  0.00000000000E+00  0.00000000000E+00  0.72709315716E+03  0.72709315716E+03  0.00000000000E+00 0. -1.
         22   -1    0    0    0    0 -0.00000000000E+00 -0.00000000000E+00 -0.16100117142E+04  0.16100117142E+04  0.00000000000E+00 0.  1.
        -24    2    1    2    0    0  0.12312392172E+03 -0.17632528773E+02 -0.15734971786E+04  0.15804868754E+04  0.81086287472E+02 0.  0.
         25    2    1    2    0    0 -0.98690690541E+02  0.36780754150E+02  0.19988553864E+03  0.25825192389E+03  0.12508857405E+03 0.  0.
         24    2    1    2    0    0 -0.24433231182E+02 -0.19148225377E+02  0.49069308296E+03  0.49836607204E+03  0.81396577175E+02 0.  0.
        -11    1    5    5    0    0  0.22615982537E+02  0.16497764322E+02  0.14725238232E+03  0.14988970276E+03  0.00000000000E+00 0.  1.
         12    1    5    5    0    0 -0.47049213719E+02 -0.35645989699E+02  0.34344070064E+03  0.34847636928E+03  0.00000000000E+00 0. -1.
         11    1    3    3    0    0  0.43523480228E+02  0.32495111281E+02 -0.60299729218E+03  0.60543865087E+03  0.00000000000E+00 0. -1.
        -12    1    3    3    0    0  0.79600441495E+02 -0.50127640055E+02 -0.97049988645E+03  0.97504822454E+03  0.00000000000E+00 0.  1.
          5    1    4    4  501    0 -0.50795064008E+02  0.82520669752E+02  0.12446782443E+03  0.15779578950E+03  0.41800000000E+01 0. -1.
         -5    1    4    4    0  501 -0.47895626532E+02 -0.45739915603E+02  0.75417714211E+02  0.10045613439E+03  0.41800000000E+01 0. -1.
</event>
<event>
11    1  0.6455215E-009  0.1348522E+03  0.7561462E-02  0.1113447E+00
         22   -1    0    0    0    0  0.00000000000E+00  0.00000000000E+00  0.10714853045E+04  0.10714853045E+04  0.00000000000E+00 0.  1.
         22   -1    0    0    0    0 -0.00000000000E+00 -0.00000000000E+00 -0.17853709464E+03  0.17853709464E+03  0.00000000000E+00 0. -1.
        -24    2    1    2    0    0 -0.19201374086E+01  0.18837033817E+02 -0.12166129369E+03  0.14803296589E+03  0.82181310752E+02 0.  0.
         25    2    1    2    0    0 -0.47503479140E+02 -0.28121380087E+02  0.71790609034E+02  0.15442719439E+03  0.12508586760E+03 0.  0.
         24    2    1    2    0    0  0.49423616549E+02  0.92843462696E+01  0.94281889455E+03  0.94756223888E+03  0.80236124550E+02 0.  0.
        -11    1    5    5    0    0  0.25912695752E+02  0.43483597619E+02  0.62474181904E+03  0.62678914439E+03  0.00000000000E+00 0.  1.
         12    1    5    5    0    0  0.23510920797E+02 -0.34199251350E+02  0.31807707550E+03  0.32077309449E+03  0.00000000000E+00 0. -1.
         13    1    3    3    0    0  0.35409762486E+02  0.19083839821E+02 -0.33693316553E+02  0.52471742891E+02  0.00000000000E+00 0. -1.
        -14    1    3    3    0    0 -0.37329899895E+02 -0.24680600420E+00 -0.87967977141E+02  0.95561223002E+02  0.00000000000E+00 0.  1.
          5    1    4    4  501    0 -0.11917107568E+02 -0.68791799094E+02  0.71785267060E+02  0.10022437848E+03  0.41800000000E+01 0.  1.
         -5    1    4    4    0  501 -0.35586371572E+02  0.40670419007E+02  0.53419744757E-02  0.54202815909E+02  0.41800000000E+01 0.  1.
</event>
<event>
11    1  0.6455215E-009  0.1823327E+03  0.7561462E-02  0.1067771E+00
         22   -1    0    0    0    0  0.00000000000E+00  0.00000000000E+00  0.83736975047E+03  0.83736975047E+03  0.00000000000E+00 0.  1.
         22   -1    0    0    0    0 -0.00000000000E+00 -0.00000000000E+00 -0.23624997050E+03  0.23624997050E+03  0.00000000000E+00 0. -1.
        -24    2    1    2    0    0 -0.13095756600E+03  0.18681423348E+02 -0.18055300681E+03  0.23788956146E+03  0.80580242708E+02 0.  0.
         25    2    1    2    0    0  0.13843242121E+03 -0.22780509495E+00  0.32336008297E+03  0.37332686213E+03  0.12509042966E+03 0.  0.
         24    2    1    2    0    0 -0.74748552046E+01 -0.18453618253E+02  0.45831270380E+03  0.46240329737E+03  0.58050542362E+02 0.  0.
        -11    1    5    5    0    0 -0.55511690780E+01 -0.39949661152E+01  0.43397872849E+03  0.43403261630E+03  0.00000000000E+00 0.  1.
         12    1    5    5    0    0 -0.19236861266E+01 -0.14458652137E+02  0.24333975311E+02  0.28370681070E+02  0.00000000000E+00 0. -1.
         11    1    3    3    0    0 -0.69823884221E+02 -0.26444672469E+01 -0.15167264914E+03  0.16699389364E+03  0.00000000000E+00 0. -1.
        -12    1    3    3    0    0 -0.61133681781E+02  0.21325890594E+02 -0.28880357668E+02  0.70895667828E+02  0.00000000000E+00 0.  1.
          5    1    4    4  501    0  0.91576637806E+02  0.39454974192E+02  0.28209527544E+03  0.29922933079E+03  0.41800000000E+01 0. -1.
         -5    1    4    4    0  501  0.46855783401E+02 -0.39682779287E+02  0.41264807534E+02  0.74097531341E+02  0.41800000000E+01 0. -1.
</event>
<event>
11    1  0.6455215E-009  0.1544129E+03  0.7561462E-02  0.1092453E+00
         22   -1    0    0    0    0  0.00000000000E+00  0.00000000000E+00  0.13514053077E+04  0.13514053077E+04  0.00000000000E+00 0. -1.
         22   -1    0    0    0    0 -0.00000000000E+00 -0.00000000000E+00 -0.30914329164E+03  0.30914329164E+03  0.00000000000E+00 0. -1.
         24    2    1    2    0    0 -0.98192848217E+01  0.40647536282E+02 -0.24002577942E+03  0.25657896972E+03  0.80447202288E+02 0.  0.
         25    2    1    2    0    0 -0.66106694044E+02 -0.88644880400E+02  0.62563868746E+02  0.17831258114E+03  0.12511246581E+03 0.  0.
        -24    2    1    2    0    0  0.75925978866E+02  0.47997344118E+02  0.12197239267E+04  0.12256570485E+04  0.80251129078E+02 0.  0.
        -11    1    3    3    0    0 -0.37085102230E+02  0.39741325604E+02 -0.99021858834E+02  0.11296019784E+03  0.00000000000E+00 0.  1.
         12    1    3    3    0    0  0.27265817408E+02  0.90621067860E+00 -0.14100392059E+03  0.14361877188E+03  0.00000000000E+00 0. -1.
         11    1    5    5    0    0  0.63418590257E+02  0.13355072133E+02  0.10492579509E+04  0.10512575912E+04  0.00000000000E+00 0. -1.
        -12    1    5    5    0    0  0.12507388609E+02  0.34642271985E+02  0.17046597580E+03  0.17439945723E+03  0.00000000000E+00 0.  1.
          5    1    4    4  501    0 -0.19006108946E+02 -0.43741637113E+02  0.94325424441E+02  0.10577958731E+03  0.41800000000E+01 0. -1.
         -5    1    4    4    0  501 -0.47100585098E+02 -0.44903243287E+02 -0.31761555695E+02  0.72532993834E+02  0.41800000000E+01 0. -1.
</event>
<event>
11    1  0.6455215E-009  0.1794034E+03  0.7561462E-02  0.1070126E+00
         22   -1    0    0    0    0  0.00000000000E+00  0.00000000000E+00  0.14632083440E+03  0.14632083440E+03  0.00000000000E+00 0.  1.
         22   -1    0    0    0    0 -0.00000000000E+00 -0.00000000000E+00 -0.10416919223E+04  0.10416919223E+04  0.00000000000E+00 0. -1.
        -24    2    1    2    0    0  0.15812409179E+03 -0.64346014383E+02 -0.65821411852E+03  0.68470351018E+03  0.80183745621E+02 0.  0.
         25    2    1    2    0    0 -0.79469007247E+02 -0.61486607641E+02 -0.28648970852E+03  0.32836168565E+03  0.12509643273E+03 0.  0.
         24    2    1    2    0    0 -0.78655084538E+02  0.12583262202E+03  0.49332739145E+02  0.17494756086E+03  0.78437610943E+02 0.  0.
        -11    1    5    5    0    0 -0.25109941755E+02  0.93134175108E+02  0.56517773546E+02  0.11179777491E+03  0.00000000000E+00 0.  1.
         12    1    5    5    0    0 -0.53545142783E+02  0.32698446915E+02 -0.71850344008E+01  0.63149785951E+02  0.00000000000E+00 0. -1.
         11    1    3    3    0    0  0.58805209697E+02  0.15862711474E+02 -0.20615784261E+03  0.21496682156E+03  0.00000000000E+00 0. -1.
        -12    1    3    3    0    0  0.99318882088E+02 -0.80208725857E+02 -0.45205627591E+03  0.46973668862E+03  0.00000000000E+00 0.  1.
          5    1    4    4  501    0  0.27039388709E+02 -0.44159488715E+02 -0.10568381919E+03  0.11776133077E+03  0.41800000000E+01 0.  1.
         -5    1    4    4    0  501 -0.10650839596E+03 -0.17327118926E+02 -0.18080588932E+03  0.21060035488E+03  0.41800000000E+01 0.  1.
</event>
<event>
11    1  0.6455215E-009  0.1327522E+03  0.7561462E-02  0.1115933E+00
         22   -1    0    0    0    0  0.00000000000E+00  0.00000000000E+00  0.71080987495E+03  0.71080987495E+03  0.00000000000E+00 0. -1.
         22   -1    0    0    0    0 -0.00000000000E+00 -0.00000000000E+00 -0.12875346548E+03  0.12875346548E+03  0.00000000000E+00 0.  1.
         24    2    1    2    0    0  0.58482245836E+01  0.32337501360E+02 -0.68688350621E+02  0.11027506021E+03  0.79765805129E+02 0.  0.
         25    2    1    2    0    0  0.38957329819E+02 -0.25010489850E+02  0.89422329586E+02  0.16057952395E+03  0.12508490051E+03 0.  0.
        -24    2    1    2    0    0 -0.44805554402E+02 -0.73270115100E+01  0.56132243051E+03  0.56870875627E+03  0.79281496309E+02 0.  0.
        -11    1    3    3    0    0  0.16161606901E+00  0.42314590356E+02 -0.82254715460E+02  0.92500750765E+02  0.00000000000E+00 0.  1.
         12    1    3    3    0    0  0.56866085146E+01 -0.99770889963E+01  0.13566364839E+02  0.17774309443E+02  0.00000000000E+00 0. -1.
         11    1    5    5    0    0 -0.92145736611E+01 -0.24008180717E+02  0.44847741205E+03  0.44921408062E+03  0.00000000000E+00 0. -1.
        -12    1    5    5    0    0 -0.35590980741E+02  0.16681169207E+02  0.11284501846E+03  0.11949467564E+03  0.00000000000E+00 0.  1.
          5    1    4    4  501    0  0.41524518947E+02 -0.49273749539E+02  0.11055514810E+03  0.12803164155E+03  0.41800000000E+01 0.  1.
         -5    1    4    4    0  501 -0.25671891284E+01  0.24263259689E+02 -0.21132818509E+02  0.32547882403E+02  0.41800000000E+01 0.  1.
</event>
<event>
11    1  0.6455215E-009  0.1491381E+03  0.7561462E-02  0.1097763E+00
         22   -1    0    0    0    0  0.00000000000E+00  0.00000000000E+00  0.15540970993E+03  0.15540970993E+03  0.00000000000E+00 0.  1.
         22   -1    0    0    0    0 -0.00000000000E+00 -0.00000000000E+00 -0.89871166347E+03  0.89871166347E+03  0.00000000000E+00 0. -1.
         24    2    1    2    0    0  0.68221422618E+01  0.83258478052E+02 -0.80298714325E+03  0.81137993976E+03  0.81058859013E+02 0.  0.
         25    2    1    2    0    0 -0.28595520851E+02 -0.38834029482E+02  0.95389111624E+01  0.13440308425E+03  0.12508961816E+03 0.  0.
        -24    2    1    2    0    0  0.21773378589E+02 -0.44424448570E+02  0.50146278541E+02  0.10833834940E+03  0.82310005786E+02 0.  0.
        -11    1    3    3    0    0 -0.15620909286E+01 -0.99796035608E+01 -0.27311729404E+03  0.27330402288E+03  0.00000000000E+00 0.  1.
         12    1    3    3    0    0  0.83842331903E+01  0.93238081613E+02 -0.52986984921E+03  0.53807591688E+03  0.00000000000E+00 0. -1.
         13    1    5    5    0    0 -0.13759529614E+02 -0.43520259035E+02 -0.14701892068E+01  0.45667264622E+02  0.00000000000E+00 0. -1.
        -14    1    5    5    0    0  0.35532908203E+02 -0.90418953466E+00  0.51616467748E+02  0.62671084774E+02  0.00000000000E+00 0.  1.
          5    1    4    4  501    0 -0.10649208993E+02  0.45766807798E+02 -0.95865711962E+00  0.47184719684E+02  0.41800000000E+01 0. -1.
         -5    1    4    4    0  501 -0.17946311858E+02 -0.84600837279E+02  0.10497568282E+02  0.87218364566E+02  0.41800000000E+01 0. -1.
</event>
<event>
11    1  0.6455215E-009  0.1632162E+03  0.7561462E-02  0.1084091E+00
         22   -1    0    0    0    0  0.00000000000E+00  0.00000000000E+00  0.93280183757E+03  0.93280183757E+03  0.00000000000E+00 0. -1.
         22   -1    0    0    0    0 -0.00000000000E+00 -0.00000000000E+00 -0.83341069708E+03  0.83341069708E+03  0.00000000000E+00 0.  1.
         24    2    1    2    0    0  0.32659856960E+02  0.10360067622E+03 -0.65239974037E+03  0.66602951755E+03  0.78550179152E+02 0.  0.
         25    2    1    2    0    0 -0.61661987008E+02 -0.68787906981E+02 -0.13668403771E+03  0.20703954661E+03  0.12509544719E+03 0.  0.
        -24    2    1    2    0    0  0.29002130048E+02 -0.34812769240E+02  0.88847491857E+03  0.89314347048E+03  0.79148755458E+02 0.  0.
        -13    1    3    3    0    0  0.27812061339E+02  0.96302796137E+02 -0.64889773901E+03  0.65659425446E+03  0.00000000000E+00 0.  1.
         14    1    3    3    0    0  0.48477956214E+01  0.72978800841E+01 -0.35020013651E+01  0.94352630949E+01  0.00000000000E+00 0. -1.
         11    1    5    5    0    0  0.55416804141E+02 -0.22396633376E+02  0.49683882013E+03  0.50042126709E+03  0.00000000000E+00 0. -1.
        -12    1    5    5    0    0 -0.26414674093E+02 -0.12416135864E+02  0.39163609844E+03  0.39272220339E+03  0.00000000000E+00 0.  1.
          5    1    4    4  501    0 -0.79838744382E+02 -0.15740159278E+02 -0.30722737470E+02  0.87082355941E+02  0.41800000000E+01 0. -1.
         -5    1    4    4    0  501  0.18176757374E+02 -0.53047747702E+02 -0.10596130024E+03  0.11995719067E+03  0.41800000000E+01 0. -1.
</event>
<event>
11    1  0.6455215E-009  0.1996649E+03  0.7561462E-02  0.1054761E+00
         22   -1    0    0    0    0  0.00000000000E+00  0.00000000000E+00  0.58301749728E+03  0.58301749728E+03  0.00000000000E+00 0.  1.
         22   -1    0    0    0    0 -0.00000000000E+00 -0.00000000000E+00 -0.21076401015E+04  0.21076401015E+04  0.00000000000E+00 0.  1.
         24    2    1    2    0    0 -0.14708956142E+03 -0.49603886703E+02 -0.20179277648E+04  0.20254862653E+04  0.80413072698E+02 0.  0.
         25    2    1    2    0    0  0.15778324586E+03  0.62922533541E+02  0.52868880994E+02  0.21748197791E+03  0.12509394165E+03 0.  0.
        -24    2    1    2    0    0 -0.10693684439E+02 -0.13318646838E+02  0.44043627958E+03  0.44768935559E+03  0.78421307671E+02 0.  0.
        -11    1    3    3    0    0 -0.13957006345E+03 -0.22959191758E+02 -0.14495795138E+04  0.14564641067E+04  0.00000000000E+00 0.  1.
         12    1    3    3    0    0 -0.75194979690E+01 -0.26644694945E+02 -0.56834825094E+03  0.56902215859E+03  0.00000000000E+00 0. -1.
         13    1    5    5    0    0 -0.26803013799E+01 -0.26929772137E+02  0.49342895290E+02  0.56277153077E+02  0.00000000000E+00 0. -1.
        -14    1    5    5    0    0 -0.80133830592E+01  0.13611125299E+02  0.39109338429E+03  0.39141220251E+03  0.00000000000E+00 0.  1.
          5    1    4    4  501    0  0.86123044993E+02 -0.11880819963E+02 -0.21788346547E+02  0.89724785913E+02  0.41800000000E+01 0. -1.
         -5    1    4    4    0  501  0.71660200863E+02  0.74803353504E+02  0.74657227541E+02  0.12775719200E+03  0.41800000000E+01 0. -1.
</event>
<event>
11    1  0.6455215E-009  0.1302911E+03  0.7561462E-02  0.1118912E+00
         22   -1    0    0    0    0  0.00000000000E+00  0.00000000000E+00  0.17719593908E+03  0.17719593908E+03  0.00000000000E+00 0. -1.
         22   -1    0    0    0    0 -0.00000000000E+00 -0.00000000000E+00 -0.61682712098E+03  0.61682712098E+03  0.00000000000E+00 0.  1.
         24    2    1    2    0    0 -0.26162341389E+02  0.18575712762E+02 -0.48334362574E+03  0.49470084722E+03  0.10039094818E+03 0.  0.
         25    2    1    2    0    0  0.37639181528E+02 -0.78680402830E+02 -0.50968322853E+02  0.16078826778E+03  0.12509110019E+03 0.  0.
        -24    2    1    2    0    0 -0.11476840139E+02  0.60104690068E+02  0.94680766698E+02  0.13853394506E+03  0.80516549373E+02 0.  0.
        -13    1    3    3    0    0  0.89479313875E+01  0.54360728467E+02 -0.23904649052E+03  0.24531281847E+03  0.00000000000E+00 0.  1.
         14    1    3    3    0    0 -0.35110272777E+02 -0.35785015705E+02 -0.24429713522E+03  0.24938802874E+03  0.00000000000E+00 0. -1.
         13    1    5    5    0    0 -0.28819174104E+02  0.28131761557E+02  0.93877706620E+02  0.10215167451E+03  0.00000000000E+00 0. -1.
        -14    1    5    5    0    0  0.17342333966E+02  0.31972928511E+02  0.80306007811E+00  0.36382270551E+02  0.00000000000E+00 0.  1.
          5    1    4    4  501    0 -0.33986970991E+01 -0.94936103819E+02 -0.63945841719E+02  0.11459039237E+03  0.41800000000E+01 0. -1.
         -5    1    4    4    0  501  0.41037878627E+02  0.16255700989E+02  0.12977518865E+02  0.46197875414E+02  0.41800000000E+01 0. -1.
</event>
<event>
11    1  0.6455215E-009  0.2341748E+03  0.7561462E-02  0.1032684E+00
         22   -1    0    0    0    0  0.00000000000E+00  0.00000000000E+00  0.48292676443E+03  0.48292676443E+03  0.00000000000E+00 0. -1.
         22   -1    0    0    0    0 -0.00000000000E+00 -0.00000000000E+00 -0.98940734213E+03  0.98940734213E+03  0.00000000000E+00 0.  1.
         24    2    1    2    0    0 -0.84134908718E+02 -0.15960213211E+03 -0.58711008966E+03  0.62074022634E+03  0.89825652096E+02 0.  0.
         25    2    1    2    0    0  0.16869586388E+03  0.19799144264E+03 -0.32090043267E+03  0.43160577265E+03  0.12509016526E+03 0.  0.
        -24    2    1    2    0    0 -0.84560955160E+02 -0.38389310522E+02  0.40152994464E+03  0.41998810757E+03  0.80866678921E+02 0.  0.
        -11    1    3    3    0    0 -0.88298809914E+02 -0.11433219791E+03 -0.51991728547E+03  0.53961330139E+03  0.00000000000E+00 0.  1.
         12    1    3    3    0    0  0.41639011964E+01 -0.45269934208E+02 -0.67192804198E+02  0.81126924953E+02  0.00000000000E+00 0. -1.
         11    1    5    5    0    0 -0.41440050317E+02 -0.61385652297E+02  0.25369582608E+03  0.26428592140E+03  0.00000000000E+00 0. -1.
        -12    1    5    5    0    0 -0.43120904843E+02  0.22996341774E+02  0.14783411856E+03  0.15570218618E+03  0.00000000000E+00 0.  1.
          5    1    4    4  501    0  0.15463856677E+02  0.10199644569E+03 -0.15459984207E+03  0.18590586157E+03  0.41800000000E+01 0.  1.
         -5    1    4    4    0  501  0.15323200720E+03  0.95994996945E+02 -0.16630059060E+03  0.24569991108E+03  0.41800000000E+01 0.  1.
</event>
<event>
11    1  0.6455215E-009  0.1982542E+03  0.7561462E-02  0.1055765E+00
         22   -1    0    0    0    0  0.00000000000E+00  0.00000000000E+00  0.15522027622E+04  0.15522027622E+04  0.00000000000E+00 0. -1.
         22   -1    0    0    0    0 -0.00000000000E+00 -0.00000000000E+00 -0.13453410241E+04  0.13453410241E+04  0.00000000000E+00 0. -1.
        -24    2    1    2    0    0  0.61370548668E+02 -0.11846636265E+03 -0.10273968720E+04  0.10391260822E+04  0.80237515053E+02 0.  0.
         25    2    1    2    0    0  0.42479350013E+02  0.23090897775E+03 -0.24943157019E+03  0.36467485261E+03  0.12509272057E+03 0.  0.
         24    2    1    2    0    0 -0.10384989868E+03 -0.11244261510E+03  0.14836901803E+04  0.14937428515E+04  0.80641256167E+02 0.  0.
        -11    1    5    5    0    0  0.41610419621E+01 -0.19507818948E+02  0.42994696862E+03  0.43040941567E+03  0.00000000000E+00 0.  1.
         12    1    5    5    0    0 -0.10801094064E+03 -0.92934796150E+02  0.10537432116E+04  0.10633334358E+04  0.00000000000E+00 0. -1.
         13    1    3    3    0    0 -0.20350816220E+01 -0.75120147127E+02 -0.62145981333E+03  0.62598680309E+03  0.00000000000E+00 0. -1.
        -14    1    3    3    0    0  0.63405630290E+02 -0.43346215523E+02 -0.40593705865E+03  0.41313927910E+03  0.00000000000E+00 0.  1.
          5    1    4    4  501    0 -0.81719304886E+01  0.16485489759E+03 -0.98495077731E+02  0.19225678257E+03  0.41800000000E+01 0. -1.
         -5    1    4    4    0  501  0.50651280501E+02  0.66054080157E+02 -0.15093649246E+03  0.17241807004E+03  0.41800000000E+01 0. -1.
</event>
<event>
11    1  0.6455215E-009  0.1639913E+03  0.7561462E-02  0.1083382E+00
         22   -1    0    0    0    0  0.00000000000E+00  0.00000000000E+00  0.80356760132E+03  0.80356760132E+03  0.00000000000E+00 0. -1.
         22   -1    0    0    0    0 -0.00000000000E+00 -0.00000000000E+00 -0.10970150184E+03  0.10970150184E+03  0.00000000000E+00 0. -1.
        -24    2    1    2    0    0 -0.12047183846E+02 -0.12915579814E+02 -0.43443051847E+02  0.93453050590E+02  0.80834566061E+02 0.  0.
         25    2    1    2    0    0 -0.94103292525E+02  0.31897198969E+02  0.15756272762E+03  0.22437839686E+03  0.12508713314E+03 0.  0.
         24    2    1    2    0    0  0.10615047637E+03 -0.18981619155E+02  0.57974642371E+03  0.59543765571E+03  0.82533996231E+02 0.  0.
        -11    1    5    5    0    0 -0.35089805176E+01  0.85796489238E+01  0.69439918575E+01  0.11581983545E+02  0.00000000000E+00 0.  1.
         12    1    5    5    0    0  0.10965945689E+03 -0.27561268079E+02  0.57280243185E+03  0.58385567217E+03  0.00000000000E+00 0. -1.
         13    1    3    3    0    0  0.15674719198E+01  0.16484082648E+02 -0.56233466336E+02  0.58620684789E+02  0.00000000000E+00 0. -1.
        -14    1    3    3    0    0 -0.13614655766E+02 -0.29399662462E+02  0.12790414489E+02  0.34832365801E+02  0.00000000000E+00 0.  1.
          5    1    4    4  501    0 -0.18486850794E+02  0.46393104718E+02  0.13058763377E+01  0.50132439903E+02  0.41800000000E+01 0.  1.
         -5    1    4    4    0  501 -0.75616441731E+02 -0.14495905748E+02  0.15625685128E+03  0.17424595696E+03  0.41800000000E+01 0.  1.
</event>
<event>
11    1  0.6455215E-009  0.1529874E+03  0.7561462E-02  0.1093865E+00
         22   -1    0    0    0    0  0.00000000000E+00  0.00000000000E+00  0.20132154320E+03  0.20132154320E+03  0.00000000000E+00 0.  1.
         22   -1    0    0    0    0 -0.00000000000E+00 -0.00000000000E+00 -0.87485260149E+03  0.87485260149E+03  0.00000000000E+00 0. -1.
         24    2    1    2    0    0  0.93462109442E+02 -0.50421537547E+01 -0.77064991245E+03  0.78036589903E+03  0.79429588964E+02 0.  0.
         25    2    1    2    0    0 -0.30373679172E+02 -0.42567088892E+01 -0.30237387538E+02  0.13229527863E+03  0.12508821361E+03 0.  0.
        -24    2    1    2    0    0 -0.63088430269E+02  0.92988626439E+01  0.12735624169E+03  0.16351296702E+03  0.80313505754E+02 0.  0.
        -11    1    3    3    0    0  0.85856859165E+02  0.13388205292E+02 -0.40713557208E+03  0.41630519858E+03  0.00000000000E+00 0.  1.
         12    1    3    3    0    0  0.76052502772E+01 -0.18430359047E+02 -0.36351434037E+03  0.36406070046E+03  0.00000000000E+00 0. -1.
         11    1    5    5    0    0  0.10463841448E+02  0.41830227108E+00 -0.51739777285E+01  0.11680624991E+02  0.00000000000E+00 0. -1.
        -12    1    5    5    0    0 -0.73552271718E+02  0.88805603728E+01  0.13253021942E+03  0.15183234203E+03  0.00000000000E+00 0.  1.
          5    1    4    4  501    0  0.81762022362E+01  0.30270328910E+02  0.36137258573E+02  0.48026211098E+02  0.41800000000E+01 0. -1.
         -5    1    4    4    0  501 -0.38549881409E+02 -0.34527037799E+02 -0.66374646111E+02  0.84269067529E+02  0.41800000000E+01 0. -1.
</event>
<event>
11    1  0.6455215E-009  0.1363475E+03  0.7561462E-02  0.1111707E+00
         22   -1    0    0    0    0  0.00000000000E+00  0.00000000000E+00  0.15447059082E+03  0.15447059082E+03  0.00000000000E+00 0. -1.
         22   -1    0    0    0    0 -0.00000000000E+00 -0.00000000000E+00 -0.20500620174E+03  0.20500620174E+03  0.00000000000E+00 0. -1.
        -24    2    1    2    0    0  0.71583617258E+01  0.34568179248E+01 -0.83355564874E+02  0.11711417117E+03  0.81880322186E+02 0.  0.
         25    2    1    2    0    0 -0.55368870585E+02 -0.22430986675E+02 -0.62427546558E+01  0.13876321884E+03  0.12508955961E+03 0.  0.
         24    2    1    2    0    0  0.48210508860E+02  0.18974168750E+02  0.39062708605E+02  0.10359940255E+03  0.80763040811E+02 0.  0.
        -13    1    5    5    0    0 -0.17966936421E+02  0.13746400387E+02 -0.59525218642E+01  0.23392452726E+02  0.00000000000E+00 0.  1.
         14    1    5    5    0    0  0.66177445281E+02  0.52277683628E+01  0.45015230469E+02  0.80206949825E+02  0.00000000000E+00 0. -1.
         11    1    3    3    0    0 -0.18021251799E+02  0.29648958691E+02 -0.70498586820E+02  0.78574022498E+02  0.00000000000E+00 0. -1.
        -12    1    3    3    0    0  0.25179613525E+02 -0.26192140766E+02 -0.12856978054E+02  0.38540148675E+02  0.00000000000E+00 0.  1.
          5    1    4    4  501    0 -0.34785803254E+02 -0.62967941429E+02 -0.39597474436E+02  0.82221932217E+02  0.41800000000E+01 0.  1.
         -5    1    4    4    0  501 -0.20583067332E+02  0.40536954754E+02  0.33354719781E+02  0.56541286624E+02  0.41800000000E+01 0.  1.
</event>
<event>
11    1  0.6455215E-009  0.1522401E+03  0.7561462E-02  0.1094612E+00
         22   -1    0    0    0    0  0.00000000000E+00  0.00000000000E+00  0.67978142644E+02  0.67978142644E+02  0.00000000000E+00 0. -1.
         22   -1    0    0    0    0 -0.00000000000E+00 -0.00000000000E+00 -0.41108958448E+04  0.41108958448E+04  0.00000000000E+00 0. -1.
         24    2    1    2    0    0 -0.53490124765E+02 -0.41771406138E+02 -0.37580579154E+04  0.37595595356E+04  0.81746944977E+02 0.  0.
         25    2    1    2    0    0 -0.10453829802E+02  0.10191171485E+03 -0.25042205700E+03  0.29808440363E+03  0.12509126617E+03 0.  0.
        -24    2    1    2    0    0  0.63943954566E+02 -0.60140308716E+02 -0.34437729809E+02  0.12123004819E+03  0.76191084065E+02 0.  0.
        -11    1    3    3    0    0  0.19763846007E+02 -0.12042721259E+02 -0.49087851058E+03  0.49142379765E+03  0.00000000000E+00 0.  1.
         12    1    3    3    0    0 -0.73253970771E+02 -0.29728684878E+02 -0.32671794048E+04  0.32681357380E+04  0.00000000000E+00 0. -1.
         11    1    5    5    0    0  0.18594924783E+02 -0.54755107589E+02 -0.46264254264E+02  0.74055886041E+02  0.00000000000E+00 0. -1.
        -12    1    5    5    0    0  0.45349029783E+02 -0.53852011271E+01  0.11826524455E+02  0.47174162146E+02  0.00000000000E+00 0.  1.
          5    1    4    4  501    0  0.42827343422E+02  0.95657835553E+02 -0.19109705049E+03  0.21799118779E+03  0.41800000000E+01 0. -1.
         -5    1    4    4    0  501 -0.53281173223E+02  0.62538793008E+01 -0.59325006514E+02  0.80093215844E+02  0.41800000000E+01 0. -1.
</event>
<event>
11    1  0.6455215E-009  0.1351259E+03  0.7561462E-02  0.1113127E+00
         22   -1    0    0    0    0  0.00000000000E+00  0.00000000000E+00  0.22163592793E+04  0.22163592793E+04  0.00000000000E+00 0.  1.
         22   -1    0    0    0    0 -0.00000000000E+00 -0.00000000000E+00 -0.42951079229E+02  0.42951079229E+02  0.00000000000E+00 0.  1.
        -24    2    1    2    0    0  0.12333746666E+02 -0.12418124918E+02  0.74677898815E+02  0.11049776630E+03  0.79540157479E+02 0.  0.
         25    2    1    2    0    0  0.30242910082E+02  0.40937601482E+02  0.16717200806E+03  0.21490747743E+03  0.12509285653E+03 0.  0.
         24    2    1    2    0    0 -0.42576656749E+02 -0.28519476564E+02  0.19315582932E+04  0.19339051148E+04  0.80283377949E+02 0.  0.
        -13    1    5    5    0    0 -0.26843392066E+02  0.18938711555E+02  0.12837374892E+04  0.12841577721E+04  0.00000000000E+00 0.  1.
         14    1    5    5    0    0 -0.15733264683E+02 -0.47458188119E+02  0.64782080403E+03  0.64974734272E+03  0.00000000000E+00 0. -1.
         13    1    3    3    0    0 -0.21241316644E+02 -0.29871289882E+02  0.59169736623E+02  0.69602767359E+02  0.00000000000E+00 0. -1.
        -14    1    3    3    0    0  0.33575063310E+02  0.17453164964E+02  0.15508162193E+02  0.40894998938E+02  0.00000000000E+00 0.  1.
          5    1    4    4  501    0 -0.28518420104E+02 -0.29063371295E+02  0.33341899608E+02  0.52793318760E+02  0.41800000000E+01 0. -1.
         -5    1    4    4    0  501  0.58761330187E+02  0.70000972777E+02  0.13383010845E+03  0.16211415867E+03  0.41800000000E+01 0. -1.
</event>
<event>
11    1  0.6455215E-009  0.1274565E+03  0.7561462E-02  0.1122434E+00
         22   -1    0    0    0    0  0.00000000000E+00  0.00000000000E+00  0.12168314463E+04  0.12168314463E+04  0.00000000000E+00 0. -1.
         22   -1    0    0    0    0 -0.00000000000E+00 -0.00000000000E+00 -0.89478993336E+03  0.89478993336E+03  0.00000000000E+00 0. -1.
        -24    2    1    2    0    0  0.23048575215E+02 -0.65296951779E+01 -0.82475746127E+03  0.82910773641E+03  0.81368881685E+02 0.  0.
         25    2    1    2    0    0 -0.42829080624E+02 -0.78399127792E+01 -0.44760952317E+00  0.13245209940E+03  0.12509022305E+03 0.  0.
         24    2    1    2    0    0  0.19780505408E+02  0.14369607957E+02  0.11472465837E+04  0.11500615438E+04  0.76609899797E+02 0.  0.
        -13    1    5    5    0    0 -0.18631444109E+02  0.27329967438E+02  0.29445690852E+03  0.29630884024E+03  0.00000000000E+00 0.  1.
         14    1    5    5    0    0  0.38411949517E+02 -0.12960359481E+02  0.85278967519E+03  0.85375270360E+03  0.00000000000E+00 0. -1.
         13    1    3    3    0    0  0.46431716322E+02 -0.63658160639E+01 -0.73017718531E+03  0.73167967707E+03  0.00000000000E+00 0. -1.
        -14    1    3    3    0    0 -0.23383141107E+02 -0.16387911400E+00 -0.94580275960E+02  0.97428059331E+02  0.00000000000E+00 0.  1.
          5    1    4    4  501    0 -0.31310652957E+01  0.25398971154E+02 -0.52724615164E+02  0.58756010329E+02  0.41800000000E+01 0. -1.
         -5    1    4    4    0  501 -0.39698015328E+02 -0.33238883933E+02  0.52277005641E+02  0.73696089075E+02  0.41800000000E+01 0. -1.
</event>
<event>
11    1  0.6455215E-009  0.1380592E+03  0.7561462E-02  0.1109745E+00
         22   -1    0    0    0    0  0.00000000000E+00  0.00000000000E+00  0.14168474943E+04  0.14168474943E+04  0.00000000000E+00 0.  1.
         22   -1    0    0    0    0 -0.00000000000E+00 -0.00000000000E+00 -0.64406051168E+02  0.64406051168E+02  0.00000000000E+00 0.  1.
        -24    2    1    2    0    0  0.96316438739E+01 -0.18647387086E+02  0.41744507548E+01  0.85182329533E+02  0.82450649583E+02 0.  0.
         25    2    1    2    0    0 -0.60940873235E+02  0.43209761762E+02  0.22260821756E+03  0.26604924682E+03  0.12508760797E+03 0.  0.
         24    2    1    2    0    0  0.51309229362E+02 -0.24562374676E+02  0.11256587748E+04  0.11300219691E+04  0.81277463534E+02 0.  0.
        -11    1    5    5    0    0  0.49080218632E+02  0.51110035531E+01  0.31716120746E+03  0.32097698007E+03  0.00000000000E+00 0.  1.
         12    1    5    5    0    0  0.22290107296E+01 -0.29673378229E+02  0.80849756733E+03  0.80904498901E+03  0.00000000000E+00 0. -1.
         11    1    3    3    0    0  0.19081976258E+02 -0.21138321761E+02  0.39406920426E+02  0.48619500637E+02  0.00000000000E+00 0. -1.
        -12    1    3    3    0    0 -0.94503323837E+01  0.24909346751E+01 -0.35232469671E+02  0.36562828895E+02  0.00000000000E+00 0.  1.
          5    1    4    4  501    0 -0.89221750204E+02  0.35420844382E+02  0.21494487466E+03  0.23544410901E+03  0.41800000000E+01 0. -1.
         -5    1    4    4    0  501  0.28280876969E+02  0.77889173801E+01  0.76633428989E+01  0.30605137812E+02  0.41800000000E+01 0. -1.
</event>
<event>
11    1  0.6455215E-009  0.1480350E+03  0.7561462E-02  0.1098904E+00
         22   -1    0    0    0    0  0.00000000000E+00  0.00000000000E+00  0.12161061390E+04  0.12161061390E+04  0.00000000000E+00 0. -1.
         22   -1    0    0    0    0 -0.00000000000E+00 -0.00000000000E+00 -0.12983037919E+04  0.12983037919E+04  0.00000000000E+00 0. -1.
        -24    2    1    2    0    0 -0.29062129809E+02 -0.88386510882E+01 -0.12032308578E+04  0.12062071318E+04  0.79046938582E+02 0.  0.
         25    2    1    2    0    0  0.82040525756E+02  0.66609066369E+02 -0.16976475074E+02  0.16463036730E+03  0.12509013368E+03 0.  0.
         24    2    1    2    0    0 -0.52978395948E+02 -0.57770415281E+02  0.11380096800E+04  0.11435724318E+04  0.80918129710E+02 0.  0.
        -11    1    5    5    0    0 -0.32191058864E+02 -0.68633737149E+02  0.56253980124E+03  0.56762477229E+03  0.00000000000E+00 0.  1.
         12    1    5    5    0    0 -0.20787337084E+02  0.10863321868E+02  0.57546987877E+03  0.57594765952E+03  0.00000000000E+00 0. -1.
         11    1    3    3    0    0 -0.18888291993E+02 -0.26154192864E+02 -0.11242532303E+04  0.11247160243E+04  0.00000000000E+00 0. -1.
        -12    1    3    3    0    0 -0.10173837816E+02  0.17315541776E+02 -0.78977627468E+02  0.81491107511E+02  0.00000000000E+00 0.  1.
          5    1    4    4  501    0  0.97818079169E+02  0.56541031605E+02 -0.52196349155E+02  0.12452789299E+03  0.41800000000E+01 0.  1.
         -5    1    4    4    0  501 -0.15777553412E+02  0.10068034764E+02  0.35219874081E+02  0.40102474312E+02  0.41800000000E+01 0.  1.
</event>
<event>
11    1  0.1162366E-008  0.1657009E+03  0.7561462E-02  0.1081835E+00
         22   -1    0    0    0    0  0.00000000000E+00  0.00000000000E+00  0.82640543532E+03  0.82640543532E+03  0.00000000000E+00 0. -1.
         22   -1    0    0    0    0 -0.00000000000E+00 -0.00000000000E+00 -0.38364205925E+03  0.38364205925E+03  0.00000000000E+00 0.  1.
        -24    2    1    2    0    0 -0.24892701596E+02  0.10363370202E+02 -0.21366733371E+03  0.22968004859E+03  0.79825742655E+02 0.  0.
         25    2    1    2    0    0 -0.55912590047E+02 -0.83651872819E+02 -0.11470840028E+03  0.19730467899E+03  0.12508903111E+03 0.  0.
         24    2    1    2    0    0  0.80805291643E+02  0.73288502616E+02  0.77113911006E+03  0.78306276698E+03  0.81431383334E+02 0.  0.
        -11    1    5    5    0    0  0.33613420009E+02  0.80627944190E+02  0.54260801683E+03  0.54959456631E+03  0.00000000000E+00 0.  1.
         12    1    5    5    0    0  0.47191871634E+02 -0.73394415732E+01  0.22853109323E+03  0.23346820067E+03  0.00000000000E+00 0. -1.
         11    1    3    3    0    0  0.26875410863E+02  0.61828938369E+00 -0.11194176324E+03  0.11512440379E+03  0.00000000000E+00 0. -1.
        -12    1    3    3    0    0 -0.51768112459E+02  0.97450808187E+01 -0.10172557047E+03  0.11455564480E+03  0.00000000000E+00 0.  1.
          5    1    4    4  501    0 -0.12053892345E+02 -0.18933481363E+02  0.27029513143E+02  0.35381351274E+02  0.41800000000E+01 0.  1.
         -5    1    4    4    0  501 -0.43858697702E+02 -0.64718391456E+02 -0.14173791343E+03  0.16192332772E+03  0.41800000000E+01 0.  1.
</event>
<event>
11    1  0.6455215E-009  0.1381781E+03  0.7561462E-02  0.1109610E+00
         22   -1    0    0    0    0  0.00000000000E+00  0.00000000000E+00  0.14880262711E+03  0.14880262711E+03  0.00000000000E+00 0.  1.
         22   -1    0    0    0    0 -0.00000000000E+00 -0.00000000000E+00 -0.88868753022E+03  0.88868753022E+03  0.00000000000E+00 0.  1.
         24    2    1    2    0    0  0.56472362222E+02 -0.10272347742E+02 -0.59008833707E+03  0.59843393265E+03  0.81389663825E+02 0.  0.
         25    2    1    2    0    0 -0.68205441190E+02 -0.28003137116E+02 -0.25996842042E+03  0.29777242342E+03  0.12509467870E+03 0.  0.
        -24    2    1    2    0    0  0.11733078968E+02  0.38275484859E+02  0.11017185438E+03  0.14128380126E+03  0.78870762119E+02 0.  0.
        -11    1    3    3    0    0  0.14317592795E+02 -0.41343775088E+02 -0.34844018578E+03  0.35117640050E+03  0.00000000000E+00 0.  1.
         12    1    3    3    0    0  0.42154769427E+02  0.31071427346E+02 -0.24164815129E+03  0.24725753215E+03  0.00000000000E+00 0. -1.
         13    1    5    5    0    0  0.29161734108E+02 -0.68649007012E+01  0.12854045280E+02  0.32600001194E+02  0.00000000000E+00 0. -1.
        -14    1    5    5    0    0 -0.17428655140E+02  0.45140385560E+02  0.97317809097E+02  0.10868380006E+03  0.00000000000E+00 0.  1.
          5    1    4    4  501    0 -0.80229333594E+02 -0.64066046821E+02 -0.21793519447E+03  0.24094486031E+03  0.41800000000E+01 0. -1.
         -5    1    4    4    0  501  0.12023892404E+02  0.36062909704E+02 -0.42033225954E+02  0.56827563110E+02  0.41800000000E+01 0. -1.
</event>
<event>
11    1  0.6455215E-009  0.1825381E+03  0.7561462E-02  0.1067608E+00
         22   -1    0    0    0    0  0.00000000000E+00  0.00000000000E+00  0.19886124922E+04  0.19886124922E+04  0.00000000000E+00 0. -1.
         22   -1    0    0    0    0 -0.00000000000E+00 -0.00000000000E+00 -0.17946248109E+03  0.17946248109E+03  0.00000000000E+00 0. -1.
         24    2    1    2    0    0 -0.13917620169E+02  0.30843934948E+02 -0.14156310627E+03  0.16655634165E+03  0.80968224715E+02 0.  0.
         25    2    1    2    0    0  0.12034775726E+03 -0.10293709227E+03  0.45078014192E+03  0.49389210301E+03  0.12508815062E+03 0.  0.
        -24    2    1    2    0    0 -0.10643013710E+03  0.72093157321E+02  0.14999329754E+04  0.15076265286E+04  0.81326634653E+02 0.  0.
        -11    1    3    3    0    0  0.20789273128E+02  0.13342687232E+02 -0.58491006459E+01  0.25385688057E+02  0.00000000000E+00 0.  1.
         12    1    3    3    0    0 -0.34706893297E+02  0.17501247716E+02 -0.13571400563E+03  0.14117065360E+03  0.00000000000E+00 0. -1.
         11    1    5    5    0    0 -0.83957932798E+02  0.93513222220E+01  0.92268932619E+03  0.92654841988E+03  0.00000000000E+00 0. -1.
        -12    1    5    5    0    0 -0.22472204297E+02  0.62741835099E+02  0.57724364923E+03  0.58107810870E+03  0.00000000000E+00 0.  1.
          5    1    4    4  501    0 -0.19406169854E+02 -0.38777108300E+02  0.14792854077E+03  0.15420956239E+03  0.41800000000E+01 0. -1.
         -5    1    4    4    0  501  0.13975392712E+03 -0.64159983969E+02  0.30285160115E+03  0.33968254062E+03  0.41800000000E+01 0. -1.
</event>
<event>
11    1  0.6455215E-009  0.1397637E+03  0.7561462E-02  0.1107823E+00
         22   -1    0    0    0    0  0.00000000000E+00  0.00000000000E+00  0.45916806019E+03  0.45916806019E+03  0.00000000000E+00 0.  1.
         22   -1    0    0    0    0 -0.00000000000E+00 -0.00000000000E+00 -0.36607034981E+03  0.36607034981E+03  0.00000000000E+00 0.  1.
         24    2    1    2    0    0  0.26484523411E+02  0.47474093932E+02 -0.11104983766E+03  0.14648058073E+03  0.78544729375E+02 0.  0.
         25    2    1    2    0    0 -0.67709926807E+02 -0.39234586726E+02 -0.20890848425E+03  0.25576222831E+03  0.12509027002E+03 0.  0.
        -24    2    1    2    0    0  0.41225403395E+02 -0.82395072068E+01  0.41305603229E+03  0.42299560096E+03  0.80886149922E+02 0.  0.
        -13    1    3    3    0    0  0.52644882687E+02  0.18005393064E+02 -0.57700914951E+02  0.80156555806E+02  0.00000000000E+00 0.  1.
         14    1    3    3    0    0 -0.26160359276E+02  0.29468700868E+02 -0.53348922710E+02  0.66324024927E+02  0.00000000000E+00 0. -1.
         11    1    5    5    0    0 -0.67666395009E+01  0.26619930125E+02  0.19849865058E+03  0.20038992583E+03  0.00000000000E+00 0. -1.
        -12    1    5    5    0    0  0.47992042896E+02 -0.34859437332E+02  0.21455738171E+03  0.22260567513E+03  0.00000000000E+00 0.  1.
          5    1    4    4  501    0 -0.91514012499E+02  0.99763931065E+01 -0.11985867535E+03  0.15118835061E+03  0.41800000000E+01 0.  1.
         -5    1    4    4    0  501  0.23804085692E+02 -0.49210979832E+02 -0.89049808896E+02  0.10457387769E+03  0.41800000000E+01 0.  1.
</event>
<event>
11    1  0.6455215E-009  0.1555837E+03  0.7561462E-02  0.1091306E+00
         22   -1    0    0    0    0  0.00000000000E+00  0.00000000000E+00  0.16396919029E+03  0.16396919029E+03  0.00000000000E+00 0. -1.
         22   -1    0    0    0    0 -0.00000000000E+00 -0.00000000000E+00 -0.26808710054E+04  0.26808710054E+04  0.00000000000E+00 0.  1.
         24    2    1    2    0    0  0.37262352711E+02 -0.25326118650E+02 -0.17558506708E+04  0.17590686232E+04  0.96337674732E+02 0.  0.
         25    2    1    2    0    0  0.33291092981E+02 -0.36305741384E+02 -0.89423082329E+03  0.90428037166E+03  0.12509125276E+03 0.  0.
        -24    2    1    2    0    0 -0.70553445692E+02  0.61631860033E+02  0.13317967899E+03  0.18149120088E+03  0.80162049821E+02 0.  0.
        -11    1    3    3    0    0 -0.22338499666E+02  0.16717559721E+02 -0.77863706793E+03  0.77913681014E+03  0.00000000000E+00 0.  1.
         12    1    3    3    0    0  0.59600852377E+02 -0.42043678370E+02 -0.97721360291E+03  0.97993181304E+03  0.00000000000E+00 0. -1.
         13    1    5    5    0    0 -0.53059277530E+02  0.66300631487E+02  0.13863981621E+03  0.16257939385E+03  0.00000000000E+00 0. -1.
        -14    1    5    5    0    0 -0.17494168163E+02 -0.46687714537E+01 -0.54601372197E+01  0.18911807028E+02  0.00000000000E+00 0.  1.
          5    1    4    4  501    0 -0.44483067696E-02  0.18848880910E+02 -0.20473060030E+02  0.28140698611E+02  0.41800000000E+01 0.  1.
         -5    1    4    4    0  501  0.33295541288E+02 -0.55154622294E+02 -0.87375776326E+03  0.87613967305E+03  0.41800000000E+01 0.  1.
</event>
<event>
11    1  0.6455215E-009  0.1390843E+03  0.7561462E-02  0.1108585E+00
         22   -1    0    0    0    0  0.00000000000E+00  0.00000000000E+00  0.74602812401E+03  0.74602812401E+03  0.00000000000E+00 0. -1.
         22   -1    0    0    0    0 -0.00000000000E+00 -0.00000000000E+00 -0.13056115419E+03  0.13056115419E+03  0.00000000000E+00 0.  1.
         24    2    1    2    0    0  0.21279260669E+02  0.97058932423E+01 -0.23552631579E+02  0.86877821133E+02  0.80287097670E+02 0.  0.
         25    2    1    2    0    0 -0.73761413492E+02  0.19660411810E+02  0.32422064411E+01  0.14657039474E+03  0.12508033738E+03 0.  0.
        -24    2    1    2    0    0  0.52482152823E+02 -0.29366305052E+02  0.63577739496E+03  0.64314106231E+03  0.76162811504E+02 0.  0.
        -13    1    3    3    0    0  0.16815612443E+02  0.44434193627E+02 -0.20458830000E+02  0.51727421259E+02  0.00000000000E+00 0.  1.
         14    1    3    3    0    0  0.44636482260E+01 -0.34728300385E+02 -0.30938015789E+01  0.35150399874E+02  0.00000000000E+00 0. -1.
         13    1    5    5    0    0  0.19227785931E+02 -0.33645201933E+01  0.51183820224E+03  0.51221028203E+03  0.00000000000E+00 0. -1.
        -14    1    5    5    0    0  0.33254366891E+02 -0.26001784858E+02  0.12393919272E+03  0.13093078028E+03  0.00000000000E+00 0.  1.
          5    1    4    4  501    0 -0.14522202522E+02  0.67973465696E+02 -0.34751462367E+01  0.69719691954E+02  0.41800000000E+01 0. -1.
         -5    1    4    4    0  501 -0.59239210971E+02 -0.48313053887E+02  0.67173526778E+01  0.76850702790E+02  0.41800000000E+01 0. -1.
</event>
<event>
11    1  0.6455215E-009  0.1364382E+03  0.7561462E-02  0.1111602E+00
         22   -1    0    0    0    0  0.00000000000E+00  0.00000000000E+00  0.22467038326E+04  0.22467038326E+04  0.00000000000E+00 0.  1.
         22   -1    0    0    0    0 -0.00000000000E+00 -0.00000000000E+00 -0.17462079942E+03  0.17462079942E+03  0.00000000000E+00 0.  1.
         24    2    1    2    0    0  0.25964728465E+02 -0.20013706690E+02 -0.15736903843E+03  0.17884467246E+03  0.78394432379E+02 0.  0.
         25    2    1    2    0    0 -0.49227741763E+02  0.58611532317E+02  0.11793385522E+04  0.11884237168E+04  0.12511126120E+03 0.  0.
        -24    2    1    2    0    0  0.23263013299E+02 -0.38597825627E+02  0.10501135195E+04  0.10540562429E+04  0.79153012074E+02 0.  0.
        -13    1    3    3    0    0  0.16566659768E+02 -0.40596428356E+02 -0.14799380410E+03  0.15435248706E+03  0.00000000000E+00 0.  1.
         14    1    3    3    0    0  0.93980686965E+01  0.20582721666E+02 -0.93752343364E+01  0.24492185392E+02  0.00000000000E+00 0. -1.
         11    1    5    5    0    0  0.10925957220E+02 -0.15626312633E+02  0.48645829238E+02  0.52249161620E+02  0.00000000000E+00 0. -1.
        -12    1    5    5    0    0  0.12337056079E+02 -0.22971512994E+02  0.10014676903E+04  0.10018070812E+04  0.00000000000E+00 0.  1.
          5    1    4    4  501    0  0.39783622394E+02  0.37974218237E+02  0.42971497135E+03  0.43324035692E+03  0.41800000000E+01 0. -1.
         -5    1    4    4    0  501 -0.89011364157E+02  0.20637314080E+02  0.74962358080E+03  0.75518335983E+03  0.41800000000E+01 0. -1.
</event>
<event>
11    1  0.6455215E-009  0.1354762E+03  0.7561462E-02  0.1112718E+00
         22   -1    0    0    0    0  0.00000000000E+00  0.00000000000E+00  0.47661202273E+02  0.47661202273E+02  0.00000000000E+00 0. -1.
         22   -1    0    0    0    0 -0.00000000000E+00 -0.00000000000E+00 -0.13780558725E+04  0.13780558725E+04  0.00000000000E+00 0.  1.
         24    2    1    2    0    0  0.46913848282E+02  0.26100549418E+02 -0.10459198116E+04  0.10504703679E+04  0.81594079346E+02 0.  0.
         25    2    1    2    0    0 -0.51113395513E+02  0.14913720192E+02 -0.24021736392E+03  0.27601887140E+03  0.12508811769E+03 0.  0.
        -24    2    1    2    0    0  0.41995472314E+01 -0.41014269609E+02 -0.44257494721E+02  0.99227835449E+02  0.78661496174E+02 0.  0.
        -11    1    3    3    0    0  0.52416021665E+02  0.20225308388E+02 -0.10367403896E+04  0.10382615942E+04  0.00000000000E+00 0.  1.
         12    1    3    3    0    0 -0.55021733832E+01  0.58752410291E+01 -0.91794219133E+01  0.12208773720E+02  0.00000000000E+00 0. -1.
         11    1    5    5    0    0 -0.35646815110E+02 -0.18055128128E+02 -0.82032683019E+01  0.40791870392E+02  0.00000000000E+00 0. -1.
        -12    1    5    5    0    0  0.39846362342E+02 -0.22959141482E+02 -0.36054226419E+02  0.58435965057E+02  0.00000000000E+00 0.  1.
          5    1    4    4  501    0 -0.78065113871E+02  0.47972343419E+02 -0.14461389110E+03  0.17124881791E+03  0.41800000000E+01 0.  1.
         -5    1    4    4    0  501  0.26951718357E+02 -0.33058623227E+02 -0.95603472819E+02  0.10477005348E+03  0.41800000000E+01 0.  1.
</event>
<event>
11    1  0.6455215E-009  0.1391563E+03  0.7561462E-02  0.1108504E+00
         22   -1    0    0    0    0  0.00000000000E+00  0.00000000000E+00  0.95967266343E+03  0.95967266343E+03  0.00000000000E+00 0.  1.
         22   -1    0    0    0    0 -0.00000000000E+00 -0.00000000000E+00 -0.67756265990E+03  0.67756265990E+03  0.00000000000E+00 0. -1.
         24    2    1    2    0    0 -0.60290701215E+01 -0.58788029195E+02 -0.41135092589E+03  0.42333274546E+03  0.80676186623E+02 0.  0.
         25    2    1    2    0    0 -0.49520529362E+02  0.67674919858E+02 -0.23576299770E+03  0.27975557024E+03  0.12508721115E+03 0.  0.
        -24    2    1    2    0    0  0.55549599483E+02 -0.88868906624E+01  0.92922392712E+03  0.93414700763E+03  0.77516387294E+02 0.  0.
        -13    1    3    3    0    0  0.13813516847E+02  0.12390825454E+02 -0.33237867821E+02  0.38067067925E+02  0.00000000000E+00 0.  1.
         14    1    3    3    0    0 -0.19842586969E+02 -0.71178854650E+02 -0.37811305807E+03  0.38526567754E+03  0.00000000000E+00 0. -1.
         13    1    5    5    0    0  0.27761098530E+02  0.52509756243E+01  0.89700561402E+02  0.94044893814E+02  0.00000000000E+00 0. -1.
        -14    1    5    5    0    0  0.27788500953E+02 -0.14137866287E+02  0.83952336572E+03  0.84010211381E+03  0.00000000000E+00 0.  1.
          5    1    4    4  501    0  0.17726663417E+02  0.21287940625E+01 -0.15424864408E+03  0.15533474486E+03  0.41800000000E+01 0. -1.
         -5    1    4    4    0  501 -0.67247192779E+02  0.65546125795E+02 -0.81514353615E+02  0.12442082538E+03  0.41800000000E+01 0. -1.
</event>
<event>
11    1  0.6455215E-009  0.2107408E+03  0.7561462E-02  0.1047178E+00
         22   -1    0    0    0    0  0.00000000000E+00  0.00000000000E+00  0.18576160879E+03  0.18576160879E+03  0.00000000000E+00 0. -1.
         22   -1    0    0    0    0 -0.00000000000E+00 -0.00000000000E+00 -0.14752100742E+04  0.14752100742E+04  0.00000000000E+00 0. -1.
        -24    2    1    2    0    0 -0.39392098092E+02  0.16880898878E+03 -0.11658080526E+04  0.11813634325E+04  0.80392364340E+02 0.  0.
         25    2    1    2    0    0  0.20245765198E+02 -0.15256021934E+03 -0.25668484409E+03  0.32437633075E+03  0.12509349797E+03 0.  0.
         24    2    1    2    0    0  0.19146332894E+02 -0.16248769438E+02  0.13304443127E+03  0.15523191967E+03  0.75931045160E+02 0.  0.
        -13    1    5    5    0    0 -0.17456608017E+02 -0.33500570664E+02  0.48263663381E+02  0.61289498295E+02  0.00000000000E+00 0.  1.
         14    1    5    5    0    0  0.36602940911E+02  0.17251801226E+02  0.84780767890E+02  0.93942421371E+02  0.00000000000E+00 0. -1.
         13    1    3    3    0    0 -0.10667060422E+02  0.15107026923E+03 -0.10453581208E+04  0.10562715622E+04  0.00000000000E+00 0. -1.
        -14    1    3    3    0    0 -0.28725037670E+02  0.17738719551E+02 -0.12044993179E+03  0.12509187035E+03  0.00000000000E+00 0.  1.
          5    1    4    4  501    0 -0.41534154296E+02 -0.11141569413E+03 -0.12123202220E+03  0.16986235156E+03  0.41800000000E+01 0.  1.
         -5    1    4    4    0  501  0.61779919494E+02 -0.41144525211E+02 -0.13545282189E+03  0.15451397919E+03  0.41800000000E+01 0.  1.
</event>
<event>
11    1  0.6455215E-009  0.1404288E+03  0.7561462E-02  0.1107081E+00
         22   -1    0    0    0    0  0.00000000000E+00  0.00000000000E+00  0.13140578967E+04  0.13140578967E+04  0.00000000000E+00 0. -1.
         22   -1    0    0    0    0 -0.00000000000E+00 -0.00000000000E+00 -0.14537973847E+04  0.14537973847E+04  0.00000000000E+00 0.  1.
         24    2    1    2    0    0 -0.15467341897E+02 -0.60196661993E+01 -0.12521627649E+04  0.12548999883E+04  0.81159817743E+02 0.  0.
         25    2    1    2    0    0  0.71772167047E+02 -0.23803679304E+02 -0.17128557219E+03  0.22517346647E+03  0.12508590508E+03 0.  0.
        -24    2    1    2    0    0 -0.56304825149E+02  0.29823345504E+02  0.12837088491E+04  0.12877818266E+04  0.80087192354E+02 0.  0.
        -13    1    3    3    0    0 -0.48647376711E+02 -0.32212614970E+01 -0.65697209579E+03  0.65877862627E+03  0.00000000000E+00 0.  1.
         14    1    3    3    0    0  0.33180034814E+02 -0.27984047024E+01 -0.59519066906E+03  0.59612136207E+03  0.00000000000E+00 0. -1.
         11    1    5    5    0    0 -0.69709707787E+02  0.30307884257E+01  0.10182279111E+04  0.10206158474E+04  0.00000000000E+00 0. -1.
        -12    1    5    5    0    0  0.13404882638E+02  0.26792557078E+02  0.26548093793E+03  0.26716597912E+03  0.00000000000E+00 0.  1.
          5    1    4    4  501    0  0.50333186494E+02 -0.35782319944E+02 -0.18614523591E+03  0.19616657548E+03  0.41800000000E+01 0.  1.
         -5    1    4    4    0  501  0.21438980553E+02  0.11978640640E+02  0.14859663723E+02  0.29006890986E+02  0.41800000000E+01 0.  1.
</event>
<event>
11    1  0.6455215E-009  0.1414461E+03  0.7561462E-02  0.1105954E+00
         22   -1    0    0    0    0  0.00000000000E+00  0.00000000000E+00  0.13353629714E+04  0.13353629714E+04  0.00000000000E+00 0. -1.
         22   -1    0    0    0    0 -0.00000000000E+00 -0.00000000000E+00 -0.72028214926E+03  0.72028214926E+03  0.00000000000E+00 0.  1.
         24    2    1    2    0    0 -0.60664925019E+02 -0.27922146932E+02 -0.64795481557E+03  0.65610626477E+03  0.78550036480E+02 0.  0.
         25    2    1    2    0    0  0.31966546305E+02  0.54824219503E+02  0.72670258316E+01  0.14045201298E+03  0.12508558334E+03 0.  0.
        -24    2    1    2    0    0  0.28698378714E+02 -0.26902072570E+02  0.12557686119E+04  0.12590868429E+04  0.82447273828E+02 0.  0.
        -11    1    3    3    0    0 -0.59401117899E+02 -0.48809579728E+02 -0.57793838497E+03  0.58302971168E+03  0.00000000000E+00 0.  1.
         12    1    3    3    0    0 -0.12638071197E+01  0.20887432795E+02 -0.70016430605E+02  0.73076553092E+02  0.00000000000E+00 0. -1.
         13    1    5    5    0    0  0.37666892562E+02 -0.34443237201E+01  0.11399218203E+04  0.11405491724E+04  0.00000000000E+00 0. -1.
        -14    1    5    5    0    0 -0.89685138480E+01 -0.23457748850E+02  0.11584679154E+03  0.11853767052E+03  0.00000000000E+00 0.  1.
          5    1    4    4  501    0 -0.40135907691E+02  0.79672792470E+00  0.26428406904E+02  0.48243745222E+02  0.41800000000E+01 0. -1.
         -5    1    4    4    0  501  0.72102453996E+02  0.54027491578E+02 -0.19161381073E+02  0.92208267759E+02  0.41800000000E+01 0. -1.
</event>
<event>
11    1  0.6455215E-009  0.2089453E+03  0.7561462E-02  0.1048372E+00
         22   -1    0    0    0    0  0.00000000000E+00  0.00000000000E+00  0.62881694363E+03  0.62881694363E+03  0.00000000000E+00 0.  1.
         22   -1    0    0    0    0 -0.00000000000E+00 -0.00000000000E+00 -0.16332824882E+03  0.16332824882E+03  0.00000000000E+00 0.  1.
         24    2    1    2    0    0  0.85398181180E+02 -0.16398260098E+02 -0.43197359829E+02  0.12623262007E+03  0.80665421287E+02 0.  0.
         25    2    1    2    0    0 -0.19610176780E+03 -0.81923515152E+02  0.23817868508E+03  0.34284783932E+03  0.12509272254E+03 0.  0.
        -24    2    1    2    0    0  0.11070358662E+03  0.98321775250E+02  0.27050736956E+03  0.32306473306E+03  0.96302280273E+02 0.  0.
        -11    1    3    3    0    0  0.96672906284E+02 -0.31657528271E+01 -0.48301561452E+02  0.10811435445E+03  0.00000000000E+00 0.  1.
         12    1    3    3    0    0 -0.11274725104E+02 -0.13232507271E+02  0.51042016227E+01  0.18118265619E+02  0.00000000000E+00 0. -1.
         11    1    5    5    0    0  0.56359047903E+02  0.64064234359E+02  0.63621070460E+02  0.10643405945E+03  0.00000000000E+00 0. -1.
        -12    1    5    5    0    0  0.54344538717E+02  0.34257540891E+02  0.20688629910E+03  0.21663067361E+03  0.00000000000E+00 0.  1.
          5    1    4    4  501    0 -0.10728798074E+02  0.28211069913E+02  0.22805322616E+02  0.38059515412E+02  0.41800000000E+01 0. -1.
         -5    1    4    4    0  501 -0.18537296973E+03 -0.11013458507E+03  0.21537336247E+03  0.30478832391E+03  0.41800000000E+01 0. -1.
</event>
<event>
11    1  0.6455215E-009  0.1428518E+03  0.7561462E-02  0.1104415E+00
         22   -1    0    0    0    0  0.00000000000E+00  0.00000000000E+00  0.71395771311E+03  0.71395771311E+03  0.00000000000E+00 0.  1.
         22   -1    0    0    0    0 -0.00000000000E+00 -0.00000000000E+00 -0.67515521193E+03  0.67515521193E+03  0.00000000000E+00 0. -1.
        -24    2    1    2    0    0 -0.50105842316E+02 -0.44835914939E+02 -0.52428369521E+03  0.53459289087E+03  0.79970689627E+02 0.  0.
         25    2    1    2    0    0  0.91838630315E+02  0.19957878406E+02 -0.99243199553E+02  0.18528859618E+03  0.12509996118E+03 0.  0.
         24    2    1    2    0    0 -0.41732787999E+02  0.24878036533E+02  0.66232939594E+03  0.66923143800E+03  0.82643490844E+02 0.  0.
        -13    1    5    5    0    0 -0.38778393752E+01  0.48786235253E+02  0.41570684664E+03  0.41857773081E+03  0.00000000000E+00 0.  1.
         14    1    5    5    0    0 -0.37854948624E+02 -0.23908198720E+02  0.24662254930E+03  0.25065370718E+03  0.00000000000E+00 0. -1.
         13    1    3    3    0    0 -0.55869196613E+01 -0.48712225887E+02 -0.38997003923E+03  0.39304036194E+03  0.00000000000E+00 0. -1.
        -14    1    3    3    0    0 -0.44518922655E+02  0.38763109487E+01 -0.13431365598E+03  0.14155252892E+03  0.00000000000E+00 0.  1.
          5    1    4    4  501    0  0.32044578639E+02  0.70301278584E+02 -0.39867708502E+02  0.87040400803E+02  0.41800000000E+01 0.  1.
         -5    1    4    4    0  501  0.59794051676E+02 -0.50343400178E+02 -0.59375491050E+02  0.98248195377E+02  0.41800000000E+01 0.  1.
</event>
<event>
11    1  0.6455215E-009  0.1475465E+03  0.7561462E-02  0.1099412E+00
         22   -1    0    0    0    0  0.00000000000E+00  0.00000000000E+00  0.19550919474E+03  0.19550919474E+03  0.00000000000E+00 0. -1.
         22   -1    0    0    0    0 -0.00000000000E+00 -0.00000000000E+00 -0.11235420550E+04  0.11235420550E+04  0.00000000000E+00 0. -1.
         24    2    1    2    0    0 -0.10064813270E+02  0.48908347773E+02 -0.66464543782E+03  0.67103649528E+03  0.77737333649E+02 0.  0.
         25    2    1    2    0    0 -0.37255125612E+02 -0.10963792766E+03 -0.42162496344E+03  0.45477855754E+03  0.12508999575E+03 0.  0.
        -24    2    1    2    0    0  0.47319938882E+02  0.60729579886E+02  0.15823754105E+03  0.19323619686E+03  0.79836394538E+02 0.  0.
        -13    1    3    3    0    0  0.23327864716E+02 -0.20307324637E+01 -0.33456675735E+03  0.33538519387E+03  0.00000000000E+00 0.  1.
         14    1    3    3    0    0 -0.33392677987E+02  0.50939080237E+02 -0.33007868047E+03  0.33565130141E+03  0.00000000000E+00 0. -1.
         13    1    5    5    0    0  0.32273252176E+02  0.46507578497E+02  0.16251735036E+03  0.17209418012E+03  0.00000000000E+00 0. -1.
        -14    1    5    5    0    0  0.15046686707E+02  0.14222001388E+02 -0.42798093097E+01  0.21142016745E+02  0.00000000000E+00 0.  1.
          5    1    4    4  501    0 -0.18390256527E+02 -0.13528275234E+03 -0.31296256979E+03  0.34147132691E+03  0.41800000000E+01 0. -1.
         -5    1    4    4    0  501 -0.18864869085E+02  0.25644824679E+02 -0.10866239366E+03  0.11330723063E+03  0.41800000000E+01 0. -1.
</event>
<event>
11    1  0.6455215E-009  0.1672915E+03  0.7561462E-02  0.1080413E+00
         22   -1    0    0    0    0  0.00000000000E+00  0.00000000000E+00  0.59204809001E+02  0.59204809001E+02  0.00000000000E+00 0.  1.
         22   -1    0    0    0    0 -0.00000000000E+00 -0.00000000000E+00 -0.35545862932E+04  0.35545862932E+04  0.00000000000E+00 0. -1.
        -24    2    1    2    0    0  0.74052739492E+02  0.79542632178E+02 -0.31075069383E+04  0.31105788416E+04  0.85384540185E+02 0.  0.
         25    2    1    2    0    0 -0.82135815954E+02 -0.13303509503E+03 -0.34204733355E+03  0.39634384629E+03  0.12508971712E+03 0.  0.
         24    2    1    2    0    0  0.80830764625E+01  0.53492462852E+02 -0.45827212325E+02  0.10686841428E+03  0.79962146514E+02 0.  0.
        -11    1    5    5    0    0  0.12018399816E+02 -0.11829431787E+02  0.11053168620E+02  0.20163083274E+02  0.00000000000E+00 0.  1.
         12    1    5    5    0    0 -0.39353233540E+01  0.65321894640E+02 -0.56880380945E+02  0.86705331011E+02  0.00000000000E+00 0. -1.
         13    1    3    3    0    0  0.79180566895E+02  0.89023751499E+02 -0.30281861655E+04  0.30305290369E+04  0.00000000000E+00 0. -1.
        -14    1    3    3    0    0 -0.51278274033E+01 -0.94811193211E+01 -0.79320772757E+02  0.80049804673E+02  0.00000000000E+00 0.  1.
          5    1    4    4  501    0 -0.91284570895E+02 -0.11616857572E+03 -0.17907439193E+03  0.23219199193E+03  0.41800000000E+01 0. -1.
         -5    1    4    4    0  501  0.91487549404E+01 -0.16866519310E+02 -0.16297294162E+03  0.16415185436E+03  0.41800000000E+01 0. -1.
</event>
<event>
11    1  0.7541041E-009  0.1397358E+03  0.7561462E-02  0.1107854E+00
         22   -1    0    0    0    0  0.00000000000E+00  0.00000000000E+00  0.92461799662E+03  0.92461799662E+03  0.00000000000E+00 0. -1.
         22   -1    0    0    0    0 -0.00000000000E+00 -0.00000000000E+00 -0.54690556639E+03  0.54690556639E+03  0.00000000000E+00 0.  1.
         24    2    1    2    0    0 -0.15402810101E+02 -0.49719118816E+02 -0.34249258799E+03  0.35691389790E+03  0.85890164440E+02 0.  0.
         25    2    1    2    0    0 -0.37823978636E+02  0.81693540872E+02 -0.16377548689E+03  0.22488782904E+03  0.12509051748E+03 0.  0.
        -24    2    1    2    0    0  0.53226788737E+02 -0.31974422056E+02  0.88398050511E+03  0.88972183608E+03  0.79548459894E+02 0.  0.
        -13    1    3    3    0    0  0.38585051419E+01 -0.26577898504E+02 -0.31499715679E+03  0.31613997143E+03  0.00000000000E+00 0.  1.
         14    1    3    3    0    0 -0.19261315243E+02 -0.23141220312E+02 -0.27495431203E+02  0.40773926466E+02  0.00000000000E+00 0. -1.
         13    1    5    5    0    0  0.29573509365E+02 -0.15224578193E+02  0.80338549619E+03  0.80407377505E+03  0.00000000000E+00 0. -1.
        -14    1    5    5    0    0  0.23653279372E+02 -0.16749843863E+02  0.80595008921E+02  0.85648061025E+02  0.00000000000E+00 0.  1.
          5    1    4    4  501    0 -0.12980829844E+02  0.63112063504E+02 -0.17884642333E+03  0.19014507630E+03  0.41800000000E+01 0. -1.
         -5    1    4    4    0  501 -0.24843148791E+02  0.18581477368E+02  0.15070936437E+02  0.34742752742E+02  0.41800000000E+01 0. -1.
</event>
<event>
11    1  0.1207230E-008  0.1640476E+03  0.7561462E-02  0.1083331E+00
         22   -1    0    0    0    0  0.00000000000E+00  0.00000000000E+00  0.15434915691E+04  0.15434915691E+04  0.00000000000E+00 0. -1.
         22   -1    0    0    0    0 -0.00000000000E+00 -0.00000000000E+00 -0.38483462618E+03  0.38483462618E+03  0.00000000000E+00 0.  1.
         24    2    1    2    0    0 -0.94859028541E+02 -0.83040246327E+02 -0.28884346414E+03  0.32497507434E+03  0.79273793664E+02 0.  0.
         25    2    1    2    0    0  0.38147003905E+02  0.20287089306E+02 -0.17594998631E+02  0.13350506564E+03  0.12508900301E+03 0.  0.
        -24    2    1    2    0    0  0.56712024636E+02  0.62753157021E+02  0.14650954057E+04  0.14698460553E+04  0.82393361600E+02 0.  0.
        -13    1    3    3    0    0 -0.54864409581E+02  0.19236543300E+01 -0.10035496973E+03  0.11438935193E+03  0.00000000000E+00 0.  1.
         14    1    3    3    0    0 -0.39994618960E+02 -0.84963900657E+02 -0.18848849441E+03  0.21058572242E+03  0.00000000000E+00 0. -1.
         11    1    5    5    0    0  0.15995054364E+02  0.73675017320E+02  0.87091656757E+03  0.87417361983E+03  0.00000000000E+00 0. -1.
        -12    1    5    5    0    0  0.40716970272E+02 -0.10921860300E+02  0.59417883814E+03  0.59567243549E+03  0.00000000000E+00 0.  1.
          5    1    4    4  501    0  0.82432141715E+02  0.15335275099E+02 -0.26168440815E+02  0.87934568542E+02  0.41800000000E+01 0.  1.
         -5    1    4    4    0  501 -0.44285137810E+02  0.49518142078E+01  0.85734421835E+01  0.45570497097E+02  0.41800000000E+01 0.  1.
</event>
<event>
11    1  0.6455215E-009  0.1421796E+03  0.7561462E-02  0.1105149E+00
         22   -1    0    0    0    0  0.00000000000E+00  0.00000000000E+00  0.52621829064E+03  0.52621829064E+03  0.00000000000E+00 0.  1.
         22   -1    0    0    0    0 -0.00000000000E+00 -0.00000000000E+00 -0.20154361082E+04  0.20154361082E+04  0.00000000000E+00 0.  1.
         24    2    1    2    0    0  0.62388293851E+01 -0.69252294561E+01 -0.17104550939E+04  0.17125213913E+04  0.83582329814E+02 0.  0.
         25    2    1    2    0    0 -0.25292139650E+02  0.71613424758E+02 -0.28063233421E+03  0.31649648964E+03  0.12508935214E+03 0.  0.
        -24    2    1    2    0    0  0.19053310265E+02 -0.64688195302E+02  0.50186961056E+03  0.51263651781E+03  0.79846741628E+02 0.  0.
        -13    1    3    3    0    0  0.21748539250E+02  0.24424154793E+02 -0.13447315159E+04  0.13451291344E+04  0.00000000000E+00 0.  1.
         14    1    3    3    0    0 -0.15509709865E+02 -0.31349384249E+02 -0.36572357795E+03  0.36739225694E+03  0.00000000000E+00 0. -1.
         11    1    5    5    0    0  0.33178395845E+02 -0.14913124247E+02  0.83496923693E+02  0.91076580369E+02  0.00000000000E+00 0. -1.
        -12    1    5    5    0    0 -0.14125085579E+02 -0.49775071055E+02  0.41837268687E+03  0.42155993744E+03  0.00000000000E+00 0.  1.
          5    1    4    4  501    0 -0.65433009647E+02  0.22437624435E+02 -0.79104248771E+02  0.10516596558E+03  0.41800000000E+01 0.  1.
         -5    1    4    4    0  501  0.40140869997E+02  0.49175800322E+02 -0.20152808544E+03  0.21133052407E+03  0.41800000000E+01 0.  1.
</event>
<event>
11    1  0.6455215E-009  0.1654851E+03  0.7561462E-02  0.1082029E+00
         22   -1    0    0    0    0  0.00000000000E+00  0.00000000000E+00  0.21728859423E+04  0.21728859423E+04  0.00000000000E+00 0.  1.
         22   -1    0    0    0    0 -0.00000000000E+00 -0.00000000000E+00 -0.27541144283E+03  0.27541144283E+03  0.00000000000E+00 0. -1.
        -24    2    1    2    0    0  0.26557701305E+02  0.97126286711E+02 -0.24302013727E+03  0.27535337947E+03  0.81374869593E+02 0.  0.
         25    2    1    2    0    0  0.55982609288E+02 -0.15197507875E+03  0.81920824303E+03  0.84438205078E+03  0.12509366543E+03 0.  0.
         24    2    1    2    0    0 -0.82540310592E+02  0.54848792041E+02  0.13212863937E+04  0.13285619549E+04  0.97251431349E+02 0.  0.
        -13    1    5    5    0    0 -0.54760430264E+02  0.59073021077E+02  0.12388939125E+04  0.12415097475E+04  0.00000000000E+00 0.  1.
         14    1    5    5    0    0 -0.27779880328E+02 -0.42242290362E+01  0.82392481208E+02  0.87052207449E+02  0.00000000000E+00 0. -1.
         13    1    3    3    0    0  0.12993345696E+02  0.22444144936E+01 -0.11330269972E+03  0.11406737567E+03  0.00000000000E+00 0. -1.
        -14    1    3    3    0    0  0.13564355609E+02  0.94881872218E+02 -0.12971743755E+03  0.16128600380E+03  0.00000000000E+00 0.  1.
          5    1    4    4  501    0  0.25645430830E+02 -0.15068114726E+03  0.47939773686E+03  0.50319197010E+03  0.41800000000E+01 0.  1.
         -5    1    4    4    0  501  0.30337178458E+02 -0.12939314915E+01  0.33981050617E+03  0.34119008069E+03  0.41800000000E+01 0.  1.
</event>
<event>
11    1  0.6455215E-009  0.2094324E+03  0.7561462E-02  0.1048047E+00
         22   -1    0    0    0    0  0.00000000000E+00  0.00000000000E+00  0.44093695116E+03  0.44093695116E+03  0.00000000000E+00 0. -1.
         22   -1    0    0    0    0 -0.00000000000E+00 -0.00000000000E+00 -0.56372673659E+03  0.56372673659E+03  0.00000000000E+00 0.  1.
         24    2    1    2    0    0 -0.11374690202E+03  0.14344160320E+03 -0.45456953933E+03  0.49669700338E+03  0.80997505048E+02 0.  0.
         25    2    1    2    0    0  0.83406860256E+02 -0.68225022395E+02  0.85842212769E+01  0.16533734529E+03  0.12510551896E+03 0.  0.
        -24    2    1    2    0    0  0.30340041763E+02 -0.75216580802E+02  0.32319553262E+03  0.34262933909E+03  0.79758758355E+02 0.  0.
        -11    1    3    3    0    0 -0.91458873487E+02  0.93090265899E+02 -0.39297922188E+03  0.41408114178E+03  0.00000000000E+00 0.  1.
         12    1    3    3    0    0 -0.22288028531E+02  0.50351337298E+02 -0.61590317451E+02  0.82615861596E+02  0.00000000000E+00 0. -1.
         13    1    5    5    0    0  0.40019981269E+02 -0.75617188866E+02  0.32163130751E+03  0.33281564886E+03  0.00000000000E+00 0. -1.
        -14    1    5    5    0    0 -0.96799395065E+01  0.40060806412E+00  0.15642251075E+01  0.98136902263E+01  0.00000000000E+00 0.  1.
          5    1    4    4  501    0  0.50674245523E+02 -0.23129698512E+02 -0.56570884499E+02  0.79502197992E+02  0.41800000000E+01 0. -1.
         -5    1    4    4    0  501  0.32732614733E+02 -0.45095323883E+02  0.65155105776E+02  0.85835147300E+02  0.41800000000E+01 0. -1.
</event>
<event>
11    1  0.6455215E-009  0.1387965E+03  0.7561462E-02  0.1108910E+00
         22   -1    0    0    0    0  0.00000000000E+00  0.00000000000E+00  0.21374228111E+04  0.21374228111E+04  0.00000000000E+00 0.  1.
         22   -1    0    0    0    0 -0.00000000000E+00 -0.00000000000E+00 -0.10338507392E+04  0.10338507392E+04  0.00000000000E+00 0. -1.
        -24    2    1    2    0    0 -0.51953504749E+02 -0.28099749244E+02 -0.89230755646E+03  0.89888946239E+03  0.91108329621E+02 0.  0.
         25    2    1    2    0    0  0.43622650520E+02  0.71859163436E+02 -0.95863093278E+02  0.17861674454E+03  0.12509010261E+03 0.  0.
         24    2    1    2    0    0  0.83308542296E+01 -0.43759414192E+02  0.20917427216E+04  0.20937673434E+04  0.80559204177E+02 0.  0.
        -13    1    5    5    0    0 -0.28794088455E+02 -0.25386358389E+02  0.49454841177E+03  0.49603598489E+03  0.00000000000E+00 0.  1.
         14    1    5    5    0    0  0.37124942684E+02 -0.18373055804E+02  0.15971943098E+04  0.15977313585E+04  0.00000000000E+00 0. -1.
         13    1    3    3    0    0 -0.59290303525E+02 -0.32244970973E+02 -0.88546772811E+03  0.88803613427E+03  0.00000000000E+00 0. -1.
        -14    1    3    3    0    0  0.73367987758E+01  0.41452217297E+01 -0.68398283412E+01  0.10853328116E+02  0.00000000000E+00 0.  1.
          5    1    4    4  501    0  0.50805095363E+02  0.65218862542E+01 -0.10019959351E+03  0.11261049531E+03  0.41800000000E+01 0.  1.
         -5    1    4    4    0  501 -0.71824448434E+01  0.65337277182E+02  0.43365002302E+01  0.66006249232E+02  0.41800000000E+01 0.  1.
</event>
<event>
11    1  0.6455215E-009  0.1459544E+03  0.7561462E-02  0.1101086E+00
         22   -1    0    0    0    0  0.00000000000E+00  0.00000000000E+00  0.54436748861E+03  0.54436748861E+03  0.00000000000E+00 0.  1.
         22   -1    0    0    0    0 -0.00000000000E+00 -0.00000000000E+00 -0.18727815179E+03  0.18727815179E+03  0.00000000000E+00 0.  1.
        -24    2    1    2    0    0  0.82498490760E+02 -0.46832770411E+01 -0.93819580593E+02  0.14787214849E+03  0.78969136597E+02 0.  0.
         25    2    1    2    0    0 -0.53870283530E+02  0.11876529491E+02  0.12703744078E+02  0.13730058886E+03  0.12508799778E+03 0.  0.
         24    2    1    2    0    0 -0.28628207230E+02 -0.71932524504E+01  0.43820517333E+03  0.44647290305E+03  0.80268063967E+02 0.  0.
        -11    1    5    5    0    0  0.14388770044E+01  0.96883593160E+00  0.38360814317E+03  0.38361206513E+03  0.00000000000E+00 0.  1.
         12    1    5    5    0    0 -0.30067084234E+02 -0.81620883820E+01  0.54597030169E+02  0.62860837923E+02  0.00000000000E+00 0. -1.
         13    1    3    3    0    0  0.30949194014E+02 -0.34757530214E+02 -0.14777303226E+02  0.48829368287E+02  0.00000000000E+00 0. -1.
        -14    1    3    3    0    0  0.51549296745E+02  0.30074253173E+02 -0.79042277367E+02  0.99042780202E+02  0.00000000000E+00 0.  1.
          5    1    4    4  501    0 -0.77003653949E+01 -0.48359149557E+02 -0.21875293097E+02  0.53795016694E+02  0.41800000000E+01 0.  1.
         -5    1    4    4    0  501 -0.46169918135E+02  0.60235679048E+02  0.34579037175E+02  0.83505572167E+02  0.41800000000E+01 0.  1.
</event>
<event>
11    1  0.6455215E-009  0.2096593E+03  0.7561462E-02  0.1047896E+00
         22   -1    0    0    0    0  0.00000000000E+00  0.00000000000E+00  0.15260767850E+04  0.15260767850E+04  0.00000000000E+00 0.  1.
         22   -1    0    0    0    0 -0.00000000000E+00 -0.00000000000E+00 -0.15469215154E+03  0.15469215154E+03  0.00000000000E+00 0. -1.
         24    2    1    2    0    0 -0.13005876201E+03  0.10843588913E+03 -0.57340479187E+02  0.19273874051E+03  0.72018524806E+02 0.  0.
         25    2    1    2    0    0  0.94218107055E+02 -0.13842164391E+03  0.36793149299E+03  0.42315485902E+03  0.12509535553E+03 0.  0.
        -24    2    1    2    0    0  0.35840654950E+02  0.29985754778E+02  0.10607936196E+04  0.10648753370E+04  0.80577179460E+02 0.  0.
        -13    1    3    3    0    0  0.36404338099E+01 -0.58641091318E+01  0.18558110980E+01  0.71473469949E+01  0.00000000000E+00 0.  1.
         14    1    3    3    0    0 -0.13369919582E+03  0.11429999826E+03 -0.59196290285E+02  0.18559139352E+03  0.00000000000E+00 0. -1.
         13    1    5    5    0    0  0.32185900639E+02 -0.20026073410E+02  0.29235891970E+03  0.29480623084E+03  0.00000000000E+00 0. -1.
        -14    1    5    5    0    0  0.36547543114E+01  0.50011828188E+02  0.76843469994E+03  0.77006910616E+03  0.00000000000E+00 0.  1.
          5    1    4    4  501    0  0.98774233284E+02 -0.72860203663E+02  0.31683422953E+03  0.33980341352E+03  0.41800000000E+01 0.  1.
         -5    1    4    4    0  501 -0.45561262292E+01 -0.65561440244E+02  0.51097263462E+02  0.83351445496E+02  0.41800000000E+01 0.  1.
</event>
<event>
11    1  0.6455215E-009  0.1924034E+03  0.7561462E-02  0.1060029E+00
         22   -1    0    0    0    0  0.00000000000E+00  0.00000000000E+00  0.27252248827E+03  0.27252248827E+03  0.00000000000E+00 0. -1.
         22   -1    0    0    0    0 -0.00000000000E+00 -0.00000000000E+00 -0.49664815854E+03  0.49664815854E+03  0.00000000000E+00 0.  1.
         24    2    1    2    0    0  0.18658417792E+03 -0.11447637728E+03 -0.25783104256E+03  0.34817461854E+03  0.82645157641E+02 0.  0.
         25    2    1    2    0    0  0.93666642661E+01  0.10574634549E+03 -0.76294999999E+02  0.18093778321E+03  0.12509008907E+03 0.  0.
        -24    2    1    2    0    0 -0.19595084219E+03  0.87300317867E+01  0.11000037229E+03  0.24005824506E+03  0.83993649199E+02 0.  0.
        -11    1    3    3    0    0  0.17615275014E+03 -0.99208664464E+02 -0.26022556702E+03  0.32952920389E+03  0.00000000000E+00 0.  1.
         12    1    3    3    0    0  0.10431427780E+02 -0.15267712812E+02  0.23945244562E+01  0.18645414648E+02  0.00000000000E+00 0. -1.
         13    1    5    5    0    0 -0.10015259627E+03  0.37912335876E+02  0.85310364674E+02  0.13691510534E+03  0.00000000000E+00 0. -1.
        -14    1    5    5    0    0 -0.95798245923E+02 -0.29182304089E+02  0.24690007619E+02  0.10314313971E+03  0.00000000000E+00 0.  1.
          5    1    4    4  501    0 -0.55142956415E+02  0.25593450159E+02 -0.32198510662E+02  0.68920148158E+02  0.41800000000E+01 0. -1.
         -5    1    4    4    0  501  0.64509620681E+02  0.80152895330E+02 -0.44096489337E+02  0.11201763505E+03  0.41800000000E+01 0. -1.
</event>
<event>
11    1  0.6455215E-009  0.1985693E+03  0.7561462E-02  0.1055540E+00
         22   -1    0    0    0    0  0.00000000000E+00  0.00000000000E+00  0.26348599223E+03  0.26348599223E+03  0.00000000000E+00 0.  1.
         22   -1    0    0    0    0 -0.00000000000E+00 -0.00000000000E+00 -0.15004769405E+04  0.15004769405E+04  0.00000000000E+00 0.  1.
        -24    2    1    2    0    0 -0.10639071767E+02 -0.17968886524E+01 -0.12199483047E+04  0.12225839895E+04  0.79506771273E+02 0.  0.
         25    2    1    2    0    0  0.38197523430E+02  0.15307361162E+03 -0.20422695847E+03  0.28678697439E+03  0.12509011449E+03 0.  0.
         24    2    1    2    0    0 -0.27558451663E+02 -0.15127672297E+03  0.18718431486E+03  0.25459196883E+03  0.78326162242E+02 0.  0.
        -11    1    5    5    0    0 -0.22090216546E+02 -0.15147795258E+03  0.14111683279E+03  0.20820064428E+03  0.00000000000E+00 0.  1.
         12    1    5    5    0    0 -0.54682351171E+01  0.20122960477E+00  0.46067482073E+02  0.46391324546E+02  0.00000000000E+00 0. -1.
         11    1    3    3    0    0  0.17157744332E+01 -0.94384921555E+01 -0.16785164652E+02  0.19333152057E+02  0.00000000000E+00 0. -1.
        -12    1    3    3    0    0 -0.12354846200E+02  0.76416035032E+01 -0.12031631400E+04  0.12032508375E+04  0.00000000000E+00 0.  1.
          5    1    4    4  501    0  0.81307206422E+02  0.11931506196E+03 -0.16504865658E+03  0.21932960873E+03  0.41800000000E+01 0. -1.
         -5    1    4    4    0  501 -0.43109682993E+02  0.33758549670E+02 -0.39178301887E+02  0.67457365664E+02  0.41800000000E+01 0. -1.
</event>
<event>
11    1  0.6455215E-009  0.1679263E+03  0.7561462E-02  0.1079850E+00
         22   -1    0    0    0    0  0.00000000000E+00  0.00000000000E+00  0.14521379229E+03  0.14521379229E+03  0.00000000000E+00 0. -1.
         22   -1    0    0    0    0 -0.00000000000E+00 -0.00000000000E+00 -0.42801667800E+03  0.42801667800E+03  0.00000000000E+00 0.  1.
        -24    2    1    2    0    0 -0.41857944578E+02  0.49018068462E+02 -0.12927250124E+03  0.16389499857E+03  0.77429531941E+02 0.  0.
         25    2    1    2    0    0  0.97145688758E+02  0.52599430927E+02 -0.20010825654E+03  0.26056688665E+03  0.12509117916E+03 0.  0.
         24    2    1    2    0    0 -0.55287744180E+02 -0.10161749939E+03  0.46577872070E+02  0.14876858508E+03  0.81115614406E+02 0.  0.
        -11    1    5    5    0    0 -0.11066709507E+01  0.25519778243E+01 -0.15640001059E+02  0.15885431833E+02  0.00000000000E+00 0.  1.
         12    1    5    5    0    0 -0.54181073229E+02 -0.10416947721E+03  0.62217873129E+02  0.13288315324E+03  0.00000000000E+00 0. -1.
         13    1    3    3    0    0  0.22023423651E+02  0.35430707235E+01 -0.30231997476E+02  0.37570709480E+02  0.00000000000E+00 0. -1.
        -14    1    3    3    0    0 -0.63881368229E+02  0.45474997739E+02 -0.99040503769E+02  0.12632428909E+03  0.00000000000E+00 0.  1.
          5    1    4    4  501    0  0.20551746225E+02  0.46021715205E+02 -0.50044657539E+01  0.50822137114E+02  0.41800000000E+01 0.  1.
         -5    1    4    4    0  501  0.76593942533E+02  0.65777157221E+01 -0.19510379079E+03  0.20974474953E+03  0.41800000000E+01 0.  1.
</event>
<event>
11    1  0.6455215E-009  0.3882073E+03  0.7561462E-02  0.9685208E-01
         22   -1    0    0    0    0  0.00000000000E+00  0.00000000000E+00  0.10544822948E+04  0.10544822948E+04  0.00000000000E+00 0.  1.
         22   -1    0    0    0    0 -0.00000000000E+00 -0.00000000000E+00 -0.29833159316E+04  0.29833159316E+04  0.00000000000E+00 0.  1.
        -24    2    1    2    0    0 -0.42044034527E+02  0.36372620823E+03 -0.25499924142E+04  0.25784836104E+04  0.10978142442E+03 0.  0.
         25    2    1    2    0    0  0.25220015370E+02 -0.37604737052E+03 -0.32285388029E+03  0.51178719824E+03  0.12507531415E+03 0.  0.
         24    2    1    2    0    0  0.16824019157E+02  0.12321162292E+02  0.94401265776E+03  0.94752741780E+03  0.78825445083E+02 0.  0.
        -13    1    5    5    0    0  0.52623920496E+01 -0.18409537834E+02  0.78132589490E+03  0.78156046336E+03  0.00000000000E+00 0.  1.
         14    1    5    5    0    0  0.11561627108E+02  0.30730700125E+02  0.16268676287E+03  0.16596695443E+03  0.00000000000E+00 0. -1.
         13    1    3    3    0    0 -0.42941012156E+02  0.62907419155E+02 -0.36345061886E+03  0.37134569643E+03  0.00000000000E+00 0. -1.
        -14    1    3    3    0    0  0.89697762876E+00  0.30081878907E+03 -0.21865417953E+04  0.22071379139E+04  0.00000000000E+00 0.  1.
          5    1    4    4  501    0  0.16717585176E+02 -0.21080960211E+03 -0.99377078861E+02  0.23369519079E+03  0.41800000000E+01 0.  1.
         -5    1    4    4    0  501  0.85024301933E+01 -0.16523776841E+03 -0.22347680143E+03  0.27809200745E+03  0.41800000000E+01 0.  1.
</event>
<event>
11    1  0.6455215E-009  0.1592084E+03  0.7561462E-02  0.1087824E+00
         22   -1    0    0    0    0  0.00000000000E+00  0.00000000000E+00  0.48345573531E+03  0.48345573531E+03  0.00000000000E+00 0. -1.
         22   -1    0    0    0    0 -0.00000000000E+00 -0.00000000000E+00 -0.12764325095E+03  0.12764325095E+03  0.00000000000E+00 0.  1.
        -24    2    1    2    0    0  0.37447748279E+02 -0.80405068334E+02 -0.28987527836E+02  0.12478851915E+03  0.82852814533E+02 0.  0.
         25    2    1    2    0    0 -0.79559743314E+02  0.12653651048E+03  0.20846561413E+03  0.28540943126E+03  0.12513748415E+03 0.  0.
         24    2    1    2    0    0  0.42111995035E+02 -0.46131442142E+02  0.17633439807E+03  0.20090103586E+03  0.73252141191E+02 0.  0.
        -11    1    5    5    0    0  0.32669862540E+02  0.12683971117E+02  0.84017746771E+02  0.91033976153E+02  0.00000000000E+00 0.  1.
         12    1    5    5    0    0  0.94421324951E+01 -0.58815413258E+02  0.92316651295E+02  0.10986705971E+03  0.00000000000E+00 0. -1.
         13    1    3    3    0    0  0.31480243760E+02 -0.27803080413E+02  0.25243104972E+02  0.49002360925E+02  0.00000000000E+00 0. -1.
        -14    1    3    3    0    0  0.59675045191E+01 -0.52601987920E+02 -0.54230632807E+02  0.75786158222E+02  0.00000000000E+00 0.  1.
          5    1    4    4  501    0 -0.61910963809E+02  0.14397582161E+03  0.20771091091E+03  0.26023700651E+03  0.41800000000E+01 0. -1.
         -5    1    4    4    0  501 -0.17648779504E+02 -0.17439311131E+02  0.75470321712E+00  0.25172424747E+02  0.41800000000E+01 0. -1.
</event>
<event>
11    1  0.6455215E-009  0.1715638E+03  0.7561462E-02  0.1076679E+00
         22   -1    0    0    0    0  0.00000000000E+00  0.00000000000E+00  0.36256518022E+03  0.36256518022E+03  0.00000000000E+00 0.  1.
         22   -1    0    0    0    0 -0.00000000000E+00 -0.00000000000E+00 -0.49284444195E+03  0.49284444195E+03  0.00000000000E+00 0.  1.
         24    2    1    2    0    0  0.53273096300E+02  0.10216277564E+03 -0.31361485069E+03  0.34356760509E+03  0.80057286854E+02 0.  0.
         25    2    1    2    0    0 -0.57457238800E+02 -0.11053634421E+03 -0.11048383790E+03  0.20826577819E+03  0.12509331815E+03 0.  0.
        -24    2    1    2    0    0  0.41841424992E+01  0.83735685728E+01  0.29381942686E+03  0.30357623889E+03  0.75769740132E+02 0.  0.
        -13    1    3    3    0    0  0.55122820366E+02  0.11158264905E+03 -0.30856973978E+03  0.33272285344E+03  0.00000000000E+00 0.  1.
         14    1    3    3    0    0 -0.18497240661E+01 -0.94198734124E+01 -0.50451109103E+01  0.10844751649E+02  0.00000000000E+00 0. -1.
         11    1    5    5    0    0  0.19034248467E+02 -0.95535109669E+01  0.21496198712E+02  0.30259853694E+02  0.00000000000E+00 0. -1.
        -12    1    5    5    0    0 -0.14850105968E+02  0.17927079540E+02  0.27232322815E+03  0.27331638520E+03  0.00000000000E+00 0.  1.
          5    1    4    4  501    0 -0.39982980692E+02 -0.69002613381E+02 -0.13495991229E+03  0.15681724944E+03  0.41800000000E+01 0. -1.
         -5    1    4    4    0  501 -0.17474258108E+02 -0.41533730832E+02  0.24476074383E+02  0.51448528749E+02  0.41800000000E+01 0. -1.
</event>
<event>
11    1  0.6455215E-009  0.1592361E+03  0.7561462E-02  0.1087798E+00
         22   -1    0    0    0    0  0.00000000000E+00  0.00000000000E+00  0.12994209118E+04  0.12994209118E+04  0.00000000000E+00 0. -1.
         22   -1    0    0    0    0 -0.00000000000E+00 -0.00000000000E+00 -0.56341327599E+02  0.56341327599E+02  0.00000000000E+00 0. -1.
         24    2    1    2    0    0  0.59009995645E+02 -0.86071510609E+02  0.11986239607E+03  0.17828738452E+03  0.80801689112E+02 0.  0.
         25    2    1    2    0    0 -0.84203202079E+02  0.45412196057E+02  0.22648155849E+03  0.27585158783E+03  0.12509098841E+03 0.  0.
        -24    2    1    2    0    0  0.25193206434E+02  0.40659314552E+02  0.89673562966E+03  0.90162326707E+03  0.80634041824E+02 0.  0.
        -11    1    3    3    0    0 -0.99039644918E+01  0.90418491472E+01  0.20206526412E+02  0.24251747531E+02  0.00000000000E+00 0.  1.
         12    1    3    3    0    0  0.68913960137E+02 -0.95113359757E+02  0.99655869660E+02  0.15403563699E+03  0.00000000000E+00 0. -1.
         11    1    5    5    0    0 -0.67351965608E+01  0.43620648218E+02  0.75572399458E+03  0.75701180955E+03  0.00000000000E+00 0. -1.
        -12    1    5    5    0    0  0.31928402995E+02 -0.29613336660E+01  0.14101163509E+03  0.14461145751E+03  0.00000000000E+00 0.  1.
          5    1    4    4  501    0 -0.68033014697E+02 -0.18848467117E+02  0.48133981383E+02  0.85545943008E+02  0.41800000000E+01 0.  1.
         -5    1    4    4    0  501 -0.16170187382E+02  0.64260663174E+02  0.17834757711E+03  0.19030564483E+03  0.41800000000E+01 0.  1.
</event>
<event>
11    1  0.6455215E-009  0.1727186E+03  0.7561462E-02  0.1075690E+00
         22   -1    0    0    0    0  0.00000000000E+00  0.00000000000E+00  0.35001357457E+03  0.35001357457E+03  0.00000000000E+00 0.  1.
         22   -1    0    0    0    0 -0.00000000000E+00 -0.00000000000E+00 -0.35059802318E+03  0.35059802318E+03  0.00000000000E+00 0. -1.
        -24    2    1    2    0    0  0.33563545698E+02 -0.11208472635E+03 -0.26725726039E+03  0.30583407910E+03  0.91752619732E+02 0.  0.
         25    2    1    2    0    0 -0.73627760524E+02  0.12245129407E+03  0.13170132116E+03  0.23109560027E+03  0.12507826322E+03 0.  0.
         24    2    1    2    0    0  0.40064214827E+02 -0.10366567727E+02  0.13497149062E+03  0.16368191837E+03  0.82836345197E+02 0.  0.
        -13    1    5    5    0    0  0.48735457572E+02  0.83080803475E+01  0.13426761125E+03  0.14308025879E+03  0.00000000000E+00 0.  1.
         14    1    5    5    0    0 -0.86712427454E+01 -0.18674648074E+02  0.70387936930E+00  0.20601659584E+02  0.00000000000E+00 0. -1.
         11    1    3    3    0    0  0.54188899928E+02 -0.61452678875E+02 -0.21549809647E+03  0.23054782194E+03  0.00000000000E+00 0. -1.
        -12    1    3    3    0    0 -0.20625354231E+02 -0.50632047471E+02 -0.51759163920E+02  0.75286257165E+02  0.00000000000E+00 0.  1.
          5    1    4    4  501    0  0.25110712297E+02  0.54989930527E+02  0.11862632025E+02  0.61746536502E+02  0.41800000000E+01 0. -1.
         -5    1    4    4    0  501 -0.98738472822E+02  0.67461363546E+02  0.11983868913E+03  0.16934906377E+03  0.41800000000E+01 0. -1.
</event>
<event>
11    1  0.6455215E-009  0.1415381E+03  0.7561462E-02  0.1105853E+00
         22   -1    0    0    0    0  0.00000000000E+00  0.00000000000E+00  0.14650643052E+04  0.14650643052E+04  0.00000000000E+00 0.  1.
         22   -1    0    0    0    0 -0.00000000000E+00 -0.00000000000E+00 -0.10693515142E+04  0.10693515142E+04  0.00000000000E+00 0. -1.
         24    2    1    2    0    0  0.32642650011E+02  0.17521485129E+02 -0.10392129418E+04  0.10430362072E+04  0.81169242820E+02 0.  0.
         25    2    1    2    0    0  0.12455467383E+02  0.34789858759E+02  0.13830156616E+03  0.19010462724E+03  0.12508786175E+03 0.  0.
        -24    2    1    2    0    0 -0.45098117394E+02 -0.52311343888E+02  0.12966241667E+04  0.13012749849E+04  0.85510465858E+02 0.  0.
        -13    1    3    3    0    0  0.42967544153E+02 -0.19020061231E+00 -0.25794125838E+03  0.26149558084E+03  0.00000000000E+00 0.  1.
         14    1    3    3    0    0 -0.10324894142E+02  0.17711685741E+02 -0.78127168346E+03  0.78154062634E+03  0.00000000000E+00 0. -1.
         11    1    5    5    0    0 -0.55317288290E+01 -0.19521585407E+02  0.55586974854E+02  0.59174353347E+02  0.00000000000E+00 0. -1.
        -12    1    5    5    0    0 -0.39566388565E+02 -0.32789758481E+02  0.12410371919E+04  0.12421006316E+04  0.00000000000E+00 0.  1.
          5    1    4    4  501    0 -0.54277133067E+02 -0.11670114379E+01  0.54861512502E+02  0.77295711677E+02  0.41800000000E+01 0. -1.
         -5    1    4    4    0  501  0.66732600450E+02  0.35956870196E+02  0.83440053653E+02  0.11280891556E+03  0.41800000000E+01 0. -1.
</event>
<event>
11    1  0.6455215E-009  0.1282174E+03  0.7561462E-02  0.1121479E+00
         22   -1    0    0    0    0  0.00000000000E+00  0.00000000000E+00  0.16595417192E+03  0.16595417192E+03  0.00000000000E+00 0. -1.
         22   -1    0    0    0    0 -0.00000000000E+00 -0.00000000000E+00 -0.65172846532E+03  0.65172846532E+03  0.00000000000E+00 0.  1.
         24    2    1    2    0    0  0.20074722532E+02 -0.19324839322E+02 -0.52729216682E+03  0.53394233236E+03  0.79252389210E+02 0.  0.
         25    2    1    2    0    0 -0.28341832668E+02  0.42281792497E+02 -0.58993722792E+02  0.14737058663E+03  0.12508725362E+03 0.  0.
        -24    2    1    2    0    0  0.82671101365E+01 -0.22956953175E+02  0.10051159621E+03  0.13636971825E+03  0.88874924888E+02 0.  0.
        -11    1    3    3    0    0 -0.10564636015E+02 -0.27391940885E+02 -0.44169339861E+03  0.44266803401E+03  0.00000000000E+00 0.  1.
         12    1    3    3    0    0  0.30639358547E+02  0.80671015625E+01 -0.85598768204E+02  0.91274298342E+02  0.00000000000E+00 0. -1.
         13    1    5    5    0    0 -0.25372667514E+02 -0.44898143710E+02  0.62970681457E+02  0.81393625601E+02  0.00000000000E+00 0. -1.
        -14    1    5    5    0    0  0.33639777650E+02  0.21941190535E+02  0.37540914758E+02  0.54976092652E+02  0.00000000000E+00 0.  1.
          5    1    4    4  501    0 -0.55922480642E+01 -0.12545759960E+02 -0.82240258299E+02  0.83484141108E+02  0.41800000000E+01 0.  1.
         -5    1    4    4    0  501 -0.22749584604E+02  0.54827552457E+02  0.23246535507E+02  0.63886445520E+02  0.41800000000E+01 0.  1.
</event>
<event>
11    1  0.6455215E-009  0.1951543E+03  0.7561462E-02  0.1058004E+00
         22   -1    0    0    0    0  0.00000000000E+00  0.00000000000E+00  0.18426926263E+04  0.18426926263E+04  0.00000000000E+00 0. -1.
         22   -1    0    0    0    0 -0.00000000000E+00 -0.00000000000E+00 -0.10532077083E+03  0.10532077083E+03  0.00000000000E+00 0.  1.
         24    2    1    2    0    0 -0.24904952417E+02 -0.50967209828E+02 -0.45673727197E+02  0.11094427449E+03  0.83693664950E+02 0.  0.
         25    2    1    2    0    0  0.15683902671E+03 -0.19982546170E+02  0.44857291614E+03  0.49179633661E+03  0.12509273825E+03 0.  0.
        -24    2    1    2    0    0 -0.13193407429E+03  0.70949755998E+02  0.13344726665E+04  0.13452727860E+04  0.80629419541E+02 0.  0.
        -13    1    3    3    0    0  0.11055758157E+01 -0.31774896057E+01 -0.55544725696E+02  0.55646520922E+02  0.00000000000E+00 0.  1.
         14    1    3    3    0    0 -0.26010528233E+02 -0.47789720222E+02  0.98709984996E+01  0.55297753564E+02  0.00000000000E+00 0. -1.
         11    1    5    5    0    0 -0.11644138964E+03  0.66512017687E+02  0.13033008128E+04  0.13101814585E+04  0.00000000000E+00 0. -1.
        -12    1    5    5    0    0 -0.15492684648E+02  0.44377383114E+01  0.31171853754E+02  0.35091327495E+02  0.00000000000E+00 0.  1.
          5    1    4    4  501    0  0.12653637031E+03  0.22588438503E+02  0.40060084935E+03  0.42073768962E+03  0.41800000000E+01 0.  1.
         -5    1    4    4    0  501  0.30302656394E+02 -0.42570984673E+02  0.47972066792E+02  0.71058646996E+02  0.41800000000E+01 0.  1.
</event>
<event>
11    1  0.6455215E-009  0.1300028E+03  0.7561462E-02  0.1119266E+00
         22   -1    0    0    0    0  0.00000000000E+00  0.00000000000E+00  0.13025289655E+03  0.13025289655E+03  0.00000000000E+00 0. -1.
         22   -1    0    0    0    0 -0.00000000000E+00 -0.00000000000E+00 -0.35133584951E+03  0.35133584951E+03  0.00000000000E+00 0. -1.
         24    2    1    2    0    0  0.38307600405E+02  0.87751137046E+01 -0.22503093388E+03  0.24243973662E+03  0.81201168825E+02 0.  0.
         25    2    1    2    0    0 -0.11260765195E+02 -0.20167983833E+02 -0.51604330990E+02  0.13727506195E+03  0.12509149952E+03 0.  0.
        -24    2    1    2    0    0 -0.27046835210E+02  0.11392870129E+02  0.55552311919E+02  0.10187394748E+03  0.80192973706E+02 0.  0.
        -11    1    3    3    0    0  0.18962114213E+02  0.43666914560E+02 -0.92466829263E+02  0.10400228707E+03  0.00000000000E+00 0.  1.
         12    1    3    3    0    0  0.19345486192E+02 -0.34891800856E+02 -0.13256410462E+03  0.13843744955E+03  0.00000000000E+00 0. -1.
         11    1    5    5    0    0 -0.32385717237E+02  0.42484865269E+02  0.29939888606E+02  0.61238838882E+02  0.00000000000E+00 0. -1.
        -12    1    5    5    0    0  0.53388820272E+01 -0.31091995141E+02  0.25612423313E+02  0.40635108602E+02  0.00000000000E+00 0.  1.
          5    1    4    4  501    0  0.28242777058E+02 -0.36295909561E+02  0.22724581263E+02  0.51467722899E+02  0.41800000000E+01 0.  1.
         -5    1    4    4    0  501 -0.39503542253E+02  0.16127925728E+02 -0.74328912253E+02  0.85807339054E+02  0.41800000000E+01 0.  1.
</event>
<event>
11    1  0.6455215E-009  0.1951508E+03  0.7561462E-02  0.1058007E+00
         22   -1    0    0    0    0  0.00000000000E+00  0.00000000000E+00  0.49355740133E+03  0.49355740133E+03  0.00000000000E+00 0. -1.
         22   -1    0    0    0    0 -0.00000000000E+00 -0.00000000000E+00 -0.16614938162E+04  0.16614938162E+04  0.00000000000E+00 0.  1.
        -24    2    1    2    0    0  0.75244332714E+02  0.12897032747E+03 -0.15765698175E+04  0.15857129486E+04  0.81351772914E+02 0.  0.
         25    2    1    2    0    0 -0.82438349547E+02 -0.14219977679E+03  0.64988621837E+02  0.21653526830E+03  0.12508854246E+03 0.  0.
         24    2    1    2    0    0  0.71940168330E+01  0.13229449320E+02  0.34364478078E+03  0.35280300063E+03  0.78431178065E+02 0.  0.
        -13    1    5    5    0    0  0.25247771378E+02 -0.23742836651E+02  0.10322382604E+03  0.10888677841E+03  0.00000000000E+00 0.  1.
         14    1    5    5    0    0 -0.18053754545E+02  0.36972285971E+02  0.24042095474E+03  0.24391622222E+03  0.00000000000E+00 0. -1.
         13    1    3    3    0    0  0.22926783960E+02  0.11086724611E+03 -0.95652590671E+03  0.96320246775E+03  0.00000000000E+00 0. -1.
        -14    1    3    3    0    0  0.52317548754E+02  0.18103081354E+02 -0.62004391080E+03  0.62251048086E+03  0.00000000000E+00 0.  1.
          5    1    4    4  501    0 -0.93502673366E+02 -0.99503621870E+02  0.91952718166E+02  0.16467087013E+03  0.41800000000E+01 0.  1.
         -5    1    4    4    0  501  0.11064323818E+02 -0.42696154917E+02 -0.26964096329E+02  0.51864398166E+02  0.41800000000E+01 0.  1.
</event>
<event>
11    1  0.6455215E-009  0.2080090E+03  0.7561462E-02  0.1049000E+00
         22   -1    0    0    0    0  0.00000000000E+00  0.00000000000E+00  0.13796584499E+03  0.13796584499E+03  0.00000000000E+00 0. -1.
         22   -1    0    0    0    0 -0.00000000000E+00 -0.00000000000E+00 -0.16913950447E+04  0.16913950447E+04  0.00000000000E+00 0. -1.
        -24    2    1    2    0    0 -0.23457949572E+02 -0.15980187520E+02 -0.12959090709E+04  0.12992793679E+04  0.89111805651E+02 0.  0.
         25    2    1    2    0    0  0.11904652307E+01 -0.15274618721E+03 -0.27778874281E+03  0.34080341981E+03  0.12509024905E+03 0.  0.
         24    2    1    2    0    0  0.22267484341E+02  0.16872637473E+03  0.20268614080E+02  0.18927810194E+03  0.80317823484E+02 0.  0.
        -13    1    5    5    0    0  0.50154989600E+01  0.22678003995E+02 -0.26233139824E+02  0.35037475937E+02  0.00000000000E+00 0.  1.
         14    1    5    5    0    0  0.17251985381E+02  0.14604837074E+03  0.46501753904E+02  0.15424062600E+03  0.00000000000E+00 0. -1.
         13    1    3    3    0    0  0.19089789506E+02  0.23091016967E+02 -0.68223427319E+03  0.68289180596E+03  0.00000000000E+00 0. -1.
        -14    1    3    3    0    0 -0.42547739077E+02 -0.39071204487E+02 -0.61367479775E+03  0.61638756194E+03  0.00000000000E+00 0.  1.
          5    1    4    4  501    0  0.59011674678E+02 -0.10956325874E+03 -0.16238230074E+03  0.20462641425E+03  0.41800000000E+01 0.  1.
         -5    1    4    4    0  501 -0.57821209447E+02 -0.43182928471E+02 -0.11540644207E+03  0.13617700556E+03  0.41800000000E+01 0.  1.
</event>
<event>
11    1  0.6455215E-009  0.1315894E+03  0.7561462E-02  0.1117331E+00
         22   -1    0    0    0    0  0.00000000000E+00  0.00000000000E+00  0.13431623360E+03  0.13431623360E+03  0.00000000000E+00 0. -1.
         22   -1    0    0    0    0 -0.00000000000E+00 -0.00000000000E+00 -0.56733924621E+03  0.56733924621E+03  0.00000000000E+00 0. -1.
         24    2    1    2    0    0  0.15479871311E+02 -0.32390957468E+02 -0.37453204670E+03  0.38462071147E+03  0.79812512453E+02 0.  0.
         25    2    1    2    0    0  0.20207035989E+02  0.63494186191E+01 -0.14369885578E+03  0.19169171289E+03  0.12509081588E+03 0.  0.
        -24    2    1    2    0    0 -0.35686907301E+02  0.26041538849E+02  0.85207889876E+02  0.12534305545E+03  0.80615010726E+02 0.  0.
        -13    1    3    3    0    0  0.36208474786E+02 -0.44960116820E+02 -0.19213695645E+03  0.20062172311E+03  0.00000000000E+00 0.  1.
         14    1    3    3    0    0 -0.20728603474E+02  0.12569159352E+02 -0.18239509025E+03  0.18399898836E+03  0.00000000000E+00 0. -1.
         11    1    5    5    0    0 -0.21511872587E+02  0.36086883127E+02  0.38922001063E+01  0.42192096626E+02  0.00000000000E+00 0. -1.
        -12    1    5    5    0    0 -0.14175034713E+02 -0.10045344278E+02  0.81315689770E+02  0.83150958825E+02  0.00000000000E+00 0.  1.
          5    1    4    4  501    0 -0.48859002655E+02 -0.19745316186E+02 -0.57046308889E+02  0.77774246441E+02  0.41800000000E+01 0.  1.
         -5    1    4    4    0  501  0.69066038644E+02  0.26094734805E+02 -0.86652546895E+02  0.11391746645E+03  0.41800000000E+01 0.  1.
</event>
<event>
11    1  0.6455215E-009  0.1369512E+03  0.7561462E-02  0.1111011E+00
         22   -1    0    0    0    0  0.00000000000E+00  0.00000000000E+00  0.13235679361E+04  0.13235679361E+04  0.00000000000E+00 0. -1.
         22   -1    0    0    0    0 -0.00000000000E+00 -0.00000000000E+00 -0.29461711161E+03  0.29461711161E+03  0.00000000000E+00 0. -1.
         24    2    1    2    0    0 -0.11696663918E+02 -0.23504985379E+02 -0.22981125333E+03  0.24302833211E+03  0.74567162762E+02 0.  0.
         25    2    1    2    0    0  0.43237034303E+02  0.68429605406E+02  0.42334252964E+02  0.15489424423E+03  0.12509190977E+03 0.  0.
        -24    2    1    2    0    0 -0.31540370385E+02 -0.44924620027E+02  0.12164278249E+04  0.12202624714E+04  0.79566510089E+02 0.  0.
        -13    1    3    3    0    0  0.57642203338E+01  0.16963023795E+02 -0.13930107408E+02  0.22694014733E+02  0.00000000000E+00 0.  1.
         14    1    3    3    0    0 -0.17460884252E+02 -0.40468009174E+02 -0.21588114593E+03  0.22033431737E+03  0.00000000000E+00 0. -1.
         13    1    5    5    0    0  0.25681952656E+02 -0.24904152774E+02  0.49600357973E+03  0.49729199734E+03  0.00000000000E+00 0. -1.
        -14    1    5    5    0    0 -0.57222323042E+02 -0.20020467253E+02  0.72042424516E+03  0.72297047407E+03  0.00000000000E+00 0.  1.
          5    1    4    4  501    0 -0.22413805144E+02  0.78131307414E+02  0.32661563260E+02  0.87699087645E+02  0.41800000000E+01 0.  1.
         -5    1    4    4    0  501  0.65650839447E+02 -0.97017020071E+01  0.96726897041E+01  0.67195156582E+02  0.41800000000E+01 0.  1.
</event>
<event>
11    1  0.6455215E-009  0.2478322E+03  0.7561462E-02  0.1025060E+00
         22   -1    0    0    0    0  0.00000000000E+00  0.00000000000E+00  0.15607294393E+04  0.15607294393E+04  0.00000000000E+00 0.  1.
         22   -1    0    0    0    0 -0.00000000000E+00 -0.00000000000E+00 -0.14838841876E+03  0.14838841876E+03  0.00000000000E+00 0. -1.
         24    2    1    2    0    0 -0.86517774968E+02 -0.19095278366E+03  0.41762382951E+02  0.22853061604E+03  0.80832263756E+02 0.  0.
         25    2    1    2    0    0  0.13826913882E+03  0.18145265096E+03  0.26704821602E+03  0.37283332842E+03  0.12508605763E+03 0.  0.
        -24    2    1    2    0    0 -0.51751363848E+02  0.95001327067E+01  0.11035304216E+04  0.11077539136E+04  0.81060999066E+02 0.  0.
        -11    1    3    3    0    0 -0.44563270269E+01 -0.51074196521E+02  0.42128829925E+02  0.66357145145E+02  0.00000000000E+00 0.  1.
         12    1    3    3    0    0 -0.82061447941E+02 -0.13987858714E+03 -0.36644697478E+00  0.16217347089E+03  0.00000000000E+00 0. -1.
         11    1    5    5    0    0  0.21029412540E+02 -0.99327855700E+00  0.16311710785E+03  0.16447009961E+03  0.00000000000E+00 0. -1.
        -12    1    5    5    0    0 -0.72780776388E+02  0.10493411264E+02  0.94041331373E+03  0.94328381399E+03  0.00000000000E+00 0.  1.
          5    1    4    4  501    0 -0.16707707610E+01  0.39020212389E+01 -0.12167446447E+02  0.13547560582E+02  0.41800000000E+01 0. -1.
         -5    1    4    4    0  501  0.13993990958E+03  0.17755062972E+03  0.27921566247E+03  0.35928576784E+03  0.41800000000E+01 0. -1.
</event>
<event>
11    1  0.6455215E-009  0.2125139E+03  0.7561462E-02  0.1046011E+00
         22   -1    0    0    0    0  0.00000000000E+00  0.00000000000E+00  0.19282729796E+04  0.19282729796E+04  0.00000000000E+00 0.  1.
         22   -1    0    0    0    0 -0.00000000000E+00 -0.00000000000E+00 -0.12956879250E+03  0.12956879250E+03  0.00000000000E+00 0.  1.
         24    2    1    2    0    0 -0.19483918609E+02 -0.43472038131E+02 -0.74716006924E+02  0.11907588171E+03  0.79543338700E+02 0.  0.
         25    2    1    2    0    0  0.33194785834E+02 -0.13556738092E+03  0.30404989401E+03  0.35717892617E+03  0.12510011460E+03 0.  0.
        -24    2    1    2    0    0 -0.13710867226E+02  0.17903941906E+03  0.15693703000E+04  0.15815869643E+04  0.79063805640E+02 0.  0.
        -11    1    3    3    0    0 -0.23215138477E+02 -0.43929827839E+02 -0.90287894999E+02  0.10305666602E+03  0.00000000000E+00 0.  1.
         12    1    3    3    0    0  0.37312198680E+01  0.45778970772E+00  0.15571888075E+02  0.16019215690E+02  0.00000000000E+00 0. -1.
         11    1    5    5    0    0 -0.35516326104E+01  0.76416574842E+02  0.37201549653E+03  0.37979946902E+03  0.00000000000E+00 0. -1.
        -12    1    5    5    0    0 -0.10159234615E+02  0.10262284421E+03  0.11973548035E+04  0.12017874952E+04  0.00000000000E+00 0.  1.
          5    1    4    4  501    0  0.48015348115E+02 -0.26659057121E+02  0.19368098399E+03  0.20136031124E+03  0.41800000000E+01 0.  1.
         -5    1    4    4    0  501 -0.14820562281E+02 -0.10890832380E+03  0.11036891002E+03  0.15581861493E+03  0.41800000000E+01 0.  1.
</event>
<event>
11    1  0.6455215E-009  0.1339499E+03  0.7561462E-02  0.1114509E+00
         22   -1    0    0    0    0  0.00000000000E+00  0.00000000000E+00  0.12555742368E+04  0.12555742368E+04  0.00000000000E+00 0. -1.
         22   -1    0    0    0    0 -0.00000000000E+00 -0.00000000000E+00 -0.13025977442E+04  0.13025977442E+04  0.00000000000E+00 0. -1.
        -24    2    1    2    0    0  0.29257435078E+02  0.13972597525E+01 -0.11513718152E+04  0.11546445054E+04  0.81785861603E+02 0.  0.
         25    2    1    2    0    0 -0.75885155929E+02  0.79788913431E+01 -0.11140605293E+03  0.18406638130E+03  0.12508758731E+03 0.  0.
         24    2    1    2    0    0  0.46627720851E+02 -0.93761510957E+01  0.12157543608E+04  0.12194610943E+04  0.82247421716E+02 0.  0.
        -11    1    5    5    0    0  0.44183005345E+02 -0.45902514026E+01  0.26541521695E+03  0.26910675531E+03  0.00000000000E+00 0.  1.
         12    1    5    5    0    0  0.24447155060E+01 -0.47858996930E+01  0.95033914380E+03  0.95035433903E+03  0.00000000000E+00 0. -1.
         13    1    3    3    0    0  0.57884533115E+02  0.31082466285E+01 -0.80851207679E+03  0.81058747750E+03  0.00000000000E+00 0. -1.
        -14    1    3    3    0    0 -0.28627098037E+02 -0.17109868760E+01 -0.34285973837E+03  0.34405702785E+03  0.00000000000E+00 0.  1.
          5    1    4    4  501    0 -0.44226995236E+02 -0.56671491184E+02 -0.72285019531E+02  0.10203078687E+03  0.41800000000E+01 0.  1.
         -5    1    4    4    0  501 -0.31658160693E+02  0.64650382527E+02 -0.39121033396E+02  0.82035594429E+02  0.41800000000E+01 0.  1.
</event>
<event>
11    1  0.6455215E-009  0.1409558E+03  0.7561462E-02  0.1106496E+00
         22   -1    0    0    0    0  0.00000000000E+00  0.00000000000E+00  0.85263165016E+02  0.85263165016E+02  0.00000000000E+00 0. -1.
         22   -1    0    0    0    0 -0.00000000000E+00 -0.00000000000E+00 -0.11219096595E+04  0.11219096595E+04  0.00000000000E+00 0.  1.
        -24    2    1    2    0    0 -0.42309833674E+02  0.53671760640E+02 -0.91716449124E+03  0.92325787673E+03  0.80892663754E+02 0.  0.
         25    2    1    2    0    0  0.65715687417E+02  0.19288486461E+02 -0.71044575277E+02  0.15932933456E+03  0.12509159800E+03 0.  0.
         24    2    1    2    0    0 -0.23405853743E+02 -0.72960247101E+02 -0.48437427994E+02  0.12458561325E+03  0.85465542483E+02 0.  0.
        -11    1    5    5    0    0  0.28894629782E+02 -0.48457023451E+02 -0.17523544515E+02  0.59076707460E+02  0.00000000000E+00 0.  1.
         12    1    5    5    0    0 -0.52300483525E+02 -0.24503223650E+02 -0.30913883479E+02  0.65508905791E+02  0.00000000000E+00 0. -1.
         11    1    3    3    0    0  0.19802469560E+02  0.35045064791E+02 -0.29780318149E+03  0.30051127977E+03  0.00000000000E+00 0. -1.
        -12    1    3    3    0    0 -0.62112303234E+02  0.18626695849E+02 -0.61936130975E+03  0.62274659696E+03  0.00000000000E+00 0.  1.
          5    1    4    4  501    0  0.13412547865E+02  0.49364464174E+02  0.15619796419E+02  0.53648832267E+02  0.41800000000E+01 0. -1.
         -5    1    4    4    0  501  0.52303139552E+02 -0.30075977713E+02 -0.86664371696E+02  0.10568050229E+03  0.41800000000E+01 0. -1.
</event>
<event>
11    1  0.6455215E-009  0.1384675E+03  0.7561462E-02  0.1109282E+00
         22   -1    0    0    0    0  0.00000000000E+00  0.00000000000E+00  0.72868121895E+03  0.72868121895E+03  0.00000000000E+00 0.  1.
         22   -1    0    0    0    0 -0.00000000000E+00 -0.00000000000E+00 -0.25339410142E+03  0.25339410142E+03  0.00000000000E+00 0. -1.
         24    2    1    2    0    0  0.36155134139E+01 -0.12393133637E+02 -0.22412477603E+03  0.23769933016E+03  0.78117825325E+02 0.  0.
         25    2    1    2    0    0 -0.16849391514E+02  0.66766360012E+02  0.29264472255E+03  0.32561862445E+03  0.12507959915E+03 0.  0.
        -24    2    1    2    0    0  0.13233878101E+02 -0.54373226375E+02  0.40676717100E+03  0.41875736576E+03  0.82259447473E+02 0.  0.
        -13    1    3    3    0    0  0.40600766384E+02 -0.33443678283E+01 -0.10445182133E+03  0.11211507484E+03  0.00000000000E+00 0.  1.
         14    1    3    3    0    0 -0.36985252970E+02 -0.90487658087E+01 -0.11967295469E+03  0.12558425532E+03  0.00000000000E+00 0. -1.
         11    1    5    5    0    0 -0.31018156539E+02 -0.62011285405E+01  0.92629595035E+02  0.97881672987E+02  0.00000000000E+00 0. -1.
        -12    1    5    5    0    0  0.44252034640E+02 -0.48172097835E+02  0.31413757597E+03  0.32087569278E+03  0.00000000000E+00 0.  1.
          5    1    4    4  501    0  0.28501435140E+02  0.14660571687E+01  0.78319905527E+01  0.29888017744E+02  0.41800000000E+01 0.  1.
         -5    1    4    4    0  501 -0.45350826654E+02  0.65300302844E+02  0.28481273200E+03  0.29573060670E+03  0.41800000000E+01 0.  1.
</event>
<event>
11    1  0.6455215E-009  0.1360424E+03  0.7561462E-02  0.1112060E+00
         22   -1    0    0    0    0  0.00000000000E+00  0.00000000000E+00  0.28272554540E+04  0.28272554540E+04  0.00000000000E+00 0.  1.
         22   -1    0    0    0    0 -0.00000000000E+00 -0.00000000000E+00 -0.23599540284E+03  0.23599540284E+03  0.00000000000E+00 0. -1.
         24    2    1    2    0    0 -0.31510484478E+02 -0.44072441980E+02 -0.19869054484E+03  0.22072958043E+03  0.79424960144E+02 0.  0.
         25    2    1    2    0    0  0.24849605024E+02  0.34712315959E+02  0.14458862686E+03  0.19589730711E+03  0.12508971247E+03 0.  0.
        -24    2    1    2    0    0  0.66608794538E+01  0.93601260210E+01  0.26453619691E+04  0.26466239693E+04  0.80910493001E+02 0.  0.
        -13    1    3    3    0    0 -0.15102836039E+02  0.15819993371E+02 -0.14221887749E+02  0.26088885331E+02  0.00000000000E+00 0.  1.
         14    1    3    3    0    0 -0.16407648439E+02 -0.59892435351E+02 -0.18446865709E+03  0.19464069510E+03  0.00000000000E+00 0. -1.
         13    1    5    5    0    0  0.32273635119E+02  0.32232126842E+02  0.12298217427E+04  0.12306673053E+04  0.00000000000E+00 0. -1.
        -14    1    5    5    0    0 -0.25612755665E+02 -0.22872000821E+02  0.14155402265E+04  0.14159566640E+04  0.00000000000E+00 0.  1.
          5    1    4    4  501    0  0.26545680338E+02  0.81100771723E+02  0.97654194016E+02  0.12975292801E+03  0.41800000000E+01 0. -1.
         -5    1    4    4    0  501 -0.16960753137E+01 -0.46388455764E+02  0.46934432846E+02  0.66144379098E+02  0.41800000000E+01 0. -1.
</event>
<event>
11    1  0.6455215E-009  0.1454966E+03  0.7561462E-02  0.1101571E+00
         22   -1    0    0    0    0  0.00000000000E+00  0.00000000000E+00  0.17092523561E+04  0.17092523561E+04  0.00000000000E+00 0. -1.
         22   -1    0    0    0    0 -0.00000000000E+00 -0.00000000000E+00 -0.76944174888E+03  0.76944174888E+03  0.00000000000E+00 0. -1.
        -24    2    1    2    0    0 -0.43082797562E+02  0.22042024219E+01 -0.74712273239E+03  0.75302421139E+03  0.83618776195E+02 0.  0.
         25    2    1    2    0    0 -0.13857782137E+02 -0.54946222453E+02  0.25707399852E+03  0.29145419568E+03  0.12508949587E+03 0.  0.
         24    2    1    2    0    0  0.56940579699E+02  0.52742020031E+02  0.14298593411E+04  0.14342156979E+04  0.80330458283E+02 0.  0.
        -13    1    5    5    0    0  0.31493742797E+02 -0.10590641534E+02  0.22671084615E+03  0.22913276781E+03  0.00000000000E+00 0.  1.
         14    1    5    5    0    0  0.25446836902E+02  0.63332661564E+02  0.12031484949E+04  0.12050829301E+04  0.00000000000E+00 0. -1.
         13    1    3    3    0    0 -0.46967940500E+02 -0.33787384982E+02 -0.44997210177E+03  0.45367661080E+03  0.00000000000E+00 0. -1.
        -14    1    3    3    0    0  0.38851429381E+01  0.35991587403E+02 -0.29715063062E+03  0.29934760059E+03  0.00000000000E+00 0.  1.
          5    1    4    4  501    0 -0.39611826151E+02 -0.82969804012E+02  0.21855146918E+03  0.23713983687E+03  0.41800000000E+01 0. -1.
         -5    1    4    4    0  501  0.25754044013E+02  0.28023581559E+02  0.38522529335E+02  0.54314358809E+02  0.41800000000E+01 0. -1.
</event>
<event>
11    1  0.6455215E-009  0.1987903E+03  0.7561462E-02  0.1055382E+00
         22   -1    0    0    0    0  0.00000000000E+00  0.00000000000E+00  0.48157841002E+03  0.48157841002E+03  0.00000000000E+00 0.  1.
         22   -1    0    0    0    0 -0.00000000000E+00 -0.00000000000E+00 -0.75410297701E+03  0.75410297701E+03  0.00000000000E+00 0. -1.
         24    2    1    2    0    0 -0.33860618933E+02  0.51736074228E+02 -0.33536904773E+03  0.35030884007E+03  0.80129410099E+02 0.  0.
         25    2    1    2    0    0 -0.88551969263E+02  0.46530362266E+02 -0.37766448656E+03  0.41022430432E+03  0.12508792735E+03 0.  0.
        -24    2    1    2    0    0  0.12241258820E+03 -0.98266436493E+02  0.44050896731E+03  0.47514824264E+03  0.84122338970E+02 0.  0.
        -11    1    3    3    0    0 -0.53036451810E+02  0.31404242351E+02 -0.14022432789E+03  0.15317295385E+03  0.00000000000E+00 0.  1.
         12    1    3    3    0    0  0.19175832877E+02  0.20331831877E+02 -0.19514471984E+03  0.19713588622E+03  0.00000000000E+00 0. -1.
         13    1    5    5    0    0  0.32750076408E+02  0.12657358482E+02  0.99468667129E+02  0.10548360995E+03  0.00000000000E+00 0. -1.
        -14    1    5    5    0    0  0.89662511788E+02 -0.11092379498E+03  0.34104030019E+03  0.36966463269E+03  0.00000000000E+00 0.  1.
          5    1    4    4  501    0 -0.76392483554E+02 -0.27149662909E+02 -0.24275093927E+03  0.25596563569E+03  0.41800000000E+01 0. -1.
         -5    1    4    4    0  501 -0.12159485709E+02  0.73680025175E+02 -0.13491354730E+03  0.15425866863E+03  0.41800000000E+01 0. -1.
</event>
<event>
11    1  0.6455215E-009  0.1708827E+03  0.7561462E-02  0.1077266E+00
         22   -1    0    0    0    0  0.00000000000E+00  0.00000000000E+00  0.17738185714E+03  0.17738185714E+03  0.00000000000E+00 0. -1.
         22   -1    0    0    0    0 -0.00000000000E+00 -0.00000000000E+00 -0.52627291716E+03  0.52627291716E+03  0.00000000000E+00 0.  1.
         24    2    1    2    0    0 -0.97378630110E+02 -0.78084467818E+02 -0.35127042971E+03  0.38136119398E+03  0.80409351233E+02 0.  0.
         25    2    1    2    0    0  0.61254989861E+00  0.11785603583E+03 -0.53048004641E+02  0.17985065506E+03  0.12506696979E+03 0.  0.
        -24    2    1    2    0    0  0.96766080211E+02 -0.39771568010E+02  0.55427374332E+02  0.14244292526E+03  0.79198113807E+02 0.  0.
        -11    1    3    3    0    0 -0.90277574070E+02 -0.78435447830E+02 -0.22428551535E+03  0.25417740311E+03  0.00000000000E+00 0.  1.
         12    1    3    3    0    0 -0.71010560397E+01  0.35098001208E+00 -0.12698491436E+03  0.12718379087E+03  0.00000000000E+00 0. -1.
         11    1    5    5    0    0  0.10012643345E+03 -0.26236186341E+02  0.67852693472E+02  0.12376440587E+03  0.00000000000E+00 0. -1.
        -12    1    5    5    0    0 -0.33603532416E+01 -0.13535381670E+02 -0.12425319140E+02  0.18678519390E+02  0.00000000000E+00 0.  1.
          5    1    4    4  501    0  0.20538458395E+02  0.12730014328E+03 -0.76890934954E+01  0.12924298553E+03  0.41800000000E+01 0.  1.
         -5    1    4    4    0  501 -0.19925908496E+02 -0.94441074472E+01 -0.45358911146E+02  0.50607669530E+02  0.41800000000E+01 0.  1.
</event>
<event>
11    1  0.6455215E-009  0.1614040E+03  0.7561462E-02  0.1085764E+00
         22   -1    0    0    0    0  0.00000000000E+00  0.00000000000E+00  0.66436745013E+02  0.66436745013E+02  0.00000000000E+00 0. -1.
         22   -1    0    0    0    0 -0.00000000000E+00 -0.00000000000E+00 -0.11004956933E+04  0.11004956933E+04  0.00000000000E+00 0. -1.
        -24    2    1    2    0    0  0.57556979397E+02 -0.33382230832E+02 -0.69455871195E+03  0.70218565403E+03  0.78903163223E+02 0.  0.
         25    2    1    2    0    0 -0.13307947566E+03 -0.20238094452E+02 -0.25764338694E+03  0.31645918989E+03  0.12508627711E+03 0.  0.
         24    2    1    2    0    0  0.75522496265E+02  0.53620325284E+02 -0.81856849350E+02  0.14828759435E+03  0.81913857965E+02 0.  0.
        -11    1    5    5    0    0  0.14042966087E+02 -0.89006244954E+01 -0.53666295291E+02  0.56182713206E+02  0.00000000000E+00 0.  1.
         12    1    5    5    0    0  0.61479530178E+02  0.62520949779E+02 -0.28190554059E+02  0.92104881143E+02  0.00000000000E+00 0. -1.
         13    1    3    3    0    0  0.41042048712E+02  0.19472832119E+02 -0.38967253294E+03  0.39231151382E+03  0.00000000000E+00 0. -1.
        -14    1    3    3    0    0  0.16514930684E+02 -0.52855062951E+02 -0.30488617902E+03  0.30987414021E+03  0.00000000000E+00 0.  1.
          5    1    4    4  501    0 -0.15364919874E+03 -0.48934384452E+00 -0.20238491907E+03  0.25413666323E+03  0.41800000000E+01 0.  1.
         -5    1    4    4    0  501  0.20569723074E+02 -0.19748750607E+02 -0.55258467871E+02  0.62322526660E+02  0.41800000000E+01 0.  1.
</event>
<event>
11    1  0.6455215E-009  0.1350198E+03  0.7561462E-02  0.1113251E+00
         22   -1    0    0    0    0  0.00000000000E+00  0.00000000000E+00  0.22798948783E+03  0.22798948783E+03  0.00000000000E+00 0.  1.
         22   -1    0    0    0    0 -0.00000000000E+00 -0.00000000000E+00 -0.55365329107E+03  0.55365329107E+03  0.00000000000E+00 0. -1.
         24    2    1    2    0    0  0.42404647145E+02  0.30346008554E+02 -0.39149488483E+03  0.40312152980E+03  0.80744588721E+02 0.  0.
         25    2    1    2    0    0 -0.52057440386E+02 -0.24354631366E+00 -0.11473513162E+03  0.17753486922E+03  0.12507774761E+03 0.  0.
        -24    2    1    2    0    0  0.96527932409E+01 -0.30102462240E+02  0.18056621320E+03  0.20098637988E+03  0.82413790706E+02 0.  0.
        -13    1    3    3    0    0  0.82569140603E-01  0.20161912037E+02 -0.17785804769E+02  0.26885765117E+02  0.00000000000E+00 0.  1.
         14    1    3    3    0    0  0.42322078005E+02  0.10184096516E+02 -0.37370908006E+03  0.37623576468E+03  0.00000000000E+00 0. -1.
         11    1    5    5    0    0 -0.11461850502E+02 -0.27325173403E+02  0.13489290459E+02  0.32557642352E+02  0.00000000000E+00 0. -1.
        -12    1    5    5    0    0  0.21114643743E+02 -0.27772888372E+01  0.16707692274E+03  0.16842873753E+03  0.00000000000E+00 0.  1.
          5    1    4    4  501    0  0.36515415098E+02  0.23221328777E+02 -0.42309847855E+02  0.60664662494E+02  0.41800000000E+01 0. -1.
         -5    1    4    4    0  501 -0.88572855484E+02 -0.23464875091E+02 -0.72425283763E+02  0.11687020672E+03  0.41800000000E+01 0. -1.
</event>
<event>
11    1  0.6455215E-009  0.1348331E+03  0.7561462E-02  0.1113469E+00
         22   -1    0    0    0    0  0.00000000000E+00  0.00000000000E+00  0.12897512605E+03  0.12897512605E+03  0.00000000000E+00 0.  1.
         22   -1    0    0    0    0 -0.00000000000E+00 -0.00000000000E+00 -0.84216318482E+03  0.84216318482E+03  0.00000000000E+00 0. -1.
         24    2    1    2    0    0 -0.77239601729E+01 -0.48812343824E+02 -0.72134602859E+03  0.72737630869E+03  0.79334084770E+02 0.  0.
         25    2    1    2    0    0  0.16723055254E+02  0.63991219258E+02 -0.44433958961E+02  0.14831284233E+03  0.12509110988E+03 0.  0.
        -24    2    1    2    0    0 -0.89990950807E+01 -0.15178875433E+02  0.52591928785E+02  0.95449159861E+02  0.77673992901E+02 0.  0.
        -11    1    3    3    0    0  0.31652860917E+02 -0.42753533944E+02 -0.37740806742E+03  0.38113858060E+03  0.00000000000E+00 0.  1.
         12    1    3    3    0    0 -0.39376821090E+02 -0.60588098804E+01 -0.34393796117E+03  0.34623772808E+03  0.00000000000E+00 0. -1.
         11    1    5    5    0    0  0.18070185929E+02 -0.39126872397E+02  0.23745309397E+02  0.49206539012E+02  0.00000000000E+00 0. -1.
        -12    1    5    5    0    0 -0.27069281010E+02  0.23947996964E+02  0.28846619387E+02  0.46242620850E+02  0.00000000000E+00 0.  1.
          5    1    4    4  501    0  0.60049194249E+02 -0.43141006644E+01 -0.22423090736E+02  0.64380001497E+02  0.41800000000E+01 0. -1.
         -5    1    4    4    0  501 -0.43326138996E+02  0.68305319922E+02 -0.22010868225E+02  0.83932840831E+02  0.41800000000E+01 0. -1.
</event>
<event>
11    1  0.6455215E-009  0.1801457E+03  0.7561462E-02  0.1069525E+00
         22   -1    0    0    0    0  0.00000000000E+00  0.00000000000E+00  0.48025882720E+03  0.48025882720E+03  0.00000000000E+00 0.  1.
         22   -1    0    0    0    0 -0.00000000000E+00 -0.00000000000E+00 -0.63764610977E+03  0.63764610977E+03  0.00000000000E+00 0. -1.
        -24    2    1    2    0    0  0.26577461128E+02  0.10214341089E+03 -0.56308579850E+03  0.57855981876E+03  0.80784958864E+02 0.  0.
         25    2    1    2    0    0  0.22119464954E+02  0.56855782841E+02  0.67495230391E+02  0.15467515690E+03  0.12508775825E+03 0.  0.
         24    2    1    2    0    0 -0.48696926082E+02 -0.15899919373E+03  0.33820328554E+03  0.38466996131E+03  0.77054413054E+02 0.  0.
        -13    1    5    5    0    0 -0.62177181288E+02 -0.94437199468E+02  0.25136904494E+03  0.27562797984E+03  0.00000000000E+00 0.  1.
         14    1    5    5    0    0  0.13480255206E+02 -0.64561994260E+02  0.86834240597E+02  0.10904198147E+03  0.00000000000E+00 0. -1.
         11    1    3    3    0    0  0.46964624474E+02  0.10137727230E+03 -0.45105976148E+03  0.46469122621E+03  0.00000000000E+00 0. -1.
        -12    1    3    3    0    0 -0.20387163346E+02  0.76613858499E+00 -0.11202603703E+03  0.11386859255E+03  0.00000000000E+00 0.  1.
          5    1    4    4  501    0 -0.52256472514E+02  0.24091733169E+02  0.25157073652E+02  0.62940458224E+02  0.41800000000E+01 0.  1.
         -5    1    4    4    0  501  0.74375937469E+02  0.32764049672E+02  0.42338156739E+02  0.91734698677E+02  0.41800000000E+01 0.  1.
</event>
<event>
11    1  0.6455215E-009  0.1476483E+03  0.7561462E-02  0.1099306E+00
         22   -1    0    0    0    0  0.00000000000E+00  0.00000000000E+00  0.31824413396E+03  0.31824413396E+03  0.00000000000E+00 0.  1.
         22   -1    0    0    0    0 -0.00000000000E+00 -0.00000000000E+00 -0.98255826536E+03  0.98255826536E+03  0.00000000000E+00 0. -1.
         24    2    1    2    0    0 -0.53001855169E+02 -0.65769087727E+02 -0.88432895357E+03  0.89223088348E+03  0.83087193640E+02 0.  0.
         25    2    1    2    0    0 -0.10248804068E+02  0.13421068131E+02 -0.33171435333E+02  0.13051121370E+03  0.12509064603E+03 0.  0.
        -24    2    1    2    0    0  0.63250659238E+02  0.52348019596E+02  0.25318625750E+03  0.27806030214E+03  0.80456756009E+02 0.  0.
        -11    1    3    3    0    0 -0.46931120564E+02 -0.22791156188E+01 -0.22680520665E+03  0.23162108326E+03  0.00000000000E+00 0.  1.
         12    1    3    3    0    0 -0.60707346058E+01 -0.63489972108E+02 -0.65752374692E+03  0.66060980022E+03  0.00000000000E+00 0. -1.
         11    1    5    5    0    0 -0.70423085711E+01  0.20890569249E+02  0.12476045062E+02  0.25331042101E+02  0.00000000000E+00 0. -1.
        -12    1    5    5    0    0  0.70292967809E+02  0.31457450347E+02  0.24071021244E+03  0.25272926004E+03  0.00000000000E+00 0.  1.
          5    1    4    4  501    0  0.18186075878E+02 -0.28040621248E+02  0.33099177674E+02  0.47223275601E+02  0.41800000000E+01 0. -1.
         -5    1    4    4    0  501 -0.28434879946E+02  0.41461689379E+02 -0.66270613007E+02  0.83287938094E+02  0.41800000000E+01 0. -1.
</event>
<event>
11    1  0.6455215E-009  0.1561817E+03  0.7561462E-02  0.1090725E+00
         22   -1    0    0    0    0  0.00000000000E+00  0.00000000000E+00  0.25653396409E+03  0.25653396409E+03  0.00000000000E+00 0.  1.
         22   -1    0    0    0    0 -0.00000000000E+00 -0.00000000000E+00 -0.10469619661E+04  0.10469619661E+04  0.00000000000E+00 0. -1.
         24    2    1    2    0    0 -0.25760422050E+02 -0.85599391361E+02 -0.85793557813E+03  0.86628209165E+03  0.80002193381E+02 0.  0.
         25    2    1    2    0    0  0.21198574588E+02  0.14953868604E+03 -0.11319441035E+03  0.22643178683E+03  0.12508869401E+03 0.  0.
        -24    2    1    2    0    0  0.45618474617E+01 -0.63939294676E+02  0.18070198649E+03  0.21078205168E+03  0.87560387905E+02 0.  0.
        -13    1    3    3    0    0  0.24314614937E+01 -0.60339424440E+02 -0.25080667999E+03  0.25797431824E+03  0.00000000000E+00 0.  1.
         14    1    3    3    0    0 -0.28191883544E+02 -0.25259966921E+02 -0.60712889814E+03  0.60830777341E+03  0.00000000000E+00 0. -1.
         13    1    5    5    0    0  0.27816243740E+02 -0.19730633823E+02  0.14187860820E+02  0.36936928967E+02  0.00000000000E+00 0. -1.
        -14    1    5    5    0    0 -0.23254396279E+02 -0.44208660853E+02  0.16651412567E+03  0.17384512271E+03  0.00000000000E+00 0.  1.
          5    1    4    4  501    0 -0.18238941182E+02 -0.95695260473E+01 -0.43397808412E+02  0.48219052035E+02  0.41800000000E+01 0. -1.
         -5    1    4    4    0  501  0.39437515770E+02  0.15910821208E+03 -0.69796601936E+02  0.17821273480E+03  0.41800000000E+01 0. -1.
</event>
<event>
11    1  0.6455215E-009  0.1699553E+03  0.7561462E-02  0.1078071E+00
         22   -1    0    0    0    0  0.00000000000E+00  0.00000000000E+00  0.42149818665E+03  0.42149818665E+03  0.00000000000E+00 0.  1.
         22   -1    0    0    0    0 -0.00000000000E+00 -0.00000000000E+00 -0.45515757954E+03  0.45515757954E+03  0.00000000000E+00 0.  1.
        -24    2    1    2    0    0 -0.53363930794E+02 -0.50603484606E+02 -0.32442096541E+03  0.34217538913E+03  0.80166154726E+02 0.  0.
         25    2    1    2    0    0  0.16209516137E+03  0.47502133870E+02 -0.47267585330E+01  0.21023518259E+03  0.12508075668E+03 0.  0.
         24    2    1    2    0    0 -0.10873123057E+03  0.31013507354E+01  0.29548833105E+03  0.32424519447E+03  0.77391817885E+02 0.  0.
        -13    1    5    5    0    0 -0.93798775380E+02 -0.27650086319E+02  0.23880269476E+03  0.25804934520E+03  0.00000000000E+00 0.  1.
         14    1    5    5    0    0 -0.14932455194E+02  0.30751437055E+02  0.56685636288E+02  0.66195849269E+02  0.00000000000E+00 0. -1.
         13    1    3    3    0    0  0.95248974113E+01 -0.33952348624E+01 -0.20054730764E+01  0.10308889985E+02  0.00000000000E+00 0. -1.
        -14    1    3    3    0    0 -0.62888828205E+02 -0.47208249743E+02 -0.32241549233E+03  0.33186649914E+03  0.00000000000E+00 0.  1.
          5    1    4    4  501    0  0.67223540784E+02  0.11558244694E+01 -0.60681979496E+02  0.90664852072E+02  0.41800000000E+01 0. -1.
         -5    1    4    4    0  501  0.94871620584E+02  0.46346309401E+02  0.55955220963E+02  0.11957033052E+03  0.41800000000E+01 0. -1.
</event>
<event>
11    1  0.6455215E-009  0.1323313E+03  0.7561462E-02  0.1116437E+00
         22   -1    0    0    0    0  0.00000000000E+00  0.00000000000E+00  0.41775899676E+03  0.41775899676E+03  0.00000000000E+00 0. -1.
         22   -1    0    0    0    0 -0.00000000000E+00 -0.00000000000E+00 -0.19108591257E+04  0.19108591257E+04  0.00000000000E+00 0. -1.
        -24    2    1    2    0    0 -0.23969411338E+02 -0.35946763119E+02 -0.18542949181E+04  0.18565215511E+04  0.79974522095E+02 0.  0.
         25    2    1    2    0    0  0.43834845668E+02  0.19397919282E+02  0.39973382151E+02  0.13979738290E+03  0.12509062323E+03 0.  0.
         24    2    1    2    0    0 -0.19865434330E+02  0.16548843837E+02  0.32122140695E+03  0.33229918846E+03  0.81062066698E+02 0.  0.
        -11    1    5    5    0    0 -0.41203130660E+01 -0.22938400413E+02  0.29986748585E+02  0.37978313338E+02  0.00000000000E+00 0.  1.
         12    1    5    5    0    0 -0.15745121264E+02  0.39487244250E+02  0.29123465836E+03  0.29432087512E+03  0.00000000000E+00 0. -1.
         13    1    3    3    0    0 -0.40456839618E+02  0.89694153599E+01 -0.10366256919E+04  0.10374536285E+04  0.00000000000E+00 0. -1.
        -14    1    3    3    0    0  0.16487428279E+02 -0.44916178479E+02 -0.81766922617E+03  0.81906792259E+03  0.00000000000E+00 0.  1.
          5    1    4    4  501    0  0.59101819558E+02 -0.25176538482E+02  0.60398659591E+02  0.88274309091E+02  0.41800000000E+01 0.  1.
         -5    1    4    4    0  501 -0.15266973890E+02  0.44574457764E+02 -0.20425277441E+02  0.51523073814E+02  0.41800000000E+01 0.  1.
</event>
<event>
11    1  0.6455215E-009  0.3065360E+03  0.7561462E-02  0.9974624E-01
         22   -1    0    0    0    0  0.00000000000E+00  0.00000000000E+00  0.42174803064E+03  0.42174803064E+03  0.00000000000E+00 0.  1.
         22   -1    0    0    0    0 -0.00000000000E+00 -0.00000000000E+00 -0.13755554105E+04  0.13755554105E+04  0.00000000000E+00 0.  1.
         24    2    1    2    0    0 -0.39686190532E+02 -0.29847109226E+02 -0.77518861951E+03  0.78098644533E+03  0.80972762861E+02 0.  0.
         25    2    1    2    0    0  0.28756086539E+03 -0.95291807715E+02 -0.48928801695E+03  0.58891551439E+03  0.12508772775E+03 0.  0.
        -24    2    1    2    0    0 -0.24787467486E+03  0.12513891694E+03  0.31066925658E+03  0.42740148145E+03  0.95157954964E+02 0.  0.
        -11    1    3    3    0    0 -0.10114465739E+02 -0.29768722028E+02 -0.69172073740E+03  0.69243487620E+03  0.00000000000E+00 0.  1.
         12    1    3    3    0    0 -0.29571724793E+02 -0.78387198425E-01 -0.83467882111E+02  0.88551569132E+02  0.00000000000E+00 0. -1.
         13    1    5    5    0    0 -0.19407128174E+02  0.12232216017E+02 -0.31320787158E+01  0.23153264343E+02  0.00000000000E+00 0. -1.
        -14    1    5    5    0    0 -0.22846754669E+03  0.11290670092E+03  0.31380133529E+03  0.40424821711E+03  0.00000000000E+00 0.  1.
          5    1    4    4  501    0  0.16874527320E+03 -0.89819890806E+01 -0.18244887691E+03  0.24871813051E+03  0.41800000000E+01 0. -1.
         -5    1    4    4    0  501  0.11881559219E+03 -0.86309818634E+02 -0.30683914004E+03  0.34019738388E+03  0.41800000000E+01 0. -1.
</event>
<event>
11    1  0.6455215E-009  0.1654601E+03  0.7561462E-02  0.1082051E+00
         22   -1    0    0    0    0  0.00000000000E+00  0.00000000000E+00  0.22347846790E+03  0.22347846790E+03  0.00000000000E+00 0.  1.
         22   -1    0    0    0    0 -0.00000000000E+00 -0.00000000000E+00 -0.78593538118E+03  0.78593538118E+03  0.00000000000E+00 0.  1.
         24    2    1    2    0    0  0.15136812641E+02 -0.31391211336E+01 -0.54936690898E+03  0.55533356996E+03  0.79701920071E+02 0.  0.
         25    2    1    2    0    0 -0.15541879259E+02  0.11109944921E+03 -0.17580894274E+03  0.24318961020E+03  0.12509102500E+03 0.  0.
        -24    2    1    2    0    0  0.40506661802E+00 -0.10796032807E+03  0.16271893844E+03  0.21089066892E+03  0.79635574924E+02 0.  0.
        -13    1    3    3    0    0  0.42795890957E+02 -0.21595252291E+02 -0.32397742377E+03  0.32750452565E+03  0.00000000000E+00 0.  1.
         14    1    3    3    0    0 -0.27659078316E+02  0.18456131158E+02 -0.22538948520E+03  0.22782904431E+03  0.00000000000E+00 0. -1.
         11    1    5    5    0    0 -0.46008908621E+01 -0.34756193429E+02  0.30776627662E+01  0.35194220925E+02  0.00000000000E+00 0. -1.
        -12    1    5    5    0    0  0.50059574801E+01 -0.73204134645E+02  0.15964127567E+03  0.17569644799E+03  0.00000000000E+00 0.  1.
          5    1    4    4  501    0 -0.40542336247E+02  0.31932205917E+02 -0.14595255210E+03  0.15486434925E+03  0.41800000000E+01 0.  1.
         -5    1    4    4    0  501  0.25000456989E+02  0.79167243291E+02 -0.29856390638E+02  0.88325260949E+02  0.41800000000E+01 0.  1.
</event>
<event>
11    1  0.6455215E-009  0.1489324E+03  0.7561462E-02  0.1097975E+00
         22   -1    0    0    0    0  0.00000000000E+00  0.00000000000E+00  0.34385868336E+03  0.34385868336E+03  0.00000000000E+00 0.  1.
         22   -1    0    0    0    0 -0.00000000000E+00 -0.00000000000E+00 -0.51407041863E+03  0.51407041863E+03  0.00000000000E+00 0. -1.
         24    2    1    2    0    0 -0.52621497156E+02 -0.51987563294E+02 -0.21500942995E+03  0.24118506300E+03  0.80432897176E+02 0.  0.
         25    2    1    2    0    0  0.10024128541E+03  0.21328793872E+02 -0.25423108339E+03  0.30130455969E+03  0.12509101159E+03 0.  0.
        -24    2    1    2    0    0 -0.47619788251E+02  0.30658769422E+02  0.29902877807E+03  0.31543947929E+03  0.82923160828E+02 0.  0.
        -11    1    3    3    0    0 -0.41129816310E+02 -0.65523434192E+01 -0.32710264412E+02  0.52958062577E+02  0.00000000000E+00 0.  1.
         12    1    3    3    0    0 -0.11491680846E+02 -0.45435219875E+02 -0.18229916554E+03  0.18822700042E+03  0.00000000000E+00 0. -1.
         11    1    5    5    0    0 -0.37859757187E+01  0.36974675525E+02  0.48908909789E+02  0.61429160006E+02  0.00000000000E+00 0. -1.
        -12    1    5    5    0    0 -0.43833812533E+02 -0.63159061030E+01  0.25011986828E+03  0.25401031928E+03  0.00000000000E+00 0.  1.
          5    1    4    4  501    0  0.89619556369E+02  0.56185811251E+02 -0.11072841940E+03  0.15318865994E+03  0.41800000000E+01 0.  1.
         -5    1    4    4    0  501  0.10621729038E+02 -0.34857017379E+02 -0.14350266399E+03  0.14811589976E+03  0.41800000000E+01 0.  1.
</event>
<event>
11    1  0.6455215E-009  0.1514742E+03  0.7561462E-02  0.1095382E+00
         22   -1    0    0    0    0  0.00000000000E+00  0.00000000000E+00  0.26014857225E+03  0.26014857225E+03  0.00000000000E+00 0.  1.
         22   -1    0    0    0    0 -0.00000000000E+00 -0.00000000000E+00 -0.15189243857E+04  0.15189243857E+04  0.00000000000E+00 0.  1.
        -24    2    1    2    0    0  0.36492960234E+02  0.72884239965E+02 -0.10845062924E+04  0.10907348656E+04  0.83095128568E+02 0.  0.
         25    2    1    2    0    0  0.16334758241E+02 -0.12578130231E+03 -0.39969083315E+03  0.43759073072E+03  0.12508047479E+03 0.  0.
         24    2    1    2    0    0 -0.52827718475E+02  0.52897062348E+02  0.22542131208E+03  0.25074736155E+03  0.80440066763E+02 0.  0.
        -13    1    5    5    0    0 -0.23805594489E+02  0.86302123393E+01  0.17765023669E+03  0.17944579541E+03  0.00000000000E+00 0.  1.
         14    1    5    5    0    0 -0.29022123986E+02  0.44266850009E+02  0.47771075388E+02  0.71301566141E+02  0.00000000000E+00 0. -1.
         11    1    3    3    0    0 -0.23781962922E+02  0.42508263581E+02 -0.42384680374E+03  0.42663643453E+03  0.00000000000E+00 0. -1.
        -12    1    3    3    0    0  0.60274923157E+02  0.30375976384E+02 -0.66065948862E+03  0.66409843111E+03  0.00000000000E+00 0.  1.
          5    1    4    4  501    0 -0.31653364552E+02 -0.83884341737E+02 -0.33455493558E+03  0.34638561690E+03  0.41800000000E+01 0. -1.
         -5    1    4    4    0  501  0.47988122793E+02 -0.41896960576E+02 -0.65135897565E+02  0.91205113817E+02  0.41800000000E+01 0. -1.
</event>
<event>
11    1  0.6455215E-009  0.1441699E+03  0.7561462E-02  0.1102989E+00
         22   -1    0    0    0    0  0.00000000000E+00  0.00000000000E+00  0.72465052605E+02  0.72465052605E+02  0.00000000000E+00 0. -1.
         22   -1    0    0    0    0 -0.00000000000E+00 -0.00000000000E+00 -0.19383367427E+04  0.19383367427E+04  0.00000000000E+00 0.  1.
         24    2    1    2    0    0  0.69511766953E+02  0.16165100454E+02 -0.17104796145E+04  0.17139115278E+04  0.81602802013E+02 0.  0.
         25    2    1    2    0    0 -0.68107885847E+02 -0.47279111191E+02 -0.14770307969E+03  0.21056445402E+03  0.12508873282E+03 0.  0.
        -24    2    1    2    0    0 -0.14038811054E+01  0.31114010737E+02 -0.76889959191E+01  0.86325813494E+02  0.80143451828E+02 0.  0.
        -13    1    3    3    0    0  0.73065757471E+02  0.18185485557E+02 -0.17066490878E+04  0.17083092302E+04  0.00000000000E+00 0.  1.
         14    1    3    3    0    0 -0.35539905181E+01 -0.20203851028E+01 -0.38305266892E+01  0.56022976789E+01  0.00000000000E+00 0. -1.
         11    1    5    5    0    0 -0.15915883321E+02  0.39594853298E+02  0.25079430060E+02  0.49497934924E+02  0.00000000000E+00 0. -1.
        -12    1    5    5    0    0  0.14512002216E+02 -0.84808425612E+01 -0.32768425979E+02  0.36827878570E+02  0.00000000000E+00 0.  1.
          5    1    4    4  501    0 -0.19795374285E+02 -0.58550317707E+02 -0.82541191822E+01  0.62494795225E+02  0.41800000000E+01 0. -1.
         -5    1    4    4    0  501 -0.48312511562E+02  0.11271206516E+02 -0.13944896050E+03  0.14806965879E+03  0.41800000000E+01 0. -1.
</event>
<event>
11    1  0.6455215E-009  0.1303809E+03  0.7561462E-02  0.1118802E+00
         22   -1    0    0    0    0  0.00000000000E+00  0.00000000000E+00  0.21277885506E+03  0.21277885506E+03  0.00000000000E+00 0.  1.
         22   -1    0    0    0    0 -0.00000000000E+00 -0.00000000000E+00 -0.37640632519E+03  0.37640632519E+03  0.00000000000E+00 0. -1.
        -24    2    1    2    0    0  0.34080815582E+02 -0.21746008209E+02 -0.25517231498E+03  0.27047109063E+03  0.80045672428E+02 0.  0.
         25    2    1    2    0    0 -0.16362833864E+02  0.80493961199E+01 -0.63331397955E+02  0.14138692263E+03  0.12508741269E+03 0.  0.
         24    2    1    2    0    0 -0.17717981719E+02  0.13696612089E+02  0.15487624280E+03  0.17732716699E+03  0.83407131041E+02 0.  0.
        -11    1    5    5    0    0  0.76607212060E+01  0.27130343839E+02  0.14382060307E+03  0.14655752480E+03  0.00000000000E+00 0.  1.
         12    1    5    5    0    0 -0.25378702925E+02 -0.13433731749E+02  0.11055639731E+02  0.30769642194E+02  0.00000000000E+00 0. -1.
         11    1    3    3    0    0  0.47244826310E+01 -0.18540465027E+01 -0.22153834360E+03  0.22159647088E+03  0.00000000000E+00 0. -1.
        -12    1    3    3    0    0  0.29356332951E+02 -0.19891961707E+02 -0.33633971378E+02  0.48874619748E+02  0.00000000000E+00 0.  1.
          5    1    4    4  501    0  0.36295822340E+02  0.23892301610E+01  0.20632563245E+02  0.42027017574E+02  0.41800000000E+01 0. -1.
         -5    1    4    4    0  501 -0.52658656204E+02  0.56601659589E+01 -0.83963961201E+02  0.99359905054E+02  0.41800000000E+01 0. -1.
</event>
<event>
11    1  0.6455215E-009  0.1380660E+03  0.7561462E-02  0.1109737E+00
         22   -1    0    0    0    0  0.00000000000E+00  0.00000000000E+00  0.18845571588E+03  0.18845571588E+03  0.00000000000E+00 0. -1.
         22   -1    0    0    0    0 -0.00000000000E+00 -0.00000000000E+00 -0.45835755253E+03  0.45835755253E+03  0.00000000000E+00 0.  1.
         24    2    1    2    0    0  0.48497641885E+01  0.96710949571E-01 -0.32877478649E+03  0.33843912374E+03  0.80153918682E+02 0.  0.
         25    2    1    2    0    0  0.12331132348E+02  0.56028253887E+02 -0.57833533611E+02  0.14927308670E+03  0.12508602937E+03 0.  0.
        -24    2    1    2    0    0 -0.17180896536E+02 -0.56124964837E+02  0.11670648345E+03  0.15910105797E+03  0.90816014472E+02 0.  0.
        -13    1    3    3    0    0  0.19985465539E+02 -0.33976256279E+02 -0.11848836476E+03  0.12487312524E+03  0.00000000000E+00 0.  1.
         14    1    3    3    0    0 -0.15135701351E+02  0.34072967228E+02 -0.21028642174E+03  0.21356599851E+03  0.00000000000E+00 0. -1.
         13    1    5    5    0    0 -0.32617397847E+02 -0.73497309074E+02  0.10716725628E+03  0.13397973691E+03  0.00000000000E+00 0. -1.
        -14    1    5    5    0    0  0.15436501311E+02  0.17372344237E+02  0.95392271730E+01  0.25121321065E+02  0.00000000000E+00 0.  1.
          5    1    4    4  501    0 -0.27137049896E+02  0.50480614990E+02 -0.83734961581E+02  0.10155652691E+03  0.41800000000E+01 0.  1.
         -5    1    4    4    0  501  0.39468182243E+02  0.55476388970E+01  0.25901427970E+02  0.47716559786E+02  0.41800000000E+01 0.  1.
</event>
<event>
11    1  0.6455215E-009  0.1594637E+03  0.7561462E-02  0.1087583E+00
         22   -1    0    0    0    0  0.00000000000E+00  0.00000000000E+00  0.11896952124E+04  0.11896952124E+04  0.00000000000E+00 0. -1.
         22   -1    0    0    0    0 -0.00000000000E+00 -0.00000000000E+00 -0.45589031966E+03  0.45589031966E+03  0.00000000000E+00 0.  1.
        -24    2    1    2    0    0  0.35505050487E+02  0.85774291845E+02 -0.39021293698E+03  0.40988525634E+03  0.84391643116E+02 0.  0.
         25    2    1    2    0    0 -0.78385382822E+02  0.83844553993E+01  0.54002774572E+02  0.15741226664E+03  0.12509098567E+03 0.  0.
         24    2    1    2    0    0  0.42880332335E+02 -0.94158747244E+02  0.10700150551E+04  0.10782880091E+04  0.84072704872E+02 0.  0.
        -13    1    5    5    0    0 -0.40939704976E+01 -0.45528861194E+02  0.18019377219E+03  0.18590167652E+03  0.00000000000E+00 0.  1.
         14    1    5    5    0    0  0.46974302833E+02 -0.48629886050E+02  0.88982128294E+03  0.89238633255E+03  0.00000000000E+00 0. -1.
         11    1    3    3    0    0  0.44141891996E+02  0.57933267891E+02 -0.13843741214E+03  0.15642789789E+03  0.00000000000E+00 0. -1.
        -12    1    3    3    0    0 -0.86368415092E+01  0.27841023954E+02 -0.25177552483E+03  0.25345735845E+03  0.00000000000E+00 0.  1.
          5    1    4    4  501    0 -0.70097392928E+02  0.49678468122E+01  0.93305877669E+02  0.11688363104E+03  0.41800000000E+01 0. -1.
         -5    1    4    4    0  501 -0.82879898942E+01  0.34166085871E+01 -0.39303103097E+02  0.40528635602E+02  0.41800000000E+01 0. -1.
</event>
<event>
11    1  0.6455215E-009  0.1964947E+03  0.7561462E-02  0.1057031E+00
         22   -1    0    0    0    0  0.00000000000E+00  0.00000000000E+00  0.92901366624E+03  0.92901366624E+03  0.00000000000E+00 0. -1.
         22   -1    0    0    0    0 -0.00000000000E+00 -0.00000000000E+00 -0.42240817303E+03  0.42240817303E+03  0.00000000000E+00 0.  1.
        -24    2    1    2    0    0  0.12696857687E+03 -0.99477419281E+02 -0.31521714146E+03  0.36675488529E+03  0.95553771035E+02 0.  0.
         25    2    1    2    0    0 -0.91382386870E+02  0.72068321137E+02  0.14160678667E+02  0.17144171412E+03  0.12508858053E+03 0.  0.
         24    2    1    2    0    0 -0.35586190001E+02  0.27409098144E+02  0.80766195600E+03  0.81322523985E+03  0.83664926798E+02 0.  0.
        -11    1    5    5    0    0 -0.88367644350E+01 -0.80907886732E+01  0.14459632916E+02  0.18778451776E+02  0.00000000000E+00 0.  1.
         12    1    5    5    0    0 -0.26749425566E+02  0.35499886817E+02  0.79320232309E+03  0.79444678807E+03  0.00000000000E+00 0. -1.
         13    1    3    3    0    0  0.24841467609E+02  0.47455299555E+01 -0.78030515517E+01  0.26467077305E+02  0.00000000000E+00 0. -1.
        -14    1    3    3    0    0  0.10212710926E+03 -0.10422294924E+03 -0.30741408991E+03  0.34028780799E+03  0.00000000000E+00 0.  1.
          5    1    4    4  501    0 -0.43074723453E+02  0.34935686424E+02  0.69507519835E+02  0.89020793638E+02  0.41800000000E+01 0.  1.
         -5    1    4    4    0  501 -0.48307663417E+02  0.37132634713E+02 -0.55346841167E+02  0.82420920480E+02  0.41800000000E+01 0.  1.
</event>
<event>
11    1  0.6455215E-009  0.1288874E+03  0.7561462E-02  0.1120644E+00
         22   -1    0    0    0    0  0.00000000000E+00  0.00000000000E+00  0.24533397475E+03  0.24533397475E+03  0.00000000000E+00 0.  1.
         22   -1    0    0    0    0 -0.00000000000E+00 -0.00000000000E+00 -0.28428568854E+04  0.28428568854E+04  0.00000000000E+00 0. -1.
        -24    2    1    2    0    0  0.11399093822E+02  0.41746706406E+00 -0.26973038069E+04  0.26985148429E+04  0.80027603988E+02 0.  0.
         25    2    1    2    0    0  0.38050997535E+01  0.27084019070E+02 -0.10560775483E+03  0.16597680805E+03  0.12508908848E+03 0.  0.
         24    2    1    2    0    0 -0.15204193575E+02 -0.27501486134E+02  0.20538865106E+03  0.22369920916E+03  0.82881475335E+02 0.  0.
        -11    1    5    5    0    0 -0.71335676215E+01 -0.56176718706E+02  0.10929247070E+03  0.12309165554E+03  0.00000000000E+00 0.  1.
         12    1    5    5    0    0 -0.80706259537E+01  0.28675232572E+02  0.96096180358E+02  0.10060755362E+03  0.00000000000E+00 0. -1.
         11    1    3    3    0    0  0.41149339587E+01 -0.22375945692E+02 -0.24387418937E+04  0.24388480149E+04  0.00000000000E+00 0. -1.
        -12    1    3    3    0    0  0.72841598629E+01  0.22793412756E+02 -0.25856191315E+03  0.25966682803E+03  0.00000000000E+00 0.  1.
          5    1    4    4  501    0 -0.16583738434E+00  0.70710450914E+02 -0.26837216938E+02  0.75747633517E+02  0.41800000000E+01 0. -1.
         -5    1    4    4    0  501  0.39709371378E+01 -0.43626431844E+02 -0.78770537889E+02  0.90229174530E+02  0.41800000000E+01 0. -1.
</event>
<event>
11    1  0.6455215E-009  0.1492277E+03  0.7561462E-02  0.1097671E+00
         22   -1    0    0    0    0  0.00000000000E+00  0.00000000000E+00  0.11130504921E+04  0.11130504921E+04  0.00000000000E+00 0.  1.
         22   -1    0    0    0    0 -0.00000000000E+00 -0.00000000000E+00 -0.52966033813E+03  0.52966033813E+03  0.00000000000E+00 0. -1.
         24    2    1    2    0    0 -0.34533494962E+02 -0.71812206502E+02 -0.47733233640E+03  0.49053387030E+03  0.80173332609E+02 0.  0.
         25    2    1    2    0    0  0.96369327202E+02  0.10246580481E+03  0.16549231136E+03  0.25064344786E+03  0.12509254357E+03 0.  0.
        -24    2    1    2    0    0 -0.61835832240E+02 -0.30653598309E+02  0.89523017898E+03  0.90153351204E+03  0.81007942453E+02 0.  0.
        -13    1    3    3    0    0  0.15844058731E+02  0.51454588925E+01 -0.35303236633E+02  0.39036245479E+02  0.00000000000E+00 0.  1.
         14    1    3    3    0    0 -0.50377553693E+02 -0.76957665395E+02 -0.44202909977E+03  0.45149762482E+03  0.00000000000E+00 0. -1.
         11    1    5    5    0    0 -0.16088715940E+02 -0.24231855684E+02  0.82243897441E+02  0.87235819918E+02  0.00000000000E+00 0. -1.
        -12    1    5    5    0    0 -0.45747116299E+02 -0.64217426252E+01  0.81298628154E+03  0.81429769213E+03  0.00000000000E+00 0.  1.
          5    1    4    4  501    0 -0.26630063726E+02  0.44489841796E+02  0.40957942937E+02  0.66208245761E+02  0.41800000000E+01 0.  1.
         -5    1    4    4    0  501  0.12299939093E+03  0.57975963015E+02  0.12453436842E+03  0.18443520210E+03  0.41800000000E+01 0.  1.
</event>
<event>
11    1  0.6455215E-009  0.1508335E+03  0.7561462E-02  0.1096030E+00
         22   -1    0    0    0    0  0.00000000000E+00  0.00000000000E+00  0.71270157182E+03  0.71270157182E+03  0.00000000000E+00 0. -1.
         22   -1    0    0    0    0 -0.00000000000E+00 -0.00000000000E+00 -0.44329044576E+03  0.44329044576E+03  0.00000000000E+00 0.  1.
         24    2    1    2    0    0 -0.44991632469E+02 -0.24625799892E+02 -0.34757428080E+03  0.36053424639E+03  0.80909734490E+02 0.  0.
         25    2    1    2    0    0  0.81855819622E+02 -0.51234700868E+02 -0.94085393933E+01  0.15832418393E+03  0.12511057838E+03 0.  0.
        -24    2    1    2    0    0 -0.36864187154E+02  0.75860500760E+02  0.62639394625E+03  0.63713358726E+03  0.80349537911E+02 0.  0.
        -11    1    3    3    0    0 -0.45155468843E+02 -0.16291180816E+02 -0.34881805361E+03  0.35210574188E+03  0.00000000000E+00 0.  1.
         12    1    3    3    0    0  0.16383637404E+00 -0.83346190765E+01  0.12437728122E+01  0.84285045124E+01  0.00000000000E+00 0. -1.
         13    1    5    5    0    0  0.17692946725E+02  0.54817583880E+02  0.33765440871E+03  0.34253249128E+03  0.00000000000E+00 0. -1.
        -14    1    5    5    0    0 -0.54557133879E+02  0.21042916880E+02  0.28873953754E+03  0.29460109597E+03  0.00000000000E+00 0.  1.
          5    1    4    4  501    0  0.40205333591E+02 -0.76055912794E+02  0.34495264320E+02  0.92781282491E+02  0.41800000000E+01 0.  1.
         -5    1    4    4    0  501  0.41650486031E+02  0.24821211926E+02 -0.43903803714E+02  0.65542901436E+02  0.41800000000E+01 0.  1.
</event>
<event>
11    1  0.6455215E-009  0.1384242E+03  0.7561462E-02  0.1109331E+00
         22   -1    0    0    0    0  0.00000000000E+00  0.00000000000E+00  0.54975211231E+03  0.54975211231E+03  0.00000000000E+00 0.  1.
         22   -1    0    0    0    0 -0.00000000000E+00 -0.00000000000E+00 -0.64807931785E+03  0.64807931785E+03  0.00000000000E+00 0.  1.
        -24    2    1    2    0    0  0.17150109845E+02 -0.10226842774E+02 -0.59192258834E+03  0.59700093570E+03  0.75093621951E+02 0.  0.
         25    2    1    2    0    0 -0.31292290575E+02  0.66257635715E+02  0.61523622012E+02  0.15748112312E+03  0.12508343749E+03 0.  0.
         24    2    1    2    0    0  0.14142180730E+02 -0.56030792941E+02  0.43207176079E+03  0.44334937134E+03  0.80828259688E+02 0.  0.
        -11    1    5    5    0    0  0.22658462605E+02 -0.67705995462E+02  0.23154809991E+03  0.24230565474E+03  0.00000000000E+00 0.  1.
         12    1    5    5    0    0 -0.85162818758E+01  0.11675202521E+02  0.20052366088E+03  0.20104371660E+03  0.00000000000E+00 0. -1.
         11    1    3    3    0    0 -0.18355769320E+02 -0.11319126921E+02 -0.57694195283E+02  0.61592832951E+02  0.00000000000E+00 0. -1.
        -12    1    3    3    0    0  0.35505879165E+02  0.10922841473E+01 -0.53422839306E+03  0.53540810275E+03  0.00000000000E+00 0.  1.
          5    1    4    4  501    0 -0.53666432052E+02 -0.13880085970E+01 -0.11834058476E+02  0.55131931193E+02  0.41800000000E+01 0.  1.
         -5    1    4    4    0  501  0.22374141477E+02  0.67645644312E+02  0.73357680488E+02  0.10234919193E+03  0.41800000000E+01 0.  1.
</event>
<event>
11    1  0.6455215E-009  0.1313711E+03  0.7561462E-02  0.1117596E+00
         22   -1    0    0    0    0  0.00000000000E+00  0.00000000000E+00  0.19555158948E+03  0.19555158948E+03  0.00000000000E+00 0. -1.
         22   -1    0    0    0    0 -0.00000000000E+00 -0.00000000000E+00 -0.72332902328E+03  0.72332902328E+03  0.00000000000E+00 0.  1.
         24    2    1    2    0    0  0.39231680969E+02  0.87056191367E+01 -0.65634393235E+03  0.66216419647E+03  0.77840561107E+02 0.  0.
         25    2    1    2    0    0 -0.33189830376E+02 -0.29445838876E+02  0.46508708800E+02  0.14063471321E+03  0.12508573180E+03 0.  0.
        -24    2    1    2    0    0 -0.60418505925E+01  0.20740219739E+02  0.82057789751E+02  0.11608170308E+03  0.79213763054E+02 0.  0.
        -11    1    3    3    0    0  0.60850512037E+02  0.17859513153E+02 -0.43921140609E+03  0.44376616169E+03  0.00000000000E+00 0.  1.
         12    1    3    3    0    0 -0.21618831068E+02 -0.91538940159E+01 -0.21713252626E+03  0.21839803478E+03  0.00000000000E+00 0. -1.
         11    1    5    5    0    0  0.28686988631E+02  0.99671618284E+01  0.72321936040E+02  0.78439467516E+02  0.00000000000E+00 0. -1.
        -12    1    5    5    0    0 -0.34728839223E+02  0.10773057911E+02  0.97358537104E+01  0.37642235561E+02  0.00000000000E+00 0.  1.
          5    1    4    4  501    0 -0.58497573727E+02  0.18665331395E+02 -0.97253783001E+01  0.62309037154E+02  0.41800000000E+01 0.  1.
         -5    1    4    4    0  501  0.25307743351E+02 -0.48111170271E+02  0.56234087100E+02  0.78325676060E+02  0.41800000000E+01 0.  1.
</event>
<event>
11    1  0.6455215E-009  0.1685993E+03  0.7561462E-02  0.1079257E+00
         22   -1    0    0    0    0  0.00000000000E+00  0.00000000000E+00  0.24248864938E+04  0.24248864938E+04  0.00000000000E+00 0.  1.
         22   -1    0    0    0    0 -0.00000000000E+00 -0.00000000000E+00 -0.11667685659E+04  0.11667685659E+04  0.00000000000E+00 0.  1.
         24    2    1    2    0    0  0.20917777136E+02 -0.11088642866E+03 -0.11334176282E+04  0.11418654335E+04  0.80546849632E+02 0.  0.
         25    2    1    2    0    0 -0.62675163017E+01  0.12847541978E+03  0.25672079143E+03  0.31320125018E+03  0.12507694876E+03 0.  0.
        -24    2    1    2    0    0 -0.14650260834E+02 -0.17588991122E+02  0.21348147646E+04  0.21365883759E+04  0.83975033503E+02 0.  0.
        -13    1    3    3    0    0  0.13299456162E+02 -0.10700195755E+03 -0.11239393888E+04  0.11290996609E+04  0.00000000000E+00 0.  1.
         14    1    3    3    0    0  0.76183209739E+01 -0.38844711122E+01 -0.94782393534E+01  0.12765772657E+02  0.00000000000E+00 0. -1.
         11    1    5    5    0    0 -0.13688892661E+02 -0.22337842869E+02  0.19327166349E+03  0.19503922917E+03  0.00000000000E+00 0. -1.
        -12    1    5    5    0    0 -0.96136817253E+00  0.47488517474E+01  0.19415431011E+04  0.19415491468E+04  0.00000000000E+00 0.  1.
          5    1    4    4  501    0  0.33658178747E+02  0.10693055475E+03  0.10098692778E+03  0.15093988379E+03  0.41800000000E+01 0.  1.
         -5    1    4    4    0  501 -0.39925695048E+02  0.21544865029E+02  0.15573386365E+03  0.16226136639E+03  0.41800000000E+01 0.  1.
</event>
<event>
11    1  0.6455215E-009  0.1523125E+03  0.7561462E-02  0.1094539E+00
         22   -1    0    0    0    0  0.00000000000E+00  0.00000000000E+00  0.13653631825E+04  0.13653631825E+04  0.00000000000E+00 0.  1.
         22   -1    0    0    0    0 -0.00000000000E+00 -0.00000000000E+00 -0.26897120143E+02  0.26897120143E+02  0.00000000000E+00 0. -1.
        -24    2    1    2    0    0 -0.50354536959E+02  0.70396975062E+02  0.27779357858E+03  0.30186705851E+03  0.80393626735E+02 0.  0.
         25    2    1    2    0    0  0.70167272154E+02 -0.55965542126E+02  0.53133948306E+03  0.55319512137E+03  0.12509039958E+03 0.  0.
         24    2    1    2    0    0 -0.19812735195E+02 -0.14431432936E+02  0.52933300074E+03  0.53719812278E+03  0.88247304328E+02 0.  0.
        -13    1    5    5    0    0  0.18018485290E+02 -0.40887832189E+02  0.29453193201E+03  0.29790189595E+03  0.00000000000E+00 0.  1.
         14    1    5    5    0    0 -0.37831220484E+02  0.26456399253E+02  0.23480106872E+03  0.23929622684E+03  0.00000000000E+00 0. -1.
         13    1    3    3    0    0 -0.63950376098E+02  0.37544738856E+02  0.23393451276E+03  0.24540703795E+03  0.00000000000E+00 0. -1.
        -14    1    3    3    0    0  0.13595839139E+02  0.32852236207E+02  0.43859065825E+02  0.56460020552E+02  0.00000000000E+00 0.  1.
          5    1    4    4  501    0  0.87862698725E+02 -0.17088085656E+02  0.46916654695E+03  0.47764691738E+03  0.41800000000E+01 0.  1.
         -5    1    4    4    0  501 -0.17695426571E+02 -0.38877456471E+02  0.62172936106E+02  0.75548203997E+02  0.41800000000E+01 0.  1.
</event>
<event>
11    1  0.6455215E-009  0.1509008E+03  0.7561462E-02  0.1095962E+00
         22   -1    0    0    0    0  0.00000000000E+00  0.00000000000E+00  0.33091987173E+03  0.33091987173E+03  0.00000000000E+00 0.  1.
         22   -1    0    0    0    0 -0.00000000000E+00 -0.00000000000E+00 -0.35521413487E+03  0.35521413487E+03  0.00000000000E+00 0. -1.
        -24    2    1    2    0    0 -0.49840174622E+02 -0.53532986690E+02 -0.17477768291E+03  0.20937185441E+03  0.89103935424E+02 0.  0.
         25    2    1    2    0    0  0.10947392271E+03  0.53748713401E+02 -0.10410126738E+03  0.20335144330E+03  0.12506506978E+03 0.  0.
         24    2    1    2    0    0 -0.59633748089E+02 -0.21572671092E+00  0.25458468714E+03  0.27341070889E+03  0.79898825774E+02 0.  0.
        -11    1    5    5    0    0 -0.34121637540E+02 -0.22446150829E+02  0.22433419911E+03  0.22802181634E+03  0.00000000000E+00 0.  1.
         12    1    5    5    0    0 -0.25512110550E+02  0.22230424118E+02  0.30250488034E+02  0.45388892556E+02  0.00000000000E+00 0. -1.
         13    1    3    3    0    0 -0.66907734675E+02 -0.90108963872E+01 -0.98423670311E+02  0.11935267107E+03  0.00000000000E+00 0. -1.
        -14    1    3    3    0    0  0.17067560054E+02 -0.44522090302E+02 -0.76354012597E+02  0.90019183349E+02  0.00000000000E+00 0.  1.
          5    1    4    4  501    0 -0.21850180823E+02  0.18575835856E+02  0.44585968337E+01  0.29323089289E+02  0.41800000000E+01 0.  1.
         -5    1    4    4    0  501  0.13132410353E+03  0.35172877545E+02 -0.10855986421E+03  0.17402835401E+03  0.41800000000E+01 0.  1.
</event>
<event>
11    1  0.6455215E-009  0.1285289E+03  0.7561462E-02  0.1121090E+00
         22   -1    0    0    0    0  0.00000000000E+00  0.00000000000E+00  0.35393540163E+03  0.35393540163E+03  0.00000000000E+00 0. -1.
         22   -1    0    0    0    0 -0.00000000000E+00 -0.00000000000E+00 -0.11087430264E+04  0.11087430264E+04  0.00000000000E+00 0.  1.
        -24    2    1    2    0    0  0.12390217540E+02  0.69289239578E+01 -0.94881065730E+03  0.95210507786E+03  0.77851707701E+02 0.  0.
         25    2    1    2    0    0  0.16776218695E+02  0.42518954939E+00 -0.12561937468E+03  0.17807297090E+03  0.12509249926E+03 0.  0.
         24    2    1    2    0    0 -0.29166436234E+02 -0.73541135072E+01  0.31962240723E+03  0.33250037925E+03  0.86563589395E+02 0.  0.
        -13    1    5    5    0    0  0.14081941393E+02  0.19876094824E+02  0.31188699666E+02  0.39573920777E+02  0.00000000000E+00 0.  1.
         14    1    5    5    0    0 -0.43248377627E+02 -0.27230208332E+02  0.28843370757E+03  0.29292645847E+03  0.00000000000E+00 0. -1.
         11    1    3    3    0    0 -0.28536218345E+02 -0.68337990451E+01 -0.21080986171E+03  0.21284222880E+03  0.00000000000E+00 0. -1.
        -12    1    3    3    0    0  0.40926435885E+02  0.13762723003E+02 -0.73800079559E+03  0.73926284906E+03  0.00000000000E+00 0.  1.
          5    1    4    4  501    0 -0.46257316361E+02  0.14533515055E+02 -0.16850499942E+02  0.51501205084E+02  0.41800000000E+01 0.  1.
         -5    1    4    4    0  501  0.63033535056E+02 -0.14108325506E+02 -0.10876887474E+03  0.12657176582E+03  0.41800000000E+01 0.  1.
</event>
<event>
11    1  0.6455215E-009  0.1479319E+03  0.7561462E-02  0.1099011E+00
         22   -1    0    0    0    0  0.00000000000E+00  0.00000000000E+00  0.14188943729E+03  0.14188943729E+03  0.00000000000E+00 0. -1.
         22   -1    0    0    0    0 -0.00000000000E+00 -0.00000000000E+00 -0.11770739857E+04  0.11770739857E+04  0.00000000000E+00 0. -1.
         24    2    1    2    0    0  0.65895641128E+02  0.35200673175E+02 -0.84457525932E+03  0.85178852478E+03  0.81578179505E+02 0.  0.
         25    2    1    2    0    0 -0.75332878261E+02 -0.80285369170E+02 -0.28824496310E+03  0.33294696509E+03  0.12509092599E+03 0.  0.
        -24    2    1    2    0    0  0.94372371333E+01  0.45084695995E+02  0.97635673998E+02  0.13422793314E+03  0.79766671860E+02 0.  0.
        -11    1    3    3    0    0  0.35602386482E+02 -0.44886644279E+01 -0.11411944164E+03  0.11962827839E+03  0.00000000000E+00 0.  1.
         12    1    3    3    0    0  0.30293254647E+02  0.39689337603E+02 -0.73045581769E+03  0.73216024639E+03  0.00000000000E+00 0. -1.
         13    1    5    5    0    0  0.22466892601E+01  0.62971693773E+02  0.96063820595E+02  0.11488576699E+03  0.00000000000E+00 0. -1.
        -14    1    5    5    0    0  0.71905478732E+01 -0.17886997778E+02  0.15718534036E+01  0.19342166149E+02  0.00000000000E+00 0.  1.
          5    1    4    4  501    0 -0.44203298838E+02 -0.62956563360E+02 -0.49608391413E+02  0.91629282420E+02  0.41800000000E+01 0.  1.
         -5    1    4    4    0  501 -0.31129579423E+02 -0.17328805810E+02 -0.23863657169E+03  0.24131768267E+03  0.41800000000E+01 0.  1.
</event>
<event>
11    1  0.6455215E-009  0.1395186E+03  0.7561462E-02  0.1108097E+00
         22   -1    0    0    0    0  0.00000000000E+00  0.00000000000E+00  0.14062419194E+04  0.14062419194E+04  0.00000000000E+00 0. -1.
         22   -1    0    0    0    0 -0.00000000000E+00 -0.00000000000E+00 -0.61762663712E+03  0.61762663712E+03  0.00000000000E+00 0. -1.
         24    2    1    2    0    0  0.58832773175E+02  0.18390067058E+02 -0.57046009675E+03  0.57955579050E+03  0.81613127327E+02 0.  0.
         25    2    1    2    0    0 -0.69286721969E+02  0.16296825439E+01  0.82798411366E+02  0.16524745590E+03  0.12509132285E+03 0.  0.
        -24    2    1    2    0    0  0.10453948794E+02 -0.20019749602E+02  0.12762769676E+04  0.12790653101E+04  0.81333227759E+02 0.  0.
        -11    1    3    3    0    0 -0.11309844624E+02 -0.19321736509E+02 -0.14270199645E+03  0.14444757485E+03  0.00000000000E+00 0.  1.
         12    1    3    3    0    0  0.70142617799E+02  0.37711803567E+02 -0.42775810030E+03  0.43510821566E+03  0.00000000000E+00 0. -1.
         11    1    5    5    0    0  0.45671351621E+02 -0.14363547018E+02  0.63911098845E+03  0.64090173927E+03  0.00000000000E+00 0. -1.
        -12    1    5    5    0    0 -0.35217402826E+02 -0.56562025840E+01  0.63716597920E+03  0.63816357083E+03  0.00000000000E+00 0.  1.
          5    1    4    4  501    0 -0.71236221427E+02 -0.38432494831E+02  0.95224273680E+01  0.81607627861E+02  0.41800000000E+01 0. -1.
         -5    1    4    4    0  501  0.19494994572E+01  0.40062177375E+02  0.73275983998E+02  0.83639828043E+02  0.41800000000E+01 0. -1.
</event>
<event>
11    1  0.6455215E-009  0.1262286E+03  0.7561462E-02  0.1123992E+00
         22   -1    0    0    0    0  0.00000000000E+00  0.00000000000E+00  0.65053042258E+03  0.65053042258E+03  0.00000000000E+00 0.  1.
         22   -1    0    0    0    0 -0.00000000000E+00 -0.00000000000E+00 -0.10542031267E+04  0.10542031267E+04  0.00000000000E+00 0.  1.
        -24    2    1    2    0    0 -0.15558886850E+02 -0.73829146567E+01 -0.98826683011E+03  0.99186830797E+03  0.82673009358E+02 0.  0.
         25    2    1    2    0    0 -0.67777324954E+00  0.22215296381E+02  0.45863480537E+01  0.12711943726E+03  0.12507732797E+03 0.  0.
         24    2    1    2    0    0  0.16236660100E+02 -0.14832381724E+02  0.58000777790E+03  0.58574580407E+03  0.78774969893E+02 0.  0.
        -13    1    5    5    0    0  0.13221625909E+02 -0.32554788350E+01  0.56996095794E+03  0.57012358582E+03  0.00000000000E+00 0.  1.
         14    1    5    5    0    0  0.30150341910E+01 -0.11576902889E+02  0.10046819961E+02  0.15622218249E+02  0.00000000000E+00 0. -1.
         13    1    3    3    0    0 -0.22598473247E+01  0.66372369656E+01 -0.54992459042E+01  0.89107536148E+01  0.00000000000E+00 0. -1.
        -14    1    3    3    0    0 -0.13299039526E+02 -0.14020151622E+02 -0.98276758420E+03  0.98295755435E+03  0.00000000000E+00 0.  1.
          5    1    4    4  501    0 -0.59810657220E+02  0.17688113838E+02 -0.15429779706E+02  0.64387379120E+02  0.41800000000E+01 0.  1.
         -5    1    4    4    0  501  0.59132883970E+02  0.45271825433E+01  0.20016127759E+02  0.62732058143E+02  0.41800000000E+01 0.  1.
</event>
<event>
11    1  0.6455215E-009  0.2752549E+03  0.7561462E-02  0.1011244E+00
         22   -1    0    0    0    0  0.00000000000E+00  0.00000000000E+00  0.31572347250E+03  0.31572347250E+03  0.00000000000E+00 0.  1.
         22   -1    0    0    0    0 -0.00000000000E+00 -0.00000000000E+00 -0.73590194665E+03  0.73590194665E+03  0.00000000000E+00 0. -1.
         24    2    1    2    0    0 -0.26337711394E+02  0.26004773521E+03 -0.22752249431E+03  0.35587216228E+03  0.80993893822E+02 0.  0.
         25    2    1    2    0    0  0.25678297576E+03 -0.14331754862E+03 -0.26542674929E+03  0.41543255061E+03  0.12512165473E+03 0.  0.
        -24    2    1    2    0    0 -0.23044526437E+03 -0.11673018659E+03  0.72770769449E+02  0.28032070627E+03  0.80951572838E+02 0.  0.
        -11    1    3    3    0    0 -0.30222285583E+02  0.10983403102E+03 -0.14514178270E+03  0.18450755541E+03  0.00000000000E+00 0.  1.
         12    1    3    3    0    0  0.38845741888E+01  0.15021370419E+03 -0.82380711613E+02  0.17136460687E+03  0.00000000000E+00 0. -1.
         11    1    5    5    0    0 -0.33818161561E+02  0.10624466583E+02  0.16136759732E+01  0.35484521860E+02  0.00000000000E+00 0. -1.
        -12    1    5    5    0    0 -0.19662710281E+03 -0.12735465317E+03  0.71157093476E+02  0.24483618441E+03  0.00000000000E+00 0.  1.
          5    1    4    4  501    0 -0.11413507878E+02 -0.94415516628E+01 -0.55785253930E+00  0.15401125262E+02  0.41800000000E+01 0.  1.
         -5    1    4    4    0  501  0.26819648364E+03 -0.13387599696E+03 -0.26486889675E+03  0.40003142535E+03  0.41800000000E+01 0.  1.
</event>
<event>
11    1  0.6455215E-009  0.1346197E+03  0.7561462E-02  0.1113720E+00
         22   -1    0    0    0    0  0.00000000000E+00  0.00000000000E+00  0.99320777347E+02  0.99320777347E+02  0.00000000000E+00 0.  1.
         22   -1    0    0    0    0 -0.00000000000E+00 -0.00000000000E+00 -0.19740760063E+04  0.19740760063E+04  0.00000000000E+00 0.  1.
        -24    2    1    2    0    0 -0.36911240222E+02 -0.22730138525E+01 -0.18132485029E+04  0.18153365337E+04  0.78797149832E+02 0.  0.
         25    2    1    2    0    0  0.15508878268E+02  0.49783285253E+02 -0.86176458527E+02  0.16059952222E+03  0.12508766421E+03 0.  0.
         24    2    1    2    0    0  0.21402361954E+02 -0.47510271400E+02  0.24669732471E+02  0.97460727795E+02  0.78579327920E+02 0.  0.
        -11    1    5    5    0    0  0.38268795765E+02 -0.50271100498E+02  0.39769891809E+02  0.74654729048E+02  0.00000000000E+00 0.  1.
         12    1    5    5    0    0 -0.16866433811E+02  0.27608290984E+01 -0.15100159338E+02  0.22805998747E+02  0.00000000000E+00 0. -1.
         13    1    3    3    0    0 -0.27609492448E+02 -0.39520009707E+02 -0.10993097574E+04  0.11003663290E+04  0.00000000000E+00 0. -1.
        -14    1    3    3    0    0 -0.93017477737E+01  0.37246995854E+02 -0.71393874551E+03  0.71497020466E+03  0.00000000000E+00 0.  1.
          5    1    4    4  501    0 -0.35791925669E+02  0.46922062626E+02 -0.91302464598E+02  0.10879501067E+03  0.41800000000E+01 0.  1.
         -5    1    4    4    0  501  0.51300803937E+02  0.28612226267E+01  0.51260060708E+01  0.51804511558E+02  0.41800000000E+01 0.  1.
</event>
<event>
11    1  0.6455215E-009  0.1261792E+03  0.7561462E-02  0.1124055E+00
         22   -1    0    0    0    0  0.00000000000E+00  0.00000000000E+00  0.19776070853E+03  0.19776070853E+03  0.00000000000E+00 0. -1.
         22   -1    0    0    0    0 -0.00000000000E+00 -0.00000000000E+00 -0.42730487728E+03  0.42730487728E+03  0.00000000000E+00 0.  1.
        -24    2    1    2    0    0  0.36984343260E+01  0.14972102964E+02 -0.21273158414E+03  0.22837884287E+03  0.81635327486E+02 0.  0.
         25    2    1    2    0    0  0.84653687478E+01 -0.20954979359E+02 -0.17633979408E+03  0.21737345965E+03  0.12507887254E+03 0.  0.
         24    2    1    2    0    0 -0.12163803074E+02  0.59828763958E+01  0.15952720947E+03  0.17931328329E+03  0.80750046986E+02 0.  0.
        -13    1    5    5    0    0  0.25262843029E+02  0.10703299009E+02  0.17926650497E+02  0.32774023946E+02  0.00000000000E+00 0.  1.
         14    1    5    5    0    0 -0.37426646102E+02 -0.47204226128E+01  0.14160055897E+03  0.14653925935E+03  0.00000000000E+00 0. -1.
         11    1    3    3    0    0 -0.18776064121E+02  0.43131682930E+02 -0.12216041173E+03  0.13090473196E+03  0.00000000000E+00 0. -1.
        -12    1    3    3    0    0  0.22474498447E+02 -0.28159579966E+02 -0.90571172413E+02  0.97474110904E+02  0.00000000000E+00 0.  1.
          5    1    4    4  501    0  0.24750342248E+02 -0.11348218413E+02 -0.19106879288E+03  0.19304434080E+03  0.41800000000E+01 0.  1.
         -5    1    4    4    0  501 -0.16284973501E+02 -0.96067609469E+01  0.14728998808E+02  0.24329118843E+02  0.41800000000E+01 0.  1.
</event>
<event>
11    1  0.6455215E-009  0.2642658E+03  0.7561462E-02  0.1016563E+00
         22   -1    0    0    0    0  0.00000000000E+00  0.00000000000E+00  0.59069375548E+03  0.59069375548E+03  0.00000000000E+00 0.  1.
         22   -1    0    0    0    0 -0.00000000000E+00 -0.00000000000E+00 -0.32038370911E+04  0.32038370911E+04  0.00000000000E+00 0. -1.
         24    2    1    2    0    0 -0.32067915068E+02  0.35631639053E+02 -0.28991162156E+04  0.29006759672E+04  0.82147853841E+02 0.  0.
         25    2    1    2    0    0 -0.20797645862E+02 -0.25958448597E+03 -0.19847382789E+03  0.35050794221E+03  0.12508920723E+03 0.  0.
        -24    2    1    2    0    0  0.52865560930E+02  0.22395284692E+03  0.48444670787E+03  0.54334693723E+03  0.87107039074E+02 0.  0.
        -11    1    3    3    0    0 -0.41699312866E+01 -0.55117801558E+01 -0.20560523929E+02  0.21691085535E+02  0.00000000000E+00 0.  1.
         12    1    3    3    0    0 -0.27897983781E+02  0.41143419209E+02 -0.28785556917E+04  0.28789848816E+04  0.00000000000E+00 0. -1.
         11    1    5    5    0    0  0.41943499587E+02  0.69842908168E+02  0.24676141729E+03  0.25986243676E+03  0.00000000000E+00 0. -1.
        -12    1    5    5    0    0  0.10922061342E+02  0.15410993875E+03  0.23768529058E+03  0.28348450046E+03  0.00000000000E+00 0.  1.
          5    1    4    4  501    0  0.68280954308E+01 -0.87360886605E+02 -0.20045232388E+01  0.87749859881E+02  0.41800000000E+01 0. -1.
         -5    1    4    4    0  501 -0.27625741293E+02 -0.17222359936E+03 -0.19646930465E+03  0.26275808233E+03  0.41800000000E+01 0. -1.
</event>
<event>
11    1  0.6455215E-009  0.1459197E+03  0.7561462E-02  0.1101122E+00
         22   -1    0    0    0    0  0.00000000000E+00  0.00000000000E+00  0.31222618427E+03  0.31222618427E+03  0.00000000000E+00 0.  1.
         22   -1    0    0    0    0 -0.00000000000E+00 -0.00000000000E+00 -0.21861342117E+03  0.21861342117E+03  0.00000000000E+00 0.  1.
        -24    2    1    2    0    0  0.45191071973E+02  0.62315721447E+02 -0.11552977941E+03  0.16091253638E+03  0.81364809999E+02 0.  0.
         25    2    1    2    0    0 -0.59322419021E+02 -0.41464350938E+02  0.23116100196E+00  0.14451596082E+03  0.12508544159E+03 0.  0.
         24    2    1    2    0    0  0.14131347048E+02 -0.20851370510E+02  0.20891138151E+03  0.22541110825E+03  0.80819105270E+02 0.  0.
        -11    1    5    5    0    0 -0.85515937333E+01  0.83087682855E+00  0.18686326071E+03  0.18706068083E+03  0.00000000000E+00 0.  1.
         12    1    5    5    0    0  0.22682940781E+02 -0.21682247338E+02  0.22048120803E+02  0.38350427417E+02  0.00000000000E+00 0. -1.
         11    1    3    3    0    0 -0.19016859451E+01  0.26130564973E-01  0.11578685493E+02  0.11733842081E+02  0.00000000000E+00 0. -1.
        -12    1    3    3    0    0  0.47092757918E+02  0.62289590882E+02 -0.12710846491E+03  0.14917869430E+03  0.00000000000E+00 0.  1.
          5    1    4    4  501    0  0.62915526263E+01 -0.31788950338E+02  0.51219504298E+02  0.60753855998E+02  0.41800000000E+01 0. -1.
         -5    1    4    4    0  501 -0.65613971647E+02 -0.96754005994E+01 -0.50988343296E+02  0.83762104822E+02  0.41800000000E+01 0. -1.
</event>
<event>
11    1  0.6455215E-009  0.1616886E+03  0.7561462E-02  0.1085500E+00
         22   -1    0    0    0    0  0.00000000000E+00  0.00000000000E+00  0.56294442486E+03  0.56294442486E+03  0.00000000000E+00 0.  1.
         22   -1    0    0    0    0 -0.00000000000E+00 -0.00000000000E+00 -0.10111934884E+03  0.10111934884E+03  0.00000000000E+00 0.  1.
        -24    2    1    2    0    0  0.41818425220E+02  0.38023187829E+02 -0.16421419715E+02  0.10001221928E+03  0.80859368531E+02 0.  0.
         25    2    1    2    0    0  0.16528661091E+02  0.69866189688E+02  0.17017557391E+03  0.22307235402E+03  0.12508824115E+03 0.  0.
         24    2    1    2    0    0 -0.58347086311E+02 -0.10788937752E+03  0.30807092183E+03  0.34097920040E+03  0.79464595661E+02 0.  0.
        -11    1    5    5    0    0 -0.10031652172E+02 -0.92454786763E+02  0.16822056251E+03  0.19221519007E+03  0.00000000000E+00 0.  1.
         12    1    5    5    0    0 -0.48315434139E+02 -0.15434590754E+02  0.13985035932E+03  0.14876401033E+03  0.00000000000E+00 0. -1.
         11    1    3    3    0    0  0.61771369786E+02  0.14534944401E+02  0.30941945789E+01  0.63533776640E+02  0.00000000000E+00 0. -1.
        -12    1    3    3    0    0 -0.19952944566E+02  0.23488243428E+02 -0.19515614294E+02  0.36478442640E+02  0.00000000000E+00 0.  1.
          5    1    4    4  501    0 -0.27487644197E+02 -0.21953266017E+02  0.77968531774E+02  0.85639248125E+02  0.41800000000E+01 0. -1.
         -5    1    4    4    0  501  0.44016305288E+02  0.91819455705E+02  0.92207042136E+02  0.13743310590E+03  0.41800000000E+01 0. -1.
</event>
<event>
11    1  0.6455215E-009  0.1583673E+03  0.7561462E-02  0.1088623E+00
         22   -1    0    0    0    0  0.00000000000E+00  0.00000000000E+00  0.35173653158E+03  0.35173653158E+03  0.00000000000E+00 0. -1.
         22   -1    0    0    0    0 -0.00000000000E+00 -0.00000000000E+00 -0.51131793115E+03  0.51131793115E+03  0.00000000000E+00 0.  1.
        -24    2    1    2    0    0 -0.48980693285E+02 -0.75782934804E+02 -0.34374029710E+03  0.36404910758E+03  0.78944280099E+02 0.  0.
         25    2    1    2    0    0  0.27236179313E+02  0.14821602890E+03 -0.80893787120E+02  0.21189861123E+03  0.12508963172E+03 0.  0.
         24    2    1    2    0    0  0.21744513972E+02 -0.72433094094E+02  0.26505268466E+03  0.28710674391E+03  0.80361556416E+02 0.  0.
        -11    1    5    5    0    0  0.50047110556E+02 -0.27130030523E+02  0.13826174520E+03  0.14952278093E+03  0.00000000000E+00 0.  1.
         12    1    5    5    0    0 -0.28302596584E+02 -0.45303063571E+02  0.12679093945E+03  0.13758396298E+03  0.00000000000E+00 0. -1.
         13    1    3    3    0    0 -0.22234774784E+01  0.15384655362E+02 -0.27065163289E+02  0.31211448806E+02  0.00000000000E+00 0. -1.
        -14    1    3    3    0    0 -0.46757215807E+02 -0.91167590166E+02 -0.31667513381E+03  0.33283765878E+03  0.00000000000E+00 0.  1.
          5    1    4    4  501    0 -0.21192330404E+02  0.14557432706E+03 -0.60426825028E+02  0.15909077016E+03  0.41800000000E+01 0.  1.
         -5    1    4    4    0  501  0.48428509717E+02  0.26417018415E+01 -0.20466962092E+02  0.52807841078E+02  0.41800000000E+01 0.  1.
</event>
<event>
11    1  0.6455215E-009  0.1552874E+03  0.7561462E-02  0.1091595E+00
         22   -1    0    0    0    0  0.00000000000E+00  0.00000000000E+00  0.23877561645E+03  0.23877561645E+03  0.00000000000E+00 0. -1.
         22   -1    0    0    0    0 -0.00000000000E+00 -0.00000000000E+00 -0.13769208577E+04  0.13769208577E+04  0.00000000000E+00 0.  1.
        -24    2    1    2    0    0 -0.68368006915E+02 -0.65123910833E+02 -0.12893813294E+04  0.12953516008E+04  0.80723287436E+02 0.  0.
         25    2    1    2    0    0  0.57094089385E+02 -0.12370055300E+02  0.73010539212E+01  0.13825279485E+03  0.12509107316E+03 0.  0.
         24    2    1    2    0    0  0.11273917530E+02  0.77493966133E+02  0.14393503423E+03  0.18209207844E+03  0.79421753636E+02 0.  0.
        -13    1    5    5    0    0  0.10074398255E+02  0.28299232068E+02  0.65078928467E-01  0.30039045775E+02  0.00000000000E+00 0.  1.
         14    1    5    5    0    0  0.11995192753E+01  0.49194734066E+02  0.14386995530E+03  0.15205303267E+03  0.00000000000E+00 0. -1.
         13    1    3    3    0    0 -0.89519163349E+00 -0.20983210461E+02 -0.64795159533E+02  0.68113942686E+02  0.00000000000E+00 0. -1.
        -14    1    3    3    0    0 -0.67472815281E+02 -0.44140700373E+02 -0.12245861698E+04  0.12272376582E+04  0.00000000000E+00 0.  1.
          5    1    4    4  501    0 -0.35689646832E+02  0.10667566607E+02  0.18690518874E+02  0.41885030311E+02  0.41800000000E+01 0.  1.
         -5    1    4    4    0  501  0.92783736217E+02 -0.23037621907E+02 -0.11389464953E+02  0.96367764535E+02  0.41800000000E+01 0.  1.
</event>
<event>
11    1  0.6455215E-009  0.2402900E+03  0.7561462E-02  0.1029203E+00
         22   -1    0    0    0    0  0.00000000000E+00  0.00000000000E+00  0.20679090154E+03  0.20679090154E+03  0.00000000000E+00 0. -1.
         22   -1    0    0    0    0 -0.00000000000E+00 -0.00000000000E+00 -0.98461497358E+03  0.98461497358E+03  0.00000000000E+00 0.  1.
         24    2    1    2    0    0  0.23894150711E+02  0.19555126366E+03 -0.67314344841E+03  0.70605573362E+03  0.81125641339E+02 0.  0.
         25    2    1    2    0    0  0.25848373616E+02 -0.24288462518E+03 -0.20394822522E+03  0.34190824847E+03  0.12508114261E+03 0.  0.
        -24    2    1    2    0    0 -0.49742524327E+02  0.47333361523E+02  0.99267601596E+02  0.14344189302E+03  0.77503252244E+02 0.  0.
        -13    1    3    3    0    0 -0.18734148224E+02  0.13231715876E+03 -0.48418466903E+03  0.50228835596E+03  0.00000000000E+00 0.  1.
         14    1    3    3    0    0  0.42628298935E+02  0.63234104893E+02 -0.18895877938E+03  0.20376737766E+03  0.00000000000E+00 0. -1.
         13    1    5    5    0    0 -0.70348768275E+02  0.42886488658E+02  0.81180858980E+02  0.11566560410E+03  0.00000000000E+00 0. -1.
        -14    1    5    5    0    0  0.20606243948E+02  0.44468728653E+01  0.18086742617E+02  0.27776288924E+02  0.00000000000E+00 0.  1.
          5    1    4    4  501    0  0.56787522473E+02 -0.19814899486E+03 -0.11104250553E+03  0.23417035958E+03  0.41800000000E+01 0. -1.
         -5    1    4    4    0  501 -0.30939148857E+02 -0.44735630324E+02 -0.92905719687E+02  0.10773788889E+03  0.41800000000E+01 0. -1.
</event>
<event>
11    1  0.6455215E-009  0.1574630E+03  0.7561462E-02  0.1089488E+00
         22   -1    0    0    0    0  0.00000000000E+00  0.00000000000E+00  0.24203365546E+03  0.24203365546E+03  0.00000000000E+00 0. -1.
         22   -1    0    0    0    0 -0.00000000000E+00 -0.00000000000E+00 -0.25743764253E+04  0.25743764253E+04  0.00000000000E+00 0. -1.
         24    2    1    2    0    0 -0.54192898874E+02  0.14726435550E+02 -0.24530431044E+04  0.24555329918E+04  0.95226379439E+02 0.  0.
         25    2    1    2    0    0 -0.50398706156E+02  0.36288533594E+01 -0.50722371533E+02  0.14412935358E+03  0.12508922188E+03 0.  0.
        -24    2    1    2    0    0  0.10459160503E+03 -0.18355288909E+02  0.17142270609E+03  0.21674773542E+03  0.79482804245E+02 0.  0.
        -11    1    3    3    0    0 -0.40842119950E+02  0.21817731119E+02 -0.43938473109E+03  0.44181787432E+03  0.00000000000E+00 0.  1.
         12    1    3    3    0    0 -0.13350778924E+02 -0.70912955698E+01 -0.20136583733E+04  0.20137151174E+04  0.00000000000E+00 0. -1.
         13    1    5    5    0    0  0.86655127607E+02 -0.89828157226E+00  0.17101097554E+03  0.19171507976E+03  0.00000000000E+00 0. -1.
        -14    1    5    5    0    0  0.17936477423E+02 -0.17457007337E+02  0.41173055403E+00  0.25032655663E+02  0.00000000000E+00 0.  1.
          5    1    4    4  501    0 -0.63798882552E+02 -0.34766074214E+02  0.73108514365E+01  0.73142998844E+02  0.41800000000E+01 0. -1.
         -5    1    4    4    0  501  0.13400176395E+02  0.38394927574E+02 -0.58033222969E+02  0.70986354738E+02  0.41800000000E+01 0. -1.
</event>
<event>
11    1  0.6455215E-009  0.1647702E+03  0.7561462E-02  0.1082675E+00
         22   -1    0    0    0    0  0.00000000000E+00  0.00000000000E+00  0.36047239696E+03  0.36047239696E+03  0.00000000000E+00 0. -1.
         22   -1    0    0    0    0 -0.00000000000E+00 -0.00000000000E+00 -0.34335722353E+03  0.34335722353E+03  0.00000000000E+00 0. -1.
         24    2    1    2    0    0  0.31428848760E+02 -0.69666670425E+02 -0.21777844372E+03  0.24409891904E+03  0.79470838835E+02 0.  0.
         25    2    1    2    0    0  0.87051890492E+02 -0.37330411460E+02  0.23396221885E+03  0.28170509361E+03  0.12509136124E+03 0.  0.
        -24    2    1    2    0    0 -0.11848073925E+03  0.10699708188E+03  0.93139829200E+00  0.17802560784E+03  0.78779365565E+02 0.  0.
        -13    1    3    3    0    0  0.14043488850E+02  0.12359796220E+02 -0.12894004551E+02  0.22720904362E+02  0.00000000000E+00 0.  1.
         14    1    3    3    0    0  0.17385359910E+02 -0.82026466644E+02 -0.20488443917E+03  0.22137801468E+03  0.00000000000E+00 0. -1.
         11    1    5    5    0    0 -0.12912236729E+03  0.92890771479E+02 -0.56644834263E+01  0.15916459259E+03  0.00000000000E+00 0. -1.
        -12    1    5    5    0    0  0.10641628043E+02  0.14106310406E+02  0.65958817183E+01  0.18861015251E+02  0.00000000000E+00 0.  1.
          5    1    4    4  501    0  0.10270634982E+03 -0.65184908640E+02  0.20482397529E+03  0.23826036150E+03  0.41800000000E+01 0.  1.
         -5    1    4    4    0  501 -0.15654459330E+02  0.27854497180E+02  0.29138243568E+02  0.43444732112E+02  0.41800000000E+01 0.  1.
</event>
<event>
11    1  0.6455215E-009  0.1477425E+03  0.7561462E-02  0.1099208E+00
         22   -1    0    0    0    0  0.00000000000E+00  0.00000000000E+00  0.43250286409E+02  0.43250286409E+02  0.00000000000E+00 0.  1.
         22   -1    0    0    0    0 -0.00000000000E+00 -0.00000000000E+00 -0.18629474990E+04  0.18629474990E+04  0.00000000000E+00 0.  1.
        -24    2    1    2    0    0  0.12125320493E+02 -0.28545503802E+02 -0.11054536576E+04  0.11074993951E+04  0.59709730297E+02 0.  0.
         25    2    1    2    0    0 -0.85706404777E+02  0.17686977339E+01 -0.64963746596E+03  0.66710186188E+03  0.12508933139E+03 0.  0.
         24    2    1    2    0    0  0.73581084284E+02  0.26776806068E+02 -0.64606088993E+02  0.13159652838E+03  0.83740827795E+02 0.  0.
        -11    1    5    5    0    0  0.62027865718E+02 -0.72911860544E+01 -0.58839447447E+01  0.62731477946E+02  0.00000000000E+00 0.  1.
         12    1    5    5    0    0  0.11553218566E+02  0.34067992122E+02 -0.58722144248E+02  0.68865050436E+02  0.00000000000E+00 0. -1.
         13    1    3    3    0    0 -0.12730971673E+02  0.99976598261E+01 -0.13573927215E+03  0.13670106380E+03  0.00000000000E+00 0. -1.
        -14    1    3    3    0    0  0.24856292166E+02 -0.38543163628E+02 -0.96971438544E+03  0.97079833130E+03  0.00000000000E+00 0.  1.
          5    1    4    4  501    0  0.25165568335E+02 -0.25825184286E+02 -0.12578585783E+03  0.13091906050E+03  0.41800000000E+01 0. -1.
         -5    1    4    4    0  501 -0.11087197311E+03  0.27593882019E+02 -0.52385160813E+03  0.53618280138E+03  0.41800000000E+01 0. -1.
</event>
<event>
11    1  0.6455215E-009  0.1337727E+03  0.7561462E-02  0.1114719E+00
         22   -1    0    0    0    0  0.00000000000E+00  0.00000000000E+00  0.10586363466E+04  0.10586363466E+04  0.00000000000E+00 0.  1.
         22   -1    0    0    0    0 -0.00000000000E+00 -0.00000000000E+00 -0.19318721663E+03  0.19318721663E+03  0.00000000000E+00 0. -1.
         24    2    1    2    0    0  0.23743960607E+02  0.47069592921E+02 -0.13632403485E+03  0.16727646723E+03  0.81350179883E+02 0.  0.
         25    2    1    2    0    0  0.16088055240E+02 -0.20330565265E+02  0.64706410633E+02  0.14320453239E+03  0.12509380926E+03 0.  0.
        -24    2    1    2    0    0 -0.39832015848E+02 -0.26739027656E+02  0.93706675420E+03  0.94134256363E+03  0.75697788557E+02 0.  0.
        -11    1    3    3    0    0 -0.20550974483E+02 -0.11445036299E+02 -0.34789521068E+02  0.41995740073E+02  0.00000000000E+00 0.  1.
         12    1    3    3    0    0  0.44294935090E+02  0.58514629220E+02 -0.10153451378E+03  0.12528072715E+03  0.00000000000E+00 0. -1.
         13    1    5    5    0    0  0.15589276116E+02 -0.27518100727E+02  0.23986332034E+03  0.24193942185E+03  0.00000000000E+00 0. -1.
        -14    1    5    5    0    0 -0.55421291964E+02  0.77907307165E+00  0.69720343386E+03  0.69940314179E+03  0.00000000000E+00 0.  1.
          5    1    4    4  501    0 -0.11911670753E+02  0.35699961579E+02 -0.15872564218E+02  0.41058322563E+02  0.41800000000E+01 0.  1.
         -5    1    4    4    0  501  0.27999725993E+02 -0.56030526844E+02  0.80578974852E+02  0.10214620983E+03  0.41800000000E+01 0.  1.
</event>
<event>
11    1  0.6455215E-009  0.1346960E+03  0.7561462E-02  0.1113630E+00
         22   -1    0    0    0    0  0.00000000000E+00  0.00000000000E+00  0.11462930619E+04  0.11462930619E+04  0.00000000000E+00 0.  1.
         22   -1    0    0    0    0 -0.00000000000E+00 -0.00000000000E+00 -0.80074775917E+02  0.80074775917E+02  0.00000000000E+00 0. -1.
         24    2    1    2    0    0 -0.40321218539E+02 -0.24715211160E+02 -0.49133594943E+00  0.96261819531E+02  0.83841840159E+02 0.  0.
         25    2    1    2    0    0  0.57478930574E+02  0.18401187585E+02  0.13151714799E+03  0.19126649530E+03  0.12507470105E+03 0.  0.
        -24    2    1    2    0    0 -0.17157712035E+02  0.63140235753E+01  0.93519247391E+03  0.93883952296E+03  0.80625260548E+02 0.  0.
        -11    1    3    3    0    0  0.13319969142E+02  0.19994414933E+02 -0.95350452463E+01  0.25847926306E+02  0.00000000000E+00 0.  1.
         12    1    3    3    0    0 -0.53641187681E+02 -0.44709626094E+02  0.90437092969E+01  0.70413893225E+02  0.00000000000E+00 0. -1.
         13    1    5    5    0    0  0.87809306756E+01 -0.26966190915E+02  0.15959675117E+03  0.16209689442E+03  0.00000000000E+00 0. -1.
        -14    1    5    5    0    0 -0.25938642710E+02  0.33280214490E+02  0.77559572273E+03  0.77674262854E+03  0.00000000000E+00 0.  1.
          5    1    4    4  501    0 -0.34854187073E+02  0.29295674898E+02  0.40214857122E+02  0.60891362750E+02  0.41800000000E+01 0. -1.
         -5    1    4    4    0  501  0.92333117647E+02 -0.10894487313E+02  0.91302290873E+02  0.13037513255E+03  0.41800000000E+01 0. -1.
</event>
<event>
11    1  0.6455215E-009  0.1453784E+03  0.7561462E-02  0.1101697E+00
         22   -1    0    0    0    0  0.00000000000E+00  0.00000000000E+00  0.49698934684E+03  0.49698934684E+03  0.00000000000E+00 0. -1.
         22   -1    0    0    0    0 -0.00000000000E+00 -0.00000000000E+00 -0.25068314434E+03  0.25068314434E+03  0.00000000000E+00 0.  1.
         24    2    1    2    0    0 -0.29548610584E+02  0.15228849966E+01 -0.12668898179E+03  0.15289967723E+03  0.80329157984E+02 0.  0.
         25    2    1    2    0    0 -0.32892316452E+02  0.41187032171E+02 -0.59641679194E+02  0.14826587574E+03  0.12508942366E+03 0.  0.
        -24    2    1    2    0    0  0.62440927036E+02 -0.42709917168E+02  0.43263686349E+03  0.44650693822E+03  0.80441182501E+02 0.  0.
        -13    1    3    3    0    0  0.11110150819E+02 -0.12611866144E+02 -0.10179670784E+03  0.10317492110E+03  0.00000000000E+00 0.  1.
         14    1    3    3    0    0 -0.40658761403E+02  0.14134751141E+02 -0.24892273956E+02  0.49724756121E+02  0.00000000000E+00 0. -1.
         13    1    5    5    0    0  0.71190468559E+02 -0.50046412371E+02  0.42207605594E+03  0.43095350469E+03  0.00000000000E+00 0. -1.
        -14    1    5    5    0    0 -0.87495415234E+01  0.73364952033E+01  0.10560807544E+02  0.15553433534E+02  0.00000000000E+00 0.  1.
          5    1    4    4  501    0  0.26926938718E+01 -0.42458596456E+02 -0.31215938381E+02  0.52932884130E+02  0.41800000000E+01 0.  1.
         -5    1    4    4    0  501 -0.35585010324E+02  0.83645628627E+02 -0.28425740812E+02  0.95332991608E+02  0.41800000000E+01 0.  1.
</event>
<event>
11    1  0.6455215E-009  0.1665173E+03  0.7561462E-02  0.1081103E+00
         22   -1    0    0    0    0  0.00000000000E+00  0.00000000000E+00  0.27841733444E+03  0.27841733444E+03  0.00000000000E+00 0.  1.
         22   -1    0    0    0    0 -0.00000000000E+00 -0.00000000000E+00 -0.19441057506E+04  0.19441057506E+04  0.00000000000E+00 0.  1.
        -24    2    1    2    0    0 -0.67643938580E+01  0.10908220109E+03 -0.18562140275E+04  0.18611695340E+04  0.80478785351E+02 0.  0.
         25    2    1    2    0    0 -0.99549829456E+00 -0.14056701769E+03  0.48582336687E+02  0.19433989035E+03  0.12509065537E+03 0.  0.
         24    2    1    2    0    0  0.77598921526E+01  0.31484816606E+02  0.14194327465E+03  0.16701366066E+03  0.81817846626E+02 0.  0.
        -13    1    5    5    0    0 -0.30646700350E+02  0.15611702682E+02  0.10803561808E+03  0.11337830602E+03  0.00000000000E+00 0.  1.
         14    1    5    5    0    0  0.38406592502E+02  0.15873113924E+02  0.33907656575E+02  0.53635354643E+02  0.00000000000E+00 0. -1.
         11    1    3    3    0    0 -0.20371486916E+02  0.15248418412E+00 -0.14322047229E+03  0.14466210428E+03  0.00000000000E+00 0. -1.
        -12    1    3    3    0    0  0.13607093058E+02  0.10892971690E+03 -0.17129935552E+04  0.17165074298E+04  0.00000000000E+00 0.  1.
          5    1    4    4  501    0  0.46018202922E+01  0.21872822253E+02  0.17763091211E+02  0.28854755460E+02  0.41800000000E+01 0.  1.
         -5    1    4    4    0  501 -0.55973185867E+01 -0.16243983994E+03  0.30819245476E+02  0.16548513489E+03  0.41800000000E+01 0.  1.
</event>
<event>
11    1  0.6455215E-009  0.2084679E+03  0.7561462E-02  0.1048692E+00
         22   -1    0    0    0    0  0.00000000000E+00  0.00000000000E+00  0.99396455464E+02  0.99396455464E+02  0.00000000000E+00 0. -1.
         22   -1    0    0    0    0 -0.00000000000E+00 -0.00000000000E+00 -0.93111047611E+03  0.93111047611E+03  0.00000000000E+00 0.  1.
        -24    2    1    2    0    0 -0.24535123411E+02  0.62501862867E+02 -0.48291399183E+03  0.49395770176E+03  0.79245394082E+02 0.  0.
         25    2    1    2    0    0  0.12359757291E+03  0.95811333368E+02 -0.13640296976E+03  0.24230348024E+03  0.12509610204E+03 0.  0.
         24    2    1    2    0    0 -0.99062449497E+02 -0.15831319623E+03 -0.21239705907E+03  0.29424574958E+03  0.81188751955E+02 0.  0.
        -11    1    5    5    0    0 -0.97244190687E+02 -0.91075232357E+02 -0.16442520994E+03  0.21162887383E+03  0.00000000000E+00 0.  1.
         12    1    5    5    0    0 -0.18182588094E+01 -0.67237963878E+02 -0.47971849126E+02  0.82616875758E+02  0.00000000000E+00 0. -1.
         13    1    3    3    0    0 -0.46231313326E+02  0.11269450942E+02 -0.25024452570E+03  0.25472859576E+03  0.00000000000E+00 0. -1.
        -14    1    3    3    0    0  0.21696189916E+02  0.51232411925E+02 -0.23266946613E+03  0.23922910600E+03  0.00000000000E+00 0.  1.
          5    1    4    4  501    0 -0.12371928124E+02  0.24088018805E+01  0.13810723784E+02  0.19159212495E+02  0.41800000000E+01 0. -1.
         -5    1    4    4    0  501  0.13596950103E+03  0.93402531488E+02 -0.15021369354E+03  0.22314426774E+03  0.41800000000E+01 0. -1.
</event>
<event>
11    1  0.6455215E-009  0.1945448E+03  0.7561462E-02  0.1058450E+00
         22   -1    0    0    0    0  0.00000000000E+00  0.00000000000E+00  0.16068778560E+04  0.16068778560E+04  0.00000000000E+00 0. -1.
         22   -1    0    0    0    0 -0.00000000000E+00 -0.00000000000E+00 -0.10997234068E+03  0.10997234068E+03  0.00000000000E+00 0.  1.
        -24    2    1    2    0    0  0.72243950064E+00 -0.14264755552E+03  0.14884142698E+02  0.16487242195E+03  0.81317469230E+02 0.  0.
         25    2    1    2    0    0  0.42710289541E+02  0.17340076897E+03  0.32744187139E+03  0.39339226553E+03  0.12508916788E+03 0.  0.
         24    2    1    2    0    0 -0.43432729042E+02 -0.30753213455E+02  0.11545795013E+04  0.11585855093E+04  0.80214683237E+02 0.  0.
        -11    1    5    5    0    0 -0.33479858743E+02 -0.53767024721E+02  0.57779673081E+03  0.58125799437E+03  0.00000000000E+00 0.  1.
         12    1    5    5    0    0 -0.99528702985E+01  0.23013811266E+02  0.57678277046E+03  0.57732751488E+03  0.00000000000E+00 0. -1.
         11    1    3    3    0    0 -0.25362780350E+02 -0.79803931548E+02  0.39406209258E+02  0.92546136849E+02  0.00000000000E+00 0. -1.
        -12    1    3    3    0    0  0.26085219850E+02 -0.62843623971E+02 -0.24522066559E+02  0.72326285103E+02  0.00000000000E+00 0.  1.
          5    1    4    4  501    0  0.26183137032E+02  0.18886117302E+03  0.31202141675E+03  0.36568967206E+03  0.41800000000E+01 0. -1.
         -5    1    4    4    0  501  0.16527152510E+02 -0.15460404047E+02  0.15420454637E+02  0.27702593463E+02  0.41800000000E+01 0. -1.
</event>
<event>
11    1  0.6455215E-009  0.2015264E+03  0.7561462E-02  0.1053450E+00
         22   -1    0    0    0    0  0.00000000000E+00  0.00000000000E+00  0.25527412117E+03  0.25527412117E+03  0.00000000000E+00 0.  1.
         22   -1    0    0    0    0 -0.00000000000E+00 -0.00000000000E+00 -0.30916372166E+04  0.30916372166E+04  0.00000000000E+00 0.  1.
        -24    2    1    2    0    0  0.40819629570E+02  0.17959401649E+02 -0.27337912538E+04  0.27353622314E+04  0.81259679908E+02 0.  0.
         25    2    1    2    0    0 -0.12259553230E+03 -0.14877870805E+03 -0.28007060688E+03  0.36228862549E+03  0.12509490320E+03 0.  0.
         24    2    1    2    0    0  0.81775902728E+02  0.13081930640E+03  0.17749876523E+03  0.24926048086E+03  0.82607423806E+02 0.  0.
        -13    1    5    5    0    0  0.16804824532E+02  0.10292762789E+03  0.10666346457E+03  0.14917638347E+03  0.00000000000E+00 0.  1.
         14    1    5    5    0    0  0.64971078197E+02  0.27891678516E+02  0.70835300656E+02  0.10008409740E+03  0.00000000000E+00 0. -1.
         11    1    3    3    0    0  0.17444314639E+01  0.33548182333E+02 -0.47812922711E+03  0.47930791919E+03  0.00000000000E+00 0. -1.
        -12    1    3    3    0    0  0.39075198106E+02 -0.15588780684E+02 -0.22556620266E+04  0.22560543122E+04  0.00000000000E+00 0.  1.
          5    1    4    4  501    0 -0.69049568629E+02 -0.15904875674E+03 -0.19310266814E+03  0.25955820694E+03  0.41800000000E+01 0. -1.
         -5    1    4    4    0  501 -0.53545963669E+02  0.10270048684E+02 -0.86967938741E+02  0.10273041854E+03  0.41800000000E+01 0. -1.
</event>
<event>
11    1  0.6455215E-009  0.2740423E+03  0.7561462E-02  0.1011818E+00
         22   -1    0    0    0    0  0.00000000000E+00  0.00000000000E+00  0.50023752071E+03  0.50023752071E+03  0.00000000000E+00 0.  1.
         22   -1    0    0    0    0 -0.00000000000E+00 -0.00000000000E+00 -0.84041073413E+03  0.84041073413E+03  0.00000000000E+00 0. -1.
         24    2    1    2    0    0 -0.12266743219E+03 -0.65152875152E+02 -0.46298834606E+03  0.49002388408E+03  0.80454970729E+02 0.  0.
         25    2    1    2    0    0  0.25586270376E+03  0.25285823280E+03 -0.21223506338E+03  0.43599755975E+03  0.12508853229E+03 0.  0.
        -24    2    1    2    0    0 -0.13319527156E+03 -0.18770535765E+03  0.33505019603E+03  0.41462681101E+03  0.81746418249E+02 0.  0.
        -11    1    3    3    0    0 -0.83754072622E+02  0.95042009846E+00 -0.24773484854E+03  0.26151138247E+03  0.00000000000E+00 0.  1.
         12    1    3    3    0    0 -0.38913359571E+02 -0.66103295250E+02 -0.21525349752E+03  0.22851250161E+03  0.00000000000E+00 0. -1.
         11    1    5    5    0    0  0.29544647760E+01 -0.36128288215E+02  0.26608280266E+02  0.44966461392E+02  0.00000000000E+00 0. -1.
        -12    1    5    5    0    0 -0.13614973634E+03 -0.15157706943E+03  0.30844191576E+03  0.36966034962E+03  0.00000000000E+00 0.  1.
          5    1    4    4  501    0  0.38349138807E+02  0.10278929944E+03 -0.26424054141E+02  0.11292475178E+03  0.41800000000E+01 0. -1.
         -5    1    4    4    0  501  0.21751356495E+03  0.15006893336E+03 -0.18581100924E+03  0.32307280797E+03  0.41800000000E+01 0. -1.
</event>
<event>
11    1  0.6455215E-009  0.3349405E+03  0.7561462E-02  0.9863999E-01
         22   -1    0    0    0    0  0.00000000000E+00  0.00000000000E+00  0.71507998990E+03  0.71507998990E+03  0.00000000000E+00 0.  1.
         22   -1    0    0    0    0 -0.00000000000E+00 -0.00000000000E+00 -0.60452140424E+03  0.60452140424E+03  0.00000000000E+00 0.  1.
        -24    2    1    2    0    0 -0.93655212916E+02  0.19842117566E+03 -0.53943415059E+03  0.58838616075E+03  0.84064317511E+02 0.  0.
         25    2    1    2    0    0  0.89970745495E+02 -0.48052164699E+02  0.27138044388E+03  0.31575163627E+03  0.12509198580E+03 0.  0.
         24    2    1    2    0    0  0.36844674217E+01 -0.15036901096E+03  0.37861229237E+03  0.41546359712E+03  0.81475872768E+02 0.  0.
        -11    1    5    5    0    0 -0.32098122977E+02 -0.10172771171E+03  0.28235875389E+03  0.30183651655E+03  0.00000000000E+00 0.  1.
         12    1    5    5    0    0  0.35782590399E+02 -0.48641299244E+02  0.96253538484E+02  0.11362708057E+03  0.00000000000E+00 0. -1.
         11    1    3    3    0    0 -0.24395584218E+02 -0.42398497601E+00 -0.57195247189E+02  0.62182156553E+02  0.00000000000E+00 0. -1.
        -12    1    3    3    0    0 -0.69259628699E+02  0.19884516063E+03 -0.48223890340E+03  0.52620400419E+03  0.00000000000E+00 0.  1.
          5    1    4    4  501    0 -0.13611788654E+02 -0.35663187283E+02  0.15374085493E+03  0.15846408613E+03  0.41800000000E+01 0.  1.
         -5    1    4    4    0  501  0.10358253415E+03 -0.12388977416E+02  0.11763958895E+03  0.15728755014E+03  0.41800000000E+01 0.  1.
</event>
<event>
11    1  0.6455215E-009  0.1350847E+03  0.7561462E-02  0.1113175E+00
         22   -1    0    0    0    0  0.00000000000E+00  0.00000000000E+00  0.16228731074E+04  0.16228731074E+04  0.00000000000E+00 0. -1.
         22   -1    0    0    0    0 -0.00000000000E+00 -0.00000000000E+00 -0.83715480312E+02  0.83715480312E+02  0.00000000000E+00 0.  1.
        -24    2    1    2    0    0  0.15853425150E+02  0.12500353019E+02 -0.44923474404E+02  0.94096839146E+02  0.80177968733E+02 0.  0.
         25    2    1    2    0    0  0.34974816425E+02  0.37639475749E+01  0.32925501787E+03  0.35397901390E+03  0.12511942457E+03 0.  0.
         24    2    1    2    0    0 -0.50828241575E+02 -0.16264300594E+02  0.12548260836E+04  0.12585127347E+04  0.80110957802E+02 0.  0.
        -11    1    5    5    0    0  0.21101139971E+02 -0.96543483786E+01  0.38118809682E+03  0.38189374139E+03  0.00000000000E+00 0.  1.
         12    1    5    5    0    0 -0.71929381546E+02 -0.66099522155E+01  0.87363798679E+03  0.87661899327E+03  0.00000000000E+00 0. -1.
         11    1    3    3    0    0 -0.18511379597E+02 -0.42524595025E+01  0.14182424845E+02  0.23704340549E+02  0.00000000000E+00 0. -1.
        -12    1    3    3    0    0  0.34364804747E+02  0.16752812522E+02 -0.59105899249E+02  0.70392498597E+02  0.00000000000E+00 0.  1.
          5    1    4    4  501    0  0.68661438605E+02  0.37358865986E+02  0.24411892951E+03  0.25636224793E+03  0.41800000000E+01 0.  1.
         -5    1    4    4    0  501 -0.33686622180E+02 -0.33594918411E+02  0.85136088352E+02  0.97616765962E+02  0.41800000000E+01 0.  1.
</event>
<event>
11    1  0.6455215E-009  0.1390714E+03  0.7561462E-02  0.1108600E+00
         22   -1    0    0    0    0  0.00000000000E+00  0.00000000000E+00  0.78908754322E+02  0.78908754322E+02  0.00000000000E+00 0. -1.
         22   -1    0    0    0    0 -0.00000000000E+00 -0.00000000000E+00 -0.15188273589E+04  0.15188273589E+04  0.00000000000E+00 0. -1.
        -24    2    1    2    0    0  0.19588494181E+02 -0.49136385295E+01 -0.12928648492E+04  0.12954970301E+04  0.80032393021E+02 0.  0.
         25    2    1    2    0    0 -0.39033242013E+02 -0.52062750056E+02 -0.14345367506E+03  0.20114755030E+03  0.12508899303E+03 0.  0.
         24    2    1    2    0    0  0.19444747831E+02  0.56976388586E+02 -0.36000803899E+01  0.10109153282E+03  0.81130329441E+02 0.  0.
        -11    1    5    5    0    0 -0.11783452984E+02 -0.16995156498E+02 -0.20689661788E+01  0.20783785258E+02  0.00000000000E+00 0.  1.
         12    1    5    5    0    0  0.31228200816E+02  0.73971545083E+02 -0.15311142111E+01  0.80307747565E+02  0.00000000000E+00 0. -1.
         11    1    3    3    0    0  0.37110279052E+02  0.14107048788E+02 -0.11204799741E+04  0.11211831045E+04  0.00000000000E+00 0. -1.
        -12    1    3    3    0    0 -0.17521784871E+02 -0.19020687318E+02 -0.17238487511E+03  0.17431392560E+03  0.00000000000E+00 0.  1.
          5    1    4    4  501    0  0.18179884176E+02 -0.15411600092E+01  0.15802218170E+02  0.24496241792E+02  0.41800000000E+01 0.  1.
         -5    1    4    4    0  501 -0.57213126189E+02 -0.50521590047E+02 -0.15925589323E+03  0.17665130851E+03  0.41800000000E+01 0.  1.
</event>
<event>
11    1  0.6455215E-009  0.1703646E+03  0.7561462E-02  0.1077715E+00
         22   -1    0    0    0    0  0.00000000000E+00  0.00000000000E+00  0.15902856626E+04  0.15902856626E+04  0.00000000000E+00 0.  1.
         22   -1    0    0    0    0 -0.00000000000E+00 -0.00000000000E+00 -0.43428741007E+03  0.43428741007E+03  0.00000000000E+00 0. -1.
         24    2    1    2    0    0 -0.99913501630E+01 -0.46348849769E+02 -0.38770670323E+03  0.39871019304E+03  0.80033039134E+02 0.  0.
         25    2    1    2    0    0 -0.10171510059E+03  0.75349893680E+02  0.17389421624E+03  0.24881697013E+03  0.12508844078E+03 0.  0.
        -24    2    1    2    0    0  0.11170645075E+03 -0.29001043911E+02  0.13698107395E+04  0.13770459095E+04  0.80960379576E+02 0.  0.
        -11    1    3    3    0    0 -0.51213397785E+01 -0.31734291230E+02 -0.43139382469E+02  0.53798695903E+02  0.00000000000E+00 0.  1.
         12    1    3    3    0    0 -0.48700103845E+01 -0.14614558539E+02 -0.34456732076E+03  0.34491149714E+03  0.00000000000E+00 0. -1.
         11    1    5    5    0    0  0.94075032256E+01 -0.20692898252E+02  0.80248542191E+02  0.83405789240E+02  0.00000000000E+00 0. -1.
        -12    1    5    5    0    0  0.10229894753E+03 -0.83081456591E+01  0.12895621973E+04  0.12936401203E+04  0.00000000000E+00 0.  1.
          5    1    4    4  501    0 -0.66573046323E+02  0.25048198024E+02  0.17322840648E+03  0.18730973261E+03  0.41800000000E+01 0.  1.
         -5    1    4    4    0  501 -0.35142054268E+02  0.50301695655E+02  0.66580976095E+00  0.61507237514E+02  0.41800000000E+01 0.  1.
</event>
<event>
11    1  0.6455215E-009  0.1468631E+03  0.7561462E-02  0.1100128E+00
         22   -1    0    0    0    0  0.00000000000E+00  0.00000000000E+00  0.14349458072E+04  0.14349458072E+04  0.00000000000E+00 0. -1.
         22   -1    0    0    0    0 -0.00000000000E+00 -0.00000000000E+00 -0.76547043950E+02  0.76547043950E+02  0.00000000000E+00 0.  1.
        -24    2    1    2    0    0 -0.65429221495E+01  0.72542220359E+02 -0.51733664257E+01  0.10913611580E+03  0.81109459912E+02 0.  0.
         25    2    1    2    0    0  0.24181992138E+02 -0.10619269320E+03  0.37764234446E+03  0.41246202711E+03  0.12509806814E+03 0.  0.
         24    2    1    2    0    0 -0.17639069988E+02  0.33650472844E+02  0.98592978518E+03  0.98989470820E+03  0.79940608546E+02 0.  0.
        -11    1    5    5    0    0 -0.31365610634E+02 -0.14539176164E+02  0.55200636132E+03  0.55308788824E+03  0.00000000000E+00 0.  1.
         12    1    5    5    0    0  0.13726540646E+02  0.48189649008E+02  0.43392342386E+03  0.43680681996E+03  0.00000000000E+00 0. -1.
         13    1    3    3    0    0  0.34327048956E+01  0.14339676878E+01  0.29264701475E+02  0.29500211502E+02  0.00000000000E+00 0. -1.
        -14    1    3    3    0    0 -0.99756270452E+01  0.71108252671E+02 -0.34438067901E+02  0.79635904300E+02  0.00000000000E+00 0.  1.
          5    1    4    4  501    0 -0.19731226848E+02 -0.11806982218E+03  0.26012908054E+03  0.28638159013E+03  0.41800000000E+01 0. -1.
         -5    1    4    4    0  501  0.43913218986E+02  0.11877128974E+02  0.11751326391E+03  0.12608043698E+03  0.41800000000E+01 0. -1.
</event>
<event>
11    1  0.6455215E-009  0.1551113E+03  0.7561462E-02  0.1091768E+00
         22   -1    0    0    0    0  0.00000000000E+00  0.00000000000E+00  0.19087930366E+03  0.19087930366E+03  0.00000000000E+00 0.  1.
         22   -1    0    0    0    0 -0.00000000000E+00 -0.00000000000E+00 -0.72663566055E+03  0.72663566055E+03  0.00000000000E+00 0.  1.
        -24    2    1    2    0    0 -0.19112368870E+02 -0.91514660535E+01 -0.61661782470E+03  0.62181683924E+03  0.77392556788E+02 0.  0.
         25    2    1    2    0    0  0.87612201911E+02  0.50647763272E+02  0.85960493625E+02  0.18242290187E+03  0.12509122597E+03 0.  0.
         24    2    1    2    0    0 -0.68499833041E+02 -0.41496297219E+02 -0.50990258144E+01  0.11327522310E+03  0.79944395023E+02 0.  0.
        -13    1    5    5    0    0 -0.73333898170E+02 -0.21632096097E+02 -0.29045365897E+02  0.81789005878E+02  0.00000000000E+00 0.  1.
         14    1    5    5    0    0  0.48340651291E+01 -0.19864201122E+02  0.23946340083E+02  0.31486217227E+02  0.00000000000E+00 0. -1.
         13    1    3    3    0    0 -0.15555521385E+02 -0.11805578801E+02 -0.34203438679E+02  0.39385544986E+02  0.00000000000E+00 0. -1.
        -14    1    3    3    0    0 -0.35568474853E+01  0.26541127475E+01 -0.58241438602E+03  0.58243129425E+03  0.00000000000E+00 0.  1.
          5    1    4    4  501    0  0.26777535452E+02 -0.34094414322E+02 -0.51488161426E+01  0.43857133975E+02  0.41800000000E+01 0.  1.
         -5    1    4    4    0  501  0.60834666460E+02  0.84742177594E+02  0.91109309767E+02  0.13856576790E+03  0.41800000000E+01 0.  1.
</event>
<event>
11    1  0.6455215E-009  0.1396809E+03  0.7561462E-02  0.1107915E+00
         22   -1    0    0    0    0  0.00000000000E+00  0.00000000000E+00  0.41832738987E+03  0.41832738987E+03  0.00000000000E+00 0. -1.
         22   -1    0    0    0    0 -0.00000000000E+00 -0.00000000000E+00 -0.93060119433E+03  0.93060119433E+03  0.00000000000E+00 0. -1.
         24    2    1    2    0    0  0.11492200092E+01  0.16537183007E+01 -0.76180625695E+03  0.76596412360E+03  0.79675655204E+02 0.  0.
         25    2    1    2    0    0  0.60450809995E+02  0.70305834911E+01 -0.12975798318E+03  0.19023273648E+03  0.12509048843E+03 0.  0.
        -24    2    1    2    0    0 -0.61600030004E+02 -0.86843017918E+01  0.37929043567E+03  0.39273172412E+03  0.80665926792E+02 0.  0.
        -11    1    3    3    0    0  0.20026434269E+02 -0.30479391003E+01 -0.50773861842E+02  0.54665647793E+02  0.00000000000E+00 0.  1.
         12    1    3    3    0    0 -0.18877214260E+02  0.47016574010E+01 -0.71103239510E+03  0.71129847581E+03  0.00000000000E+00 0. -1.
         13    1    5    5    0    0 -0.41012040930E+02  0.21647308833E+02  0.31762540025E+03  0.32099297245E+03  0.00000000000E+00 0. -1.
        -14    1    5    5    0    0 -0.20587989074E+02 -0.30331610625E+02  0.61665035420E+02  0.71738751666E+02  0.00000000000E+00 0.  1.
          5    1    4    4  501    0  0.15859285818E+01 -0.53549897549E+02 -0.60514356452E+02  0.80929391656E+02  0.41800000000E+01 0. -1.
         -5    1    4    4    0  501  0.58864881413E+02  0.60580481040E+02 -0.69243626732E+02  0.10930334482E+03  0.41800000000E+01 0. -1.
</event>
<event>
11    1  0.6455215E-009  0.1401775E+03  0.7561462E-02  0.1107360E+00
         22   -1    0    0    0    0  0.00000000000E+00  0.00000000000E+00  0.11569114077E+04  0.11569114077E+04  0.00000000000E+00 0. -1.
         22   -1    0    0    0    0 -0.00000000000E+00 -0.00000000000E+00 -0.34917807201E+03  0.34917807201E+03  0.00000000000E+00 0. -1.
        -24    2    1    2    0    0  0.48202254085E+02 -0.42017857040E+02 -0.30598758618E+03  0.32267500013E+03  0.80011219221E+02 0.  0.
         25    2    1    2    0    0 -0.65973897091E+02  0.23923780304E+00  0.12012758609E+03  0.18555741914E+03  0.12509319136E+03 0.  0.
         24    2    1    2    0    0  0.17771643007E+02  0.41778619237E+02  0.99359333579E+03  0.99785706044E+03  0.80185483941E+02 0.  0.
        -13    1    5    5    0    0  0.33216492101E+02  0.40432737873E+02  0.33337404151E+03  0.33745576479E+03  0.00000000000E+00 0.  1.
         14    1    5    5    0    0 -0.15444849094E+02  0.13458813638E+01  0.66021929428E+03  0.66040129565E+03  0.00000000000E+00 0. -1.
         13    1    3    3    0    0  0.32855474866E+02  0.13492552719E+02 -0.18865931413E+03  0.19197361281E+03  0.00000000000E+00 0. -1.
        -14    1    3    3    0    0  0.15346779219E+02 -0.55510409759E+02 -0.11732827205E+03  0.13070138732E+03  0.00000000000E+00 0.  1.
          5    1    4    4  501    0  0.40813337661E+01  0.38929262329E+02  0.92940097306E+02  0.10093304136E+03  0.41800000000E+01 0.  1.
         -5    1    4    4    0  501 -0.70055230858E+02 -0.38690024526E+02  0.27187488787E+02  0.84624377782E+02  0.41800000000E+01 0.  1.
</event>
<event>
11    1  0.6455215E-009  0.1535537E+03  0.7561462E-02  0.1093302E+00
         22   -1    0    0    0    0  0.00000000000E+00  0.00000000000E+00  0.89312910265E+02  0.89312910265E+02  0.00000000000E+00 0. -1.
         22   -1    0    0    0    0 -0.00000000000E+00 -0.00000000000E+00 -0.63753967361E+03  0.63753967361E+03  0.00000000000E+00 0. -1.
         24    2    1    2    0    0 -0.62272740970E+02  0.70172267423E+02 -0.42453241922E+03  0.44203502946E+03  0.79781895950E+02 0.  0.
         25    2    1    2    0    0  0.54573682700E+02 -0.47171921434E+02 -0.13089656051E+03  0.19490007820E+03  0.12509457987E+03 0.  0.
        -24    2    1    2    0    0  0.76990582707E+01 -0.23000345988E+02  0.72022163832E+01  0.89917476215E+02  0.86284350807E+02 0.  0.
        -11    1    3    3    0    0  0.15697237368E+02 -0.14872626765E+01 -0.35444547666E+02  0.38793442365E+02  0.00000000000E+00 0.  1.
         12    1    3    3    0    0 -0.77969978338E+02  0.71659530099E+02 -0.38908787155E+03  0.40324158710E+03  0.00000000000E+00 0. -1.
         11    1    5    5    0    0 -0.14839066993E+02 -0.18444130217E+02  0.41998215487E+02  0.48210309611E+02  0.00000000000E+00 0. -1.
        -12    1    5    5    0    0  0.22538125263E+02 -0.45562157715E+01 -0.34795999104E+02  0.41707166604E+02  0.00000000000E+00 0.  1.
          5    1    4    4  501    0  0.59363702235E+02 -0.78701716350E+02 -0.12936613544E+03  0.16269935064E+03  0.41800000000E+01 0.  1.
         -5    1    4    4    0  501 -0.47900195356E+01  0.31529794916E+02 -0.15304250743E+01  0.32200727562E+02  0.41800000000E+01 0.  1.
</event>
<event>
11    1  0.6455215E-009  0.1636679E+03  0.7561462E-02  0.1083677E+00
         22   -1    0    0    0    0  0.00000000000E+00  0.00000000000E+00  0.78267659645E+03  0.78267659645E+03  0.00000000000E+00 0.  1.
         22   -1    0    0    0    0 -0.00000000000E+00 -0.00000000000E+00 -0.96553442844E+03  0.96553442844E+03  0.00000000000E+00 0. -1.
        -24    2    1    2    0    0 -0.15489712451E+01  0.10343593446E+03 -0.88568060359E+03  0.89530245552E+03  0.80218223883E+02 0.  0.
         25    2    1    2    0    0  0.32893207624E+02 -0.18686083656E+03  0.11924635747E+03  0.25664429614E+03  0.12509062964E+03 0.  0.
         24    2    1    2    0    0 -0.31344236379E+02  0.83424902102E+02  0.58357641413E+03  0.59626427323E+03  0.83830048085E+02 0.  0.
        -11    1    5    5    0    0 -0.51191390351E+02  0.66963694745E+02  0.53162669028E+03  0.53826725023E+03  0.00000000000E+00 0.  1.
         12    1    5    5    0    0  0.19847153972E+02  0.16461207357E+02  0.51949723851E+02  0.57997022998E+02  0.00000000000E+00 0. -1.
         11    1    3    3    0    0 -0.29336391624E+02  0.98373307040E+02 -0.69825548790E+03  0.70576104865E+03  0.00000000000E+00 0. -1.
        -12    1    3    3    0    0  0.27787420379E+02  0.50626274155E+01 -0.18742511569E+03  0.18954140687E+03  0.00000000000E+00 0.  1.
          5    1    4    4  501    0  0.59527104190E+02 -0.27683143802E+02  0.36481652838E+02  0.75221113909E+02  0.41800000000E+01 0. -1.
         -5    1    4    4    0  501 -0.26633896566E+02 -0.15917769276E+03  0.82764704629E+02  0.18142318223E+03  0.41800000000E+01 0. -1.
</event>
<event>
11    1  0.6455215E-009  0.1312166E+03  0.7561462E-02  0.1117783E+00
         22   -1    0    0    0    0  0.00000000000E+00  0.00000000000E+00  0.60802862022E+03  0.60802862022E+03  0.00000000000E+00 0.  1.
         22   -1    0    0    0    0 -0.00000000000E+00 -0.00000000000E+00 -0.78056586250E+03  0.78056586250E+03  0.00000000000E+00 0.  1.
         24    2    1    2    0    0 -0.12235892318E+02  0.37561088190E+02 -0.72938591376E+03  0.73541077861E+03  0.85232914395E+02 0.  0.
         25    2    1    2    0    0 -0.23449070099E+02 -0.53741728517E+02  0.62988767502E+02  0.15183007604E+03  0.12508698927E+03 0.  0.
        -24    2    1    2    0    0  0.35684962417E+02  0.16180640327E+02  0.49385990398E+03  0.50135362807E+03  0.76958598999E+02 0.  0.
        -13    1    3    3    0    0  0.28546678490E+02  0.38385304841E+02 -0.26891280380E+03  0.27313447335E+03  0.00000000000E+00 0.  1.
         14    1    3    3    0    0 -0.40782570808E+02 -0.82421665084E+00 -0.46047310996E+03  0.46227630527E+03  0.00000000000E+00 0. -1.
         13    1    5    5    0    0 -0.28346456640E+01 -0.25398687610E+02  0.23357088623E+03  0.23496486427E+03  0.00000000000E+00 0. -1.
        -14    1    5    5    0    0  0.38519608081E+02  0.41579327937E+02  0.26028901774E+03  0.26638876380E+03  0.00000000000E+00 0.  1.
          5    1    4    4  501    0  0.28186171599E+02 -0.62019621620E+02 -0.20342873904E+01  0.68282534081E+02  0.41800000000E+01 0.  1.
         -5    1    4    4    0  501 -0.51635241698E+02  0.82778931035E+01  0.65023054893E+02  0.83547541956E+02  0.41800000000E+01 0.  1.
</event>
<event>
11    1  0.6455215E-009  0.1411493E+03  0.7561462E-02  0.1106282E+00
         22   -1    0    0    0    0  0.00000000000E+00  0.00000000000E+00  0.13865167430E+04  0.13865167430E+04  0.00000000000E+00 0.  1.
         22   -1    0    0    0    0 -0.00000000000E+00 -0.00000000000E+00 -0.14883217415E+03  0.14883217415E+03  0.00000000000E+00 0. -1.
        -24    2    1    2    0    0  0.57243425444E+02  0.29522832532E+02 -0.11100785415E+03  0.15264210229E+03  0.82634498314E+02 0.  0.
         25    2    1    2    0    0 -0.62912779811E+02 -0.59442810860E+02  0.36623441287E+03  0.39656818680E+03  0.12508883236E+03 0.  0.
         24    2    1    2    0    0  0.56693543669E+01  0.29919978329E+02  0.98245801010E+03  0.98613862803E+03  0.79487768926E+02 0.  0.
        -11    1    5    5    0    0 -0.58995269865E+01  0.48353362666E+02  0.88229083006E+03  0.88363451772E+03  0.00000000000E+00 0.  1.
         12    1    5    5    0    0  0.11568881353E+02 -0.18433384338E+02  0.10016718004E+03  0.10250411032E+03  0.00000000000E+00 0. -1.
         11    1    3    3    0    0  0.78134475274E+02  0.15633635522E+02 -0.84650894734E+02  0.11625480964E+03  0.00000000000E+00 0. -1.
        -12    1    3    3    0    0 -0.20891049830E+02  0.13889197010E+02 -0.26356959412E+02  0.36387292645E+02  0.00000000000E+00 0.  1.
          5    1    4    4  501    0 -0.49074576206E+01 -0.26240950528E+02  0.29711287452E+01  0.27184014253E+02  0.41800000000E+01 0.  1.
         -5    1    4    4    0  501 -0.58005322190E+02 -0.33201860333E+02  0.36326328413E+03  0.36938417255E+03  0.41800000000E+01 0.  1.
</event>
<event>
11    1  0.6455215E-009  0.1361403E+03  0.7561462E-02  0.1111947E+00
         22   -1    0    0    0    0  0.00000000000E+00  0.00000000000E+00  0.20579921816E+04  0.20579921816E+04  0.00000000000E+00 0.  1.
         22   -1    0    0    0    0 -0.00000000000E+00 -0.00000000000E+00 -0.24793377720E+03  0.24793377720E+03  0.00000000000E+00 0. -1.
        -24    2    1    2    0    0 -0.48296213415E+02 -0.24138626521E+02 -0.22613411392E+03  0.24613255069E+03  0.80804687437E+02 0.  0.
         25    2    1    2    0    0  0.13109592837E+02  0.62071570901E+02  0.46569550249E+03  0.48636110850E+03  0.12510030171E+03 0.  0.
         24    2    1    2    0    0  0.35186620578E+02 -0.37932944380E+02  0.15704970158E+04  0.15734322996E+04  0.80940213606E+02 0.  0.
        -11    1    5    5    0    0  0.16008948781E+02 -0.18002574719E+02  0.14318880958E+04  0.14320907436E+04  0.00000000000E+00 0.  1.
         12    1    5    5    0    0  0.19177671798E+02 -0.19930369661E+02  0.13860892009E+03  0.14134155602E+03  0.00000000000E+00 0. -1.
         11    1    3    3    0    0  0.49010148356E+01 -0.34636497214E+02 -0.44651399104E+02  0.56722608611E+02  0.00000000000E+00 0. -1.
        -12    1    3    3    0    0 -0.53197228251E+02  0.10497870693E+02 -0.18148271482E+03  0.18940994208E+03  0.00000000000E+00 0.  1.
          5    1    4    4  501    0 -0.42060657637E+02  0.28879604832E+02  0.35142114231E+03  0.35513014819E+03  0.41800000000E+01 0. -1.
         -5    1    4    4    0  501  0.55170250473E+02  0.33191966069E+02  0.11427436018E+03  0.13123096031E+03  0.41800000000E+01 0. -1.
</event>
<event>
11    1  0.6455215E-009  0.1282035E+03  0.7561462E-02  0.1121496E+00
         22   -1    0    0    0    0  0.00000000000E+00  0.00000000000E+00  0.82206705631E+03  0.82206705631E+03  0.00000000000E+00 0.  1.
         22   -1    0    0    0    0 -0.00000000000E+00 -0.00000000000E+00 -0.60094123170E+03  0.60094123170E+03  0.00000000000E+00 0. -1.
         24    2    1    2    0    0 -0.46407816444E+01  0.27716217550E+02 -0.54869321206E+03  0.55674969965E+03  0.90090296587E+02 0.  0.
         25    2    1    2    0    0  0.19683919067E+02 -0.24472375285E+02  0.44640393271E+02  0.13648008479E+03  0.12509074710E+03 0.  0.
        -24    2    1    2    0    0 -0.15043137423E+02 -0.32438422649E+01  0.72517864340E+03  0.72977850357E+03  0.80347874440E+02 0.  0.
        -13    1    3    3    0    0 -0.31394320580E+02  0.30698122633E+01 -0.71221291206E+02  0.77894155320E+02  0.00000000000E+00 0.  1.
         14    1    3    3    0    0  0.26753538935E+02  0.24646405287E+02 -0.47747192085E+03  0.47885554433E+03  0.00000000000E+00 0. -1.
         13    1    5    5    0    0 -0.19240776226E+02  0.18897790141E+02  0.84409654021E+02  0.88613337787E+02  0.00000000000E+00 0. -1.
        -14    1    5    5    0    0  0.41976388027E+01 -0.22141632406E+02  0.64076898938E+03  0.64116516578E+03  0.00000000000E+00 0.  1.
          5    1    4    4  501    0  0.14040760676E+02 -0.42137319432E+02 -0.33672624461E+02  0.55892885839E+02  0.41800000000E+01 0.  1.
         -5    1    4    4    0  501  0.56431583916E+01  0.17664944147E+02  0.78313017732E+02  0.80587198951E+02  0.41800000000E+01 0.  1.
</event>
<event>
11    1  0.8823914E-009  0.1678605E+03  0.7561462E-02  0.1079909E+00
         22   -1    0    0    0    0  0.00000000000E+00  0.00000000000E+00  0.26244499182E+03  0.26244499182E+03  0.00000000000E+00 0. -1.
         22   -1    0    0    0    0 -0.00000000000E+00 -0.00000000000E+00 -0.12515066484E+04  0.12515066484E+04  0.00000000000E+00 0. -1.
        -24    2    1    2    0    0 -0.14354349757E+02 -0.62141790210E+02 -0.41492488372E+03  0.42717239359E+03  0.79031292955E+02 0.  0.
         25    2    1    2    0    0  0.77049096597E+01  0.17245737844E+03 -0.79718476530E+03  0.82519818040E+03  0.12509026305E+03 0.  0.
         24    2    1    2    0    0  0.66494400975E+01 -0.11031558823E+03  0.22304799240E+03  0.26158106626E+03  0.80377255782E+02 0.  0.
        -13    1    5    5    0    0  0.69239410021E+01  0.19588676216E+01  0.77144212843E+02  0.77479079090E+02  0.00000000000E+00 0.  1.
         14    1    5    5    0    0 -0.27450090463E+00 -0.11227445586E+03  0.14590377956E+03  0.18410198717E+03  0.00000000000E+00 0. -1.
         11    1    3    3    0    0 -0.65787221210E+01 -0.78927936146E+02 -0.28003187936E+03  0.29101675578E+03  0.00000000000E+00 0. -1.
        -12    1    3    3    0    0 -0.77756276361E+01  0.16786145936E+02 -0.13489300436E+03  0.13615563781E+03  0.00000000000E+00 0.  1.
          5    1    4    4  501    0  0.44434462216E+01  0.17301095361E+03 -0.80044345035E+03  0.81895037939E+03  0.41800000000E+01 0.  1.
         -5    1    4    4    0  501  0.32614634381E+01 -0.55357516915E+00  0.32586850588E+01  0.62478010162E+01  0.41800000000E+01 0.  1.
</event>
<event>
11    1  0.6455215E-009  0.4128721E+03  0.7561462E-02  0.9612523E-01
         22   -1    0    0    0    0  0.00000000000E+00  0.00000000000E+00  0.12239001708E+04  0.12239001708E+04  0.00000000000E+00 0. -1.
         22   -1    0    0    0    0 -0.00000000000E+00 -0.00000000000E+00 -0.12536079504E+04  0.12536079504E+04  0.00000000000E+00 0. -1.
        -24    2    1    2    0    0  0.61642813202E+02  0.20020782912E+03 -0.57477007374E+03  0.61733080682E+03  0.82786932071E+02 0.  0.
         25    2    1    2    0    0  0.18247527752E+03 -0.50046253479E+03 -0.50110691094E+03  0.74196769050E+03  0.12509173401E+03 0.  0.
         24    2    1    2    0    0 -0.24411809072E+03  0.30025470567E+03  0.10461692051E+04  0.11182096240E+04  0.78588974624E+02 0.  0.
        -13    1    5    5    0    0 -0.20403885801E+02  0.81696944629E+01  0.27932873765E+02  0.35543042922E+02  0.00000000000E+00 0.  1.
         14    1    5    5    0    0 -0.22371420492E+03  0.29208501121E+03  0.10182363313E+04  0.10826665810E+04  0.00000000000E+00 0. -1.
         11    1    3    3    0    0 -0.13563770785E+02  0.53210207616E+02 -0.20763514165E+03  0.21477349492E+03  0.00000000000E+00 0. -1.
        -12    1    3    3    0    0  0.75206583988E+02  0.14699762150E+03 -0.36713493208E+03  0.40255731189E+03  0.00000000000E+00 0.  1.
          5    1    4    4  501    0  0.90313867444E+02 -0.98454414384E+02 -0.14295462140E+03  0.19571244862E+03  0.41800000000E+01 0. -1.
         -5    1    4    4    0  501  0.92161410071E+02 -0.40200812041E+03 -0.35815228954E+03  0.54625524188E+03  0.41800000000E+01 0. -1.
</event>
<event>
11    1  0.6455215E-009  0.1585101E+03  0.7561462E-02  0.1088487E+00
         22   -1    0    0    0    0  0.00000000000E+00  0.00000000000E+00  0.55244584471E+03  0.55244584471E+03  0.00000000000E+00 0.  1.
         22   -1    0    0    0    0 -0.00000000000E+00 -0.00000000000E+00 -0.30421253718E+03  0.30421253718E+03  0.00000000000E+00 0.  1.
         24    2    1    2    0    0  0.72652309690E+02  0.61613145073E+02 -0.20077011629E+03  0.23572742337E+03  0.78639943942E+02 0.  0.
         25    2    1    2    0    0 -0.10786565746E+03 -0.37496774642E+02  0.71154802616E+01  0.16952429389E+03  0.12508736143E+03 0.  0.
        -24    2    1    2    0    0  0.35213347769E+02 -0.24116370431E+02  0.44188794355E+03  0.45140666464E+03  0.81740094449E+02 0.  0.
        -11    1    3    3    0    0  0.66001322134E+02  0.52582316712E+02 -0.20654045876E+03  0.22311440039E+03  0.00000000000E+00 0.  1.
         12    1    3    3    0    0  0.66509875554E+01  0.90308283610E+01  0.57703424755E+01  0.12613022978E+02  0.00000000000E+00 0. -1.
         11    1    5    5    0    0 -0.79375228725E+01 -0.34464191814E+02  0.89475271959E+02  0.96211273138E+02  0.00000000000E+00 0. -1.
        -12    1    5    5    0    0  0.43150870642E+02  0.10347821383E+02  0.35241267160E+03  0.35519539150E+03  0.00000000000E+00 0.  1.
          5    1    4    4  501    0 -0.98089288219E+02  0.28717789037E+02  0.30263188115E+01  0.10233694776E+03  0.41800000000E+01 0. -1.
         -5    1    4    4    0  501 -0.97763692397E+01 -0.66214563678E+02  0.40891614501E+01  0.67187346130E+02  0.41800000000E+01 0. -1.
</event>
<event>
11    1  0.6455215E-009  0.1314120E+03  0.7561462E-02  0.1117546E+00
         22   -1    0    0    0    0  0.00000000000E+00  0.00000000000E+00  0.15274197209E+03  0.15274197209E+03  0.00000000000E+00 0. -1.
         22   -1    0    0    0    0 -0.00000000000E+00 -0.00000000000E+00 -0.35018486298E+03  0.35018486298E+03  0.00000000000E+00 0. -1.
        -24    2    1    2    0    0 -0.37452269661E+02 -0.24833799331E+02 -0.21621476725E+03  0.23523898601E+03  0.81050384746E+02 0.  0.
         25    2    1    2    0    0  0.17747998896E+02  0.12867256662E+02 -0.70372541019E+02  0.14519104863E+03  0.12509032063E+03 0.  0.
         24    2    1    2    0    0  0.19704270765E+02  0.11966542669E+02  0.89144417379E+02  0.12249680043E+03  0.80791599420E+02 0.  0.
        -13    1    5    5    0    0 -0.14165045218E+02  0.36977038321E+02  0.29004014436E+02  0.49083426148E+02  0.00000000000E+00 0.  1.
         14    1    5    5    0    0  0.33869315983E+02 -0.25010495652E+02  0.60140402943E+02  0.73413374286E+02  0.00000000000E+00 0. -1.
         11    1    3    3    0    0 -0.35015949522E+01  0.26932095849E+01 -0.17534250828E+03  0.17539814639E+03  0.00000000000E+00 0. -1.
        -12    1    3    3    0    0 -0.33950674709E+02 -0.27527008916E+02 -0.40872258967E+02  0.59840839618E+02  0.00000000000E+00 0.  1.
          5    1    4    4  501    0  0.39577088887E+02 -0.35308257956E+02 -0.74978511310E+02  0.91936220299E+02  0.41800000000E+01 0. -1.
         -5    1    4    4    0  501 -0.21829089991E+02  0.48175514618E+02  0.46059702913E+01  0.53254828334E+02  0.41800000000E+01 0. -1.
</event>
<event>
11    1  0.6455215E-009  0.1284263E+03  0.7561462E-02  0.1121218E+00
         22   -1    0    0    0    0  0.00000000000E+00  0.00000000000E+00  0.94261472493E+03  0.94261472493E+03  0.00000000000E+00 0.  1.
         22   -1    0    0    0    0 -0.00000000000E+00 -0.00000000000E+00 -0.50658722964E+03  0.50658722964E+03  0.00000000000E+00 0. -1.
        -24    2    1    2    0    0 -0.26364959065E+02  0.12413100465E+02 -0.48876278522E+03  0.49611128233E+03  0.79925891338E+02 0.  0.
         25    2    1    2    0    0  0.28802803863E+02  0.71857998996E+01  0.35658765287E+03  0.37905622918E+03  0.12509050112E+03 0.  0.
         24    2    1    2    0    0 -0.24378447978E+01 -0.19598900365E+02  0.56820262764E+03  0.57403444305E+03  0.79191260654E+02 0.  0.
        -13    1    5    5    0    0  0.10288334839E+02 -0.13835623174E+00  0.52389573718E+03  0.52399676756E+03  0.00000000000E+00 0.  1.
         14    1    5    5    0    0 -0.12726179637E+02 -0.19460544133E+02  0.44306890466E+02  0.50037675494E+02  0.00000000000E+00 0. -1.
         11    1    3    3    0    0 -0.53511169073E+02  0.18642457079E+02 -0.29999034373E+03  0.30529525504E+03  0.00000000000E+00 0. -1.
        -12    1    3    3    0    0  0.27146210008E+02 -0.62293566143E+01 -0.18877244149E+03  0.19081602729E+03  0.00000000000E+00 0.  1.
          5    1    4    4  501    0  0.40300946693E+01 -0.31302777890E+02  0.16465503125E+02  0.35842583052E+02  0.41800000000E+01 0.  1.
         -5    1    4    4    0  501  0.24772709194E+02  0.38488577789E+02  0.34012214975E+03  0.34321364613E+03  0.41800000000E+01 0.  1.
</event>
<event>
11    1  0.6455215E-009  0.1673854E+03  0.7561462E-02  0.1080330E+00
         22   -1    0    0    0    0  0.00000000000E+00  0.00000000000E+00  0.63780688942E+03  0.63780688942E+03  0.00000000000E+00 0.  1.
         22   -1    0    0    0    0 -0.00000000000E+00 -0.00000000000E+00 -0.61921508713E+03  0.61921508713E+03  0.00000000000E+00 0.  1.
        -24    2    1    2    0    0 -0.38033019312E+02 -0.10699005536E+03 -0.50049104333E+03  0.51931764016E+03  0.79411236153E+02 0.  0.
         25    2    1    2    0    0 -0.58869066423E+01  0.10266806717E+03 -0.41819836960E+02  0.16724920302E+03  0.12509200398E+03 0.  0.
         24    2    1    2    0    0  0.43919925955E+02  0.43219881877E+01  0.56090268258E+03  0.57045513337E+03  0.94125450248E+02 0.  0.
        -11    1    5    5    0    0  0.18911455930E+02 -0.96140846525E+01  0.52052806559E+03  0.52096021044E+03  0.00000000000E+00 0.  1.
         12    1    5    5    0    0  0.25008470025E+02  0.13936072840E+02  0.40374616987E+02  0.49494922932E+02  0.00000000000E+00 0. -1.
         11    1    3    3    0    0  0.14794345467E+02 -0.61541498277E+02 -0.16629574820E+03  0.17793398927E+03  0.00000000000E+00 0. -1.
        -12    1    3    3    0    0 -0.52827364779E+02 -0.45448557080E+02 -0.33419529513E+03  0.34138365089E+03  0.00000000000E+00 0.  1.
          5    1    4    4  501    0  0.35311329749E+02  0.10495250525E+03 -0.36306016067E+01  0.11087187215E+03  0.41800000000E+01 0.  1.
         -5    1    4    4    0  501 -0.41198236391E+02 -0.22844380759E+01 -0.38189235353E+02  0.56377330869E+02  0.41800000000E+01 0.  1.
</event>
<event>
11    1  0.6455215E-009  0.1402284E+03  0.7561462E-02  0.1107304E+00
         22   -1    0    0    0    0  0.00000000000E+00  0.00000000000E+00  0.95484079998E+03  0.95484079998E+03  0.00000000000E+00 0.  1.
         22   -1    0    0    0    0 -0.00000000000E+00 -0.00000000000E+00 -0.21887278230E+03  0.21887278230E+03  0.00000000000E+00 0.  1.
         24    2    1    2    0    0 -0.88525485569E+01  0.64640154115E+02 -0.19105910852E+03  0.21864689727E+03  0.83941441476E+02 0.  0.
         25    2    1    2    0    0  0.75311274287E+01 -0.78528508963E+00  0.44708722538E+03  0.46431812343E+03  0.12508796144E+03 0.  0.
        -24    2    1    2    0    0  0.13214211282E+01 -0.63854869025E+02  0.47993990082E+03  0.49074856157E+03  0.80079034951E+02 0.  0.
        -13    1    3    3    0    0 -0.59979480843E+01  0.23566748973E+02 -0.17123007907E+03  0.17294827844E+03  0.00000000000E+00 0.  1.
         14    1    3    3    0    0 -0.28546004725E+01  0.41073405142E+02 -0.19829029455E+02  0.45698618830E+02  0.00000000000E+00 0. -1.
         13    1    5    5    0    0 -0.54654393380E+01 -0.67336944049E+02  0.20789178149E+03  0.21859352203E+03  0.00000000000E+00 0. -1.
        -14    1    5    5    0    0  0.67868604662E+01  0.34820750243E+01  0.27204811933E+03  0.27215503955E+03  0.00000000000E+00 0.  1.
          5    1    4    4  501    0 -0.31028850302E+02 -0.39514313092E+02  0.90954273192E+02  0.10399193576E+03  0.41800000000E+01 0. -1.
         -5    1    4    4    0  501  0.38559977731E+02  0.38729028003E+02  0.35613295219E+03  0.36032618768E+03  0.41800000000E+01 0. -1.
</event>
<event>
11    1  0.6455215E-009  0.2783331E+03  0.7561462E-02  0.1009802E+00
         22   -1    0    0    0    0  0.00000000000E+00  0.00000000000E+00  0.12786629956E+04  0.12786629956E+04  0.00000000000E+00 0.  1.
         22   -1    0    0    0    0 -0.00000000000E+00 -0.00000000000E+00 -0.21089858858E+04  0.21089858858E+04  0.00000000000E+00 0. -1.
         24    2    1    2    0    0 -0.10105972318E+03  0.22664022189E+03 -0.20539548755E+04  0.20704245526E+04  0.79676468362E+02 0.  0.
         25    2    1    2    0    0  0.11143487920E+03 -0.25715037451E+03  0.48668776073E+03  0.57537466514E+03  0.12508789483E+03 0.  0.
        -24    2    1    2    0    0 -0.10375156028E+02  0.30510152620E+02  0.73694422454E+03  0.74184966373E+03  0.78839204775E+02 0.  0.
        -13    1    3    3    0    0 -0.47806146633E+02  0.65205678138E+02 -0.42488523100E+03  0.43250973126E+03  0.00000000000E+00 0.  1.
         14    1    3    3    0    0 -0.53253576543E+02  0.16143454375E+03 -0.16290696445E+04  0.16379148213E+04  0.00000000000E+00 0. -1.
         11    1    5    5    0    0  0.20695224278E+02 -0.18062250962E+02  0.24889359915E+03  0.25040479412E+03  0.00000000000E+00 0. -1.
        -12    1    5    5    0    0 -0.31070380306E+02  0.48572403582E+02  0.48805062539E+03  0.49144486961E+03  0.00000000000E+00 0.  1.
          5    1    4    4  501    0  0.13407668812E+03 -0.21532677562E+03  0.44382387513E+03  0.51121353966E+03  0.41800000000E+01 0. -1.
         -5    1    4    4    0  501 -0.22641808915E+02 -0.41823598885E+02  0.42863885603E+02  0.64161125486E+02  0.41800000000E+01 0. -1.
</event>
<event>
11    1  0.6455215E-009  0.1285294E+03  0.7561462E-02  0.1121089E+00
         22   -1    0    0    0    0  0.00000000000E+00  0.00000000000E+00  0.53058711690E+03  0.53058711690E+03  0.00000000000E+00 0.  1.
         22   -1    0    0    0    0 -0.00000000000E+00 -0.00000000000E+00 -0.16165430226E+03  0.16165430226E+03  0.00000000000E+00 0. -1.
         24    2    1    2    0    0  0.10408192546E+02  0.17508898247E+02 -0.12183781174E+03  0.14602817542E+03  0.77877362932E+02 0.  0.
         25    2    1    2    0    0  0.23696080382E+01 -0.41387288304E+02  0.17583830095E+03  0.21974388967E+03  0.12509894600E+03 0.  0.
        -24    2    1    2    0    0 -0.12777800584E+02  0.23878390057E+02  0.31493232542E+03  0.32646935407E+03  0.81648146632E+02 0.  0.
        -13    1    3    3    0    0 -0.68793938625E+01 -0.55261052780E+01  0.86757429062E+01  0.12374668256E+02  0.00000000000E+00 0.  1.
         14    1    3    3    0    0  0.17287586408E+02  0.23035003525E+02 -0.13051355464E+03  0.13365350716E+03  0.00000000000E+00 0. -1.
         11    1    5    5    0    0 -0.14764277631E+02  0.42882861914E+01  0.53757638599E+01  0.16287176842E+02  0.00000000000E+00 0. -1.
        -12    1    5    5    0    0  0.19864770469E+01  0.19590103866E+02  0.30955656156E+03  0.31018217722E+03  0.00000000000E+00 0.  1.
          5    1    4    4  501    0 -0.20874077115E+02 -0.20251058062E+02  0.18455041421E+03  0.18687471801E+03  0.41800000000E+01 0.  1.
         -5    1    4    4    0  501  0.23243685153E+02 -0.21136230242E+02 -0.87121132516E+01  0.32869171661E+02  0.41800000000E+01 0.  1.
</event>
<event>
11    1  0.6455215E-009  0.1309276E+03  0.7561462E-02  0.1118135E+00
         22   -1    0    0    0    0  0.00000000000E+00  0.00000000000E+00  0.16686991054E+03  0.16686991054E+03  0.00000000000E+00 0. -1.
         22   -1    0    0    0    0 -0.00000000000E+00 -0.00000000000E+00 -0.90424516116E+03  0.90424516116E+03  0.00000000000E+00 0. -1.
        -24    2    1    2    0    0 -0.39061044262E+02 -0.18717795443E+01 -0.79721912291E+03  0.80222811905E+03  0.80513081705E+02 0.  0.
         25    2    1    2    0    0  0.28090247166E+02  0.25935823543E+02 -0.42367369556E+02  0.13749943567E+03  0.12509744952E+03 0.  0.
         24    2    1    2    0    0  0.10970797096E+02 -0.24064043999E+02  0.10221124184E+03  0.13138751699E+03  0.78205530876E+02 0.  0.
        -11    1    5    5    0    0  0.31326949037E+02 -0.71970180403E+01  0.74327546938E+01  0.32991220756E+02  0.00000000000E+00 0.  1.
         12    1    5    5    0    0 -0.20356151941E+02 -0.16867025959E+02  0.94778487149E+02  0.98396296235E+02  0.00000000000E+00 0. -1.
         13    1    3    3    0    0 -0.45912382884E+02  0.28747950072E+02 -0.60973439884E+03  0.61213595602E+03  0.00000000000E+00 0. -1.
        -14    1    3    3    0    0  0.68513386221E+01 -0.30619729616E+02 -0.18748472407E+03  0.19009216302E+03  0.00000000000E+00 0.  1.
          5    1    4    4  501    0  0.18832914034E+02  0.44830579052E+02  0.33147072704E+02  0.58997121099E+02  0.41800000000E+01 0. -1.
         -5    1    4    4    0  501  0.92573331322E+01 -0.18894755509E+02 -0.75514442260E+02  0.78502314567E+02  0.41800000000E+01 0. -1.
</event>
<event>
11    1  0.6455215E-009  0.1298526E+03  0.7561462E-02  0.1119450E+00
         22   -1    0    0    0    0  0.00000000000E+00  0.00000000000E+00  0.19590849116E+03  0.19590849116E+03  0.00000000000E+00 0. -1.
         22   -1    0    0    0    0 -0.00000000000E+00 -0.00000000000E+00 -0.23285798347E+04  0.23285798347E+04  0.00000000000E+00 0.  1.
        -24    2    1    2    0    0 -0.30581454875E+02 -0.18666277767E+02 -0.19335881025E+04  0.19355649537E+04  0.79781481226E+02 0.  0.
         25    2    1    2    0    0  0.16980043967E+02  0.18879159796E+02 -0.37442339297E+03  0.39558149970E+03  0.12508837328E+03 0.  0.
         24    2    1    2    0    0  0.13601410908E+02 -0.21288202925E+00  0.17534015189E+03  0.19334187246E+03  0.80323515138E+02 0.  0.
        -11    1    5    5    0    0 -0.12189927434E+02  0.54637337735E+01 -0.24669757303E+01  0.13584280874E+02  0.00000000000E+00 0.  1.
         12    1    5    5    0    0  0.25791338342E+02 -0.56766158028E+01  0.17780712762E+03  0.17975759158E+03  0.00000000000E+00 0. -1.
         11    1    3    3    0    0 -0.11425708219E+02 -0.26194447427E+02 -0.21940973529E+03  0.22126302860E+03  0.00000000000E+00 0. -1.
        -12    1    3    3    0    0 -0.19155746656E+02  0.75281696600E+01 -0.17141783672E+04  0.17143019252E+04  0.00000000000E+00 0.  1.
          5    1    4    4  501    0  0.65232524743E+02  0.33098602634E+02 -0.26732170303E+03  0.27718074445E+03  0.41800000000E+01 0.  1.
         -5    1    4    4    0  501 -0.48252480776E+02 -0.14219442839E+02 -0.10710168994E+03  0.11840075525E+03  0.41800000000E+01 0.  1.
</event>
<event>
11    1  0.6455215E-009  0.1786826E+03  0.7561462E-02  0.1070713E+00
         22   -1    0    0    0    0  0.00000000000E+00  0.00000000000E+00  0.11744999402E+04  0.11744999402E+04  0.00000000000E+00 0.  1.
         22   -1    0    0    0    0 -0.00000000000E+00 -0.00000000000E+00 -0.22963562414E+04  0.22963562414E+04  0.00000000000E+00 0.  1.
         24    2    1    2    0    0  0.10840039565E+03  0.90063934191E+02 -0.18362252529E+04  0.18435886536E+04  0.85051668746E+02 0.  0.
         25    2    1    2    0    0 -0.61857045374E+02 -0.54913493566E+02 -0.44126443990E+03  0.46605161002E+03  0.12509201193E+03 0.  0.
        -24    2    1    2    0    0 -0.46543350277E+02 -0.35150440625E+02  0.11556333917E+04  0.11612159180E+04  0.97632143201E+02 0.  0.
        -11    1    3    3    0    0  0.65502620640E+02  0.27013329867E+02 -0.13044784079E+04  0.13064012516E+04  0.00000000000E+00 0.  1.
         12    1    3    3    0    0  0.42897775012E+02  0.63050604324E+02 -0.53174684492E+03  0.53718740202E+03  0.00000000000E+00 0. -1.
         13    1    5    5    0    0  0.10487849236E+02 -0.49908928287E+02  0.68779761688E+03  0.68968576750E+03  0.00000000000E+00 0. -1.
        -14    1    5    5    0    0 -0.57031199513E+02  0.14758487662E+02  0.46783577477E+03  0.47153015050E+03  0.00000000000E+00 0.  1.
          5    1    4    4  501    0  0.10104088941E+02 -0.59727346090E+02 -0.98146548533E+02  0.11541085683E+03  0.41800000000E+01 0.  1.
         -5    1    4    4    0  501 -0.71961134315E+02  0.48138525235E+01 -0.34311789137E+03  0.35064075320E+03  0.41800000000E+01 0.  1.
</event>
<event>
11    1  0.6455215E-009  0.1763520E+03  0.7561462E-02  0.1072632E+00
         22   -1    0    0    0    0  0.00000000000E+00  0.00000000000E+00  0.21906108489E+03  0.21906108489E+03  0.00000000000E+00 0.  1.
         22   -1    0    0    0    0 -0.00000000000E+00 -0.00000000000E+00 -0.15652088141E+04  0.15652088141E+04  0.00000000000E+00 0.  1.
         24    2    1    2    0    0  0.54225315596E+02  0.10856135666E+03 -0.13346880103E+04  0.13425688488E+04  0.79831546493E+02 0.  0.
         25    2    1    2    0    0 -0.61770762606E+02 -0.15061418756E+03 -0.15684371702E+03  0.25835650417E+03  0.12509145083E+03 0.  0.
        -24    2    1    2    0    0  0.75454470094E+01  0.42052830906E+02  0.14538399813E+03  0.18334454603E+03  0.10321502453E+03 0.  0.
        -11    1    3    3    0    0  0.70246266801E+02  0.94556152590E+02 -0.12366836017E+04  0.12422808598E+04  0.00000000000E+00 0.  1.
         12    1    3    3    0    0 -0.16020951204E+02  0.14005204067E+02 -0.98004408609E+02  0.10028798894E+03  0.00000000000E+00 0. -1.
         13    1    5    5    0    0 -0.35338901215E+02  0.15302636054E+02  0.11427055100E+02  0.40169468475E+02  0.00000000000E+00 0. -1.
        -14    1    5    5    0    0  0.42884348225E+02  0.26750194852E+02  0.13395694303E+03  0.14317507756E+03  0.00000000000E+00 0.  1.
          5    1    4    4  501    0  0.19260796027E+01 -0.18667972196E+02  0.20615930215E+02  0.28190281077E+02  0.41800000000E+01 0.  1.
         -5    1    4    4    0  501 -0.63696842208E+02 -0.13194621537E+03 -0.17745964724E+03  0.23016622310E+03  0.41800000000E+01 0.  1.
</event>
<event>
11    1  0.6455215E-009  0.1409458E+03  0.7561462E-02  0.1106507E+00
         22   -1    0    0    0    0  0.00000000000E+00  0.00000000000E+00  0.11609585104E+03  0.11609585104E+03  0.00000000000E+00 0.  1.
         22   -1    0    0    0    0 -0.00000000000E+00 -0.00000000000E+00 -0.84723618948E+03  0.84723618948E+03  0.00000000000E+00 0.  1.
         24    2    1    2    0    0  0.49533267862E+02  0.42539245080E+02 -0.71846219735E+03  0.72624071675E+03  0.83513577707E+02 0.  0.
         25    2    1    2    0    0 -0.35628458373E+02 -0.51422815706E+02 -0.54716472599E+02  0.15018476948E+03  0.12509148488E+03 0.  0.
        -24    2    1    2    0    0 -0.13904809490E+02  0.88835706251E+01  0.42038331511E+02  0.86906554286E+02  0.74251372429E+02 0.  0.
        -13    1    3    3    0    0  0.22043304259E+02  0.65735362121E+02 -0.51125379129E+03  0.51593360445E+03  0.00000000000E+00 0.  1.
         14    1    3    3    0    0  0.27489963603E+02 -0.23196117041E+02 -0.20720840606E+03  0.21030711230E+03  0.00000000000E+00 0. -1.
         11    1    5    5    0    0 -0.27396615715E+02  0.14200055113E+02 -0.10350556606E+02  0.32547659515E+02  0.00000000000E+00 0. -1.
        -12    1    5    5    0    0  0.13491806226E+02 -0.53164844875E+01  0.52388888117E+02  0.54358894771E+02  0.00000000000E+00 0.  1.
          5    1    4    4  501    0 -0.38929252568E+02  0.13433734644E+02 -0.71824499834E+02  0.82898631523E+02  0.41800000000E+01 0. -1.
         -5    1    4    4    0  501  0.33007941957E+01 -0.64856550350E+02  0.17108027234E+02  0.67286137959E+02  0.41800000000E+01 0. -1.
</event>
<event>
11    1  0.6455215E-009  0.2299339E+03  0.7561462E-02  0.1035167E+00
         22   -1    0    0    0    0  0.00000000000E+00  0.00000000000E+00  0.11365129519E+04  0.11365129519E+04  0.00000000000E+00 0.  1.
         22   -1    0    0    0    0 -0.00000000000E+00 -0.00000000000E+00 -0.80450115873E+03  0.80450115873E+03  0.00000000000E+00 0. -1.
         24    2    1    2    0    0  0.15699271348E+03 -0.11827291726E+03 -0.76369506567E+03  0.79282488993E+03  0.81889912178E+02 0.  0.
         25    2    1    2    0    0 -0.40886054172E+02  0.10976906149E+03  0.35735536467E+03  0.39632166374E+03  0.12508832163E+03 0.  0.
        -24    2    1    2    0    0 -0.11610665931E+03  0.85038557731E+01  0.73835149414E+03  0.75186755692E+03  0.81171561164E+02 0.  0.
        -13    1    3    3    0    0 -0.83039786488E+01 -0.81894590652E+01 -0.80814915054E+02  0.81652151205E+02  0.00000000000E+00 0.  1.
         14    1    3    3    0    0  0.16529669213E+03 -0.11008345820E+03 -0.68288015062E+03  0.71117273873E+03  0.00000000000E+00 0. -1.
         11    1    5    5    0    0 -0.10540579658E+03  0.23765753053E+02  0.70837533197E+03  0.71656877124E+03  0.00000000000E+00 0. -1.
        -12    1    5    5    0    0 -0.10700862726E+02 -0.15261897280E+02  0.29976162171E+02  0.35298785676E+02  0.00000000000E+00 0.  1.
          5    1    4    4  501    0 -0.19685789799E+02  0.36474763757E+02  0.29434932637E+03  0.29728258786E+03  0.41800000000E+01 0. -1.
         -5    1    4    4    0  501 -0.21200264373E+02  0.73294297732E+02  0.63006038303E+02  0.99039075885E+02  0.41800000000E+01 0. -1.
</event>
<event>
11    1  0.6455215E-009  0.1444689E+03  0.7561462E-02  0.1102668E+00
         22   -1    0    0    0    0  0.00000000000E+00  0.00000000000E+00  0.15066685271E+03  0.15066685271E+03  0.00000000000E+00 0. -1.
         22   -1    0    0    0    0 -0.00000000000E+00 -0.00000000000E+00 -0.11239713937E+04  0.11239713937E+04  0.00000000000E+00 0.  1.
         24    2    1    2    0    0 -0.12039977875E+02 -0.63119251291E+02 -0.71492482129E+03  0.72255057493E+03  0.82660947731E+02 0.  0.
         25    2    1    2    0    0 -0.54126451589E+02  0.89728041639E+02 -0.36042528639E+03  0.39564543685E+03  0.12509248743E+03 0.  0.
        -24    2    1    2    0    0  0.66166429465E+02 -0.26608790348E+02  0.10204556668E+03  0.15644223465E+03  0.94735690168E+02 0.  0.
        -11    1    3    3    0    0  0.78980483209E+01 -0.65841064371E+02 -0.67061245733E+03  0.67388314481E+03  0.00000000000E+00 0.  1.
         12    1    3    3    0    0 -0.19938026196E+02  0.27218130797E+01 -0.44312363961E+02  0.48667430124E+02  0.00000000000E+00 0. -1.
         11    1    5    5    0    0  0.48228044902E+02 -0.60619347751E+02  0.83000003840E+02  0.11353259565E+03  0.00000000000E+00 0. -1.
        -12    1    5    5    0    0  0.17938384563E+02  0.34010557403E+02  0.19045562839E+02  0.42909639003E+02  0.00000000000E+00 0.  1.
          5    1    4    4  501    0 -0.56856161906E+02  0.68666709660E+02 -0.36303440828E+03  0.37384380984E+03  0.41800000000E+01 0.  1.
         -5    1    4    4    0  501  0.27297103170E+01  0.21061331979E+02  0.26091218892E+01  0.21801627008E+02  0.41800000000E+01 0.  1.
</event>
<event>
11    1  0.6455215E-009  0.1343603E+03  0.7561462E-02  0.1114025E+00
         22   -1    0    0    0    0  0.00000000000E+00  0.00000000000E+00  0.84795629850E+03  0.84795629850E+03  0.00000000000E+00 0.  1.
         22   -1    0    0    0    0 -0.00000000000E+00 -0.00000000000E+00 -0.83265445225E+03  0.83265445225E+03  0.00000000000E+00 0. -1.
        -24    2    1    2    0    0 -0.24968761864E+02  0.33714553889E+02 -0.79832187006E+03  0.80283789989E+03  0.73964687959E+02 0.  0.
         25    2    1    2    0    0  0.52817384498E+02 -0.68734967669E+02  0.17238087237E+03  0.22994912308E+03  0.12508901694E+03 0.  0.
         24    2    1    2    0    0 -0.27848622634E+02  0.35020413780E+02  0.64124284394E+03  0.64782372779E+03  0.80506038394E+02 0.  0.
        -13    1    5    5    0    0 -0.54826349105E+02  0.11480078184E+02  0.41558622500E+03  0.41934428715E+03  0.00000000000E+00 0.  1.
         14    1    5    5    0    0  0.26977726471E+02  0.23540335595E+02  0.22565661894E+03  0.22847944064E+03  0.00000000000E+00 0. -1.
         13    1    3    3    0    0 -0.20800729713E+02  0.57220007779E+02 -0.60157689623E+03  0.60464994974E+03  0.00000000000E+00 0. -1.
        -14    1    3    3    0    0 -0.41680321510E+01 -0.23505453889E+02 -0.19674497384E+03  0.19818795015E+03  0.00000000000E+00 0.  1.
          5    1    4    4  501    0  0.66490573550E+02 -0.33491475159E+02  0.17658603601E+03  0.19168405200E+03  0.41800000000E+01 0.  1.
         -5    1    4    4    0  501 -0.13673189052E+02 -0.35243492510E+02 -0.42051636349E+01  0.38265071075E+02  0.41800000000E+01 0.  1.
</event>
<event>
11    1  0.6455215E-009  0.1552349E+03  0.7561462E-02  0.1091647E+00
         22   -1    0    0    0    0  0.00000000000E+00  0.00000000000E+00  0.10997074190E+04  0.10997074190E+04  0.00000000000E+00 0. -1.
         22   -1    0    0    0    0 -0.00000000000E+00 -0.00000000000E+00 -0.49818235162E+03  0.49818235162E+03  0.00000000000E+00 0. -1.
         24    2    1    2    0    0 -0.14056724877E+02  0.91183616329E+02 -0.44237660119E+03  0.45756888455E+03  0.71834416736E+02 0.  0.
         25    2    1    2    0    0 -0.20518538874E+01 -0.88611673351E+02  0.80009624720E+02  0.17290169728E+03  0.12504886292E+03 0.  0.
        -24    2    1    2    0    0  0.16108578765E+02 -0.25719429779E+01  0.96389204382E+03  0.96741918875E+03  0.80906819404E+02 0.  0.
        -13    1    3    3    0    0  0.22590231972E+02  0.49572976146E+02 -0.14147812299E+03  0.15160428037E+03  0.00000000000E+00 0.  1.
         14    1    3    3    0    0 -0.36646956849E+02  0.41610640182E+02 -0.30089847821E+03  0.30596460418E+03  0.00000000000E+00 0. -1.
         13    1    5    5    0    0 -0.22916531769E+02  0.76368495131E+01  0.70408869643E+03  0.70450293210E+03  0.00000000000E+00 0. -1.
        -14    1    5    5    0    0  0.39025110534E+02 -0.10208792491E+02  0.25980334739E+03  0.26291625665E+03  0.00000000000E+00 0.  1.
          5    1    4    4  501    0 -0.20899337721E+02 -0.30651962888E+02  0.10149478795E+03  0.10814337486E+03  0.41800000000E+01 0.  1.
         -5    1    4    4    0  501  0.18847483834E+02 -0.57959710463E+02 -0.21485163228E+02  0.64758322420E+02  0.41800000000E+01 0.  1.
</event>
<event>
11    1  0.6455215E-009  0.1397939E+03  0.7561462E-02  0.1107789E+00
         22   -1    0    0    0    0  0.00000000000E+00  0.00000000000E+00  0.26766086711E+04  0.26766086711E+04  0.00000000000E+00 0. -1.
         22   -1    0    0    0    0 -0.00000000000E+00 -0.00000000000E+00 -0.10222604742E+03  0.10222604742E+03  0.00000000000E+00 0.  1.
         24    2    1    2    0    0 -0.50982152384E+02 -0.35021563538E+02 -0.53989368149E+02  0.11468953937E+03  0.80082137786E+02 0.  0.
         25    2    1    2    0    0  0.80760415947E+02  0.98368038722E+00  0.31113120096E+03  0.34492400241E+03  0.12508689306E+03 0.  0.
        -24    2    1    2    0    0 -0.29778263563E+02  0.34037883151E+02  0.23172407909E+04  0.23192211767E+04  0.84478762488E+02 0.  0.
        -13    1    3    3    0    0 -0.41181201568E+02 -0.53372145215E+02 -0.62767114865E+02  0.92109651806E+02  0.00000000000E+00 0.  1.
         14    1    3    3    0    0 -0.98009508161E+01  0.18350581677E+02  0.87777467155E+01  0.22579887559E+02  0.00000000000E+00 0. -1.
         11    1    5    5    0    0 -0.56982224091E+02  0.32981349116E+02  0.18649286660E+04  0.18660904781E+04  0.00000000000E+00 0. -1.
        -12    1    5    5    0    0  0.27203960528E+02  0.10565340346E+01  0.45231212484E+03  0.45313069860E+03  0.00000000000E+00 0.  1.
          5    1    4    4  501    0  0.61829927377E+01  0.41179520495E+02  0.20415166858E+03  0.20839711728E+03  0.41800000000E+01 0. -1.
         -5    1    4    4    0  501  0.74577423209E+02 -0.40195840107E+02  0.10697953238E+03  0.13652688513E+03  0.41800000000E+01 0. -1.
</event>
<event>
11    1  0.6455215E-009  0.1303663E+03  0.7561462E-02  0.1118820E+00
         22   -1    0    0    0    0  0.00000000000E+00  0.00000000000E+00  0.28039713619E+02  0.28039713619E+02  0.00000000000E+00 0. -1.
         22   -1    0    0    0    0 -0.00000000000E+00 -0.00000000000E+00 -0.14746138165E+04  0.14746138165E+04  0.00000000000E+00 0. -1.
        -24    2    1    2    0    0  0.13302430628E+01  0.24092113251E+02 -0.94046454328E+03  0.94411537946E+03  0.79360526133E+02 0.  0.
         25    2    1    2    0    0  0.16685733112E+02  0.14177345026E+02 -0.38750264482E+03  0.40778101056E+03  0.12509053531E+03 0.  0.
         24    2    1    2    0    0 -0.18015976175E+02 -0.38269458277E+02 -0.11860691480E+03  0.15075714012E+03  0.82891424311E+02 0.  0.
        -11    1    5    5    0    0  0.14377178953E+02 -0.67593756175E+01 -0.10102522726E+03  0.10226675401E+03  0.00000000000E+00 0.  1.
         12    1    5    5    0    0 -0.32393155128E+02 -0.31510082659E+02 -0.17581687547E+02  0.48490386113E+02  0.00000000000E+00 0. -1.
         13    1    3    3    0    0 -0.10890428767E+02  0.47634312150E+02 -0.77494066296E+03  0.77647965861E+03  0.00000000000E+00 0. -1.
        -14    1    3    3    0    0  0.12220671830E+02 -0.23542198899E+02 -0.16552388032E+03  0.16763572085E+03  0.00000000000E+00 0.  1.
          5    1    4    4  501    0 -0.40389961688E+02 -0.29153145076E+02 -0.21888175315E+03  0.22451714664E+03  0.41800000000E+01 0.  1.
         -5    1    4    4    0  501  0.57075694800E+02  0.43330490103E+02 -0.16862089167E+03  0.18326386392E+03  0.41800000000E+01 0.  1.
</event>
<event>
11    1  0.6455215E-009  0.1369468E+03  0.7561462E-02  0.1111016E+00
         22   -1    0    0    0    0  0.00000000000E+00  0.00000000000E+00  0.29849714831E+03  0.29849714831E+03  0.00000000000E+00 0.  1.
         22   -1    0    0    0    0 -0.00000000000E+00 -0.00000000000E+00 -0.62090417530E+03  0.62090417530E+03  0.00000000000E+00 0.  1.
        -24    2    1    2    0    0  0.46832357431E+02 -0.30863524528E+02 -0.53557280611E+03  0.54439831829E+03  0.79909145041E+02 0.  0.
         25    2    1    2    0    0 -0.53730773382E+02  0.10120114793E+02 -0.98296551036E+01  0.13687155973E+03  0.12509112284E+03 0.  0.
         24    2    1    2    0    0  0.68984159516E+01  0.20743409735E+02  0.22299543422E+03  0.23813144559E+03  0.80633395702E+02 0.  0.
        -13    1    5    5    0    0 -0.16752746039E+02 -0.83055004066E+01  0.18056855007E+03  0.18153412107E+03  0.00000000000E+00 0.  1.
         14    1    5    5    0    0  0.23651161990E+02  0.29048910141E+02  0.42426884153E+02  0.56597324520E+02  0.00000000000E+00 0. -1.
         13    1    3    3    0    0 -0.13728608231E+02 -0.10792839093E+02 -0.29210604264E+02  0.34032623483E+02  0.00000000000E+00 0. -1.
        -14    1    3    3    0    0  0.60560965661E+02 -0.20070685435E+02 -0.50636220184E+03  0.51036569480E+03  0.00000000000E+00 0.  1.
          5    1    4    4  501    0 -0.15183045480E+01  0.58623708582E+01 -0.62227196188E+02  0.62660745177E+02  0.41800000000E+01 0. -1.
         -5    1    4    4    0  501 -0.52212468834E+02  0.42577439350E+01  0.52397541084E+02  0.74210814554E+02  0.41800000000E+01 0. -1.
</event>
<event>
11    1  0.6455215E-009  0.1731533E+03  0.7561462E-02  0.1075320E+00
         22   -1    0    0    0    0  0.00000000000E+00  0.00000000000E+00  0.92217870252E+03  0.92217870252E+03  0.00000000000E+00 0.  1.
         22   -1    0    0    0    0 -0.00000000000E+00 -0.00000000000E+00 -0.24932806653E+03  0.24932806653E+03  0.00000000000E+00 0.  1.
        -24    2    1    2    0    0 -0.91712624413E+02 -0.67760709565E+02 -0.99124087134E+02  0.17118856220E+03  0.80481177562E+02 0.  0.
         25    2    1    2    0    0  0.13074753940E+03  0.40436957699E+02 -0.34515116702E+02  0.18859622312E+03  0.12508867049E+03 0.  0.
         24    2    1    2    0    0 -0.39034914991E+02  0.27323751866E+02  0.80648983983E+03  0.81172198374E+03  0.78717247957E+02 0.  0.
        -13    1    5    5    0    0  0.19983990410E+02  0.20935063198E+02  0.38295603459E+03  0.38404812352E+03  0.00000000000E+00 0.  1.
         14    1    5    5    0    0 -0.59018905401E+02  0.63886886677E+01  0.42353380524E+03  0.42767386022E+03  0.00000000000E+00 0. -1.
         13    1    3    3    0    0 -0.23216219603E+02  0.10914077881E+02 -0.49324043575E+02  0.55596503696E+02  0.00000000000E+00 0. -1.
        -14    1    3    3    0    0 -0.68496404810E+02 -0.78674787446E+02 -0.49800043559E+02  0.11559205851E+03  0.00000000000E+00 0.  1.
          5    1    4    4  501    0  0.67979449046E+02 -0.30921342740E+02  0.21975023397E+02  0.77959662536E+02  0.41800000000E+01 0.  1.
         -5    1    4    4    0  501  0.62768090358E+02  0.71358300439E+02 -0.56490140099E+02  0.11063656058E+03  0.41800000000E+01 0.  1.
</event>
<event>
11    1  0.6455215E-009  0.1666210E+03  0.7561462E-02  0.1081010E+00
         22   -1    0    0    0    0  0.00000000000E+00  0.00000000000E+00  0.57527640237E+02  0.57527640237E+02  0.00000000000E+00 0. -1.
         22   -1    0    0    0    0 -0.00000000000E+00 -0.00000000000E+00 -0.13376951593E+04  0.13376951593E+04  0.00000000000E+00 0.  1.
        -24    2    1    2    0    0  0.20516214062E+02  0.40606840842E+02 -0.54449075147E+03  0.55253149990E+03  0.82164769761E+02 0.  0.
         25    2    1    2    0    0 -0.49797772147E+02 -0.14049654322E+03 -0.66991563259E+03  0.69760454907E+03  0.12508419296E+03 0.  0.
         24    2    1    2    0    0  0.29281558084E+02  0.99889702377E+02 -0.65761134970E+02  0.14508675053E+03  0.76748133665E+02 0.  0.
        -13    1    5    5    0    0  0.19875913422E+01 -0.27752062196E+01 -0.34054108821E+02  0.34224766128E+02  0.00000000000E+00 0.  1.
         14    1    5    5    0    0  0.27293966742E+02  0.10266490860E+03 -0.31707026149E+02  0.11086198440E+03  0.00000000000E+00 0. -1.
         13    1    3    3    0    0 -0.90503115934E+01  0.54032671780E+02 -0.23306836446E+03  0.23942075991E+03  0.00000000000E+00 0. -1.
        -14    1    3    3    0    0  0.29566525656E+02 -0.13425830938E+02 -0.31142238700E+03  0.31311074000E+03  0.00000000000E+00 0.  1.
          5    1    4    4  501    0 -0.58794115752E+01 -0.62042146135E+02 -0.51234800231E+03  0.51614120476E+03  0.41800000000E+01 0.  1.
         -5    1    4    4    0  501 -0.43918360571E+02 -0.78454397083E+02 -0.15756763028E+03  0.18146334431E+03  0.41800000000E+01 0.  1.
</event>
<event>
11    1  0.6455215E-009  0.1488378E+03  0.7561462E-02  0.1098072E+00
         22   -1    0    0    0    0  0.00000000000E+00  0.00000000000E+00  0.53661853935E+02  0.53661853935E+02  0.00000000000E+00 0.  1.
         22   -1    0    0    0    0 -0.00000000000E+00 -0.00000000000E+00 -0.99832522882E+03  0.99832522882E+03  0.00000000000E+00 0. -1.
        -24    2    1    2    0    0 -0.25357889927E+02  0.79329859995E+02 -0.73808017292E+03  0.74618783247E+03  0.71398112017E+02 0.  0.
         25    2    1    2    0    0  0.10906976570E+01 -0.63051784760E+02 -0.12823101235E+03  0.18991528158E+03  0.12509158432E+03 0.  0.
         24    2    1    2    0    0  0.24267192270E+02 -0.16278075235E+02 -0.78352189621E+02  0.11588396870E+03  0.80225658179E+02 0.  0.
        -11    1    5    5    0    0 -0.14456318528E+02  0.14746117922E+02  0.27243207341E+01  0.20829187757E+02  0.00000000000E+00 0.  1.
         12    1    5    5    0    0  0.38723510799E+02 -0.31024193157E+02 -0.81076510356E+02  0.95054780948E+02  0.00000000000E+00 0. -1.
         11    1    3    3    0    0 -0.40153797120E+02  0.75270573787E+02 -0.69927430212E+03  0.70445903806E+03  0.00000000000E+00 0. -1.
        -12    1    3    3    0    0  0.14795907192E+02  0.40592862082E+01 -0.38805870793E+02  0.41728794401E+02  0.00000000000E+00 0.  1.
          5    1    4    4  501    0  0.20500905753E+02 -0.10190648658E+00  0.19190687761E+02  0.28391062298E+02  0.41800000000E+01 0. -1.
         -5    1    4    4    0  501 -0.19410208096E+02 -0.62949878273E+02 -0.14742170011E+03  0.16152421929E+03  0.41800000000E+01 0. -1.
</event>
<event>
11    1  0.6455215E-009  0.1515219E+03  0.7561462E-02  0.1095334E+00
         22   -1    0    0    0    0  0.00000000000E+00  0.00000000000E+00  0.23550743050E+03  0.23550743050E+03  0.00000000000E+00 0. -1.
         22   -1    0    0    0    0 -0.00000000000E+00 -0.00000000000E+00 -0.21525095941E+03  0.21525095941E+03  0.00000000000E+00 0.  1.
         24    2    1    2    0    0 -0.30950616061E+02 -0.25792423317E+02 -0.95234289175E+02  0.13308334828E+03  0.83775999074E+02 0.  0.
         25    2    1    2    0    0 -0.37089684270E+02  0.79890300369E+02 -0.21675218688E-01  0.15300488195E+03  0.12510950667E+03 0.  0.
        -24    2    1    2    0    0  0.68040300331E+02 -0.54097877052E+02  0.11551243549E+03  0.16467015967E+03  0.78848436653E+02 0.  0.
        -13    1    3    3    0    0  0.17045802216E+02 -0.38075605640E+02 -0.56304018783E+02  0.70074629140E+02  0.00000000000E+00 0.  1.
         14    1    3    3    0    0 -0.47996418277E+02  0.12283182323E+02 -0.38930270392E+02  0.63008719144E+02  0.00000000000E+00 0. -1.
         11    1    5    5    0    0  0.37099103649E+02 -0.71423521546E+02  0.91411072348E+02  0.12179346070E+03  0.00000000000E+00 0. -1.
        -12    1    5    5    0    0  0.30941196682E+02  0.17325644494E+02  0.24101363137E+02  0.42876698967E+02  0.00000000000E+00 0.  1.
          5    1    4    4  501    0 -0.40240060990E+02  0.16446694270E+02  0.54044859190E+02  0.69484354108E+02  0.41800000000E+01 0. -1.
         -5    1    4    4    0  501  0.31503767205E+01  0.63443606099E+02 -0.54066534409E+02  0.83520527844E+02  0.41800000000E+01 0. -1.
</event>
<event>
11    1  0.6455215E-009  0.1321217E+03  0.7561462E-02  0.1116689E+00
         22   -1    0    0    0    0  0.00000000000E+00  0.00000000000E+00  0.11308536837E+03  0.11308536837E+03  0.00000000000E+00 0. -1.
         22   -1    0    0    0    0 -0.00000000000E+00 -0.00000000000E+00 -0.45104697209E+03  0.45104697209E+03  0.00000000000E+00 0. -1.
         24    2    1    2    0    0  0.34561066922E+02  0.24754253840E+02 -0.32858570146E+03  0.34119252154E+03  0.81464919571E+02 0.  0.
         25    2    1    2    0    0 -0.39718407338E+02 -0.17581844078E+02 -0.44910128450E+02  0.13982584305E+03  0.12509066162E+03 0.  0.
        -24    2    1    2    0    0  0.51573404152E+01 -0.71724097613E+01  0.35534226195E+02  0.83113975867E+02  0.74613739561E+02 0.  0.
        -11    1    3    3    0    0 -0.26624305463E+02  0.33931800899E+01 -0.10788877009E+03  0.11117712905E+03  0.00000000000E+00 0.  1.
         12    1    3    3    0    0  0.61185372385E+02  0.21361073750E+02 -0.22069693137E+03  0.23001539249E+03  0.00000000000E+00 0. -1.
         11    1    5    5    0    0  0.30213270690E+02  0.11396340042E+02  0.40218571303E+02  0.51577628579E+02  0.00000000000E+00 0. -1.
        -12    1    5    5    0    0 -0.25055930275E+02 -0.18568749803E+02 -0.46843451081E+01  0.31536347288E+02  0.00000000000E+00 0.  1.
          5    1    4    4  501    0 -0.11752582520E+01 -0.16686611455E+02 -0.83414295467E+02  0.85177704372E+02  0.41800000000E+01 0. -1.
         -5    1    4    4    0  501 -0.38543149086E+02 -0.89523262328E+00  0.38504167017E+02  0.54648138674E+02  0.41800000000E+01 0. -1.
</event>
<event>
11    1  0.6455215E-009  0.1557522E+03  0.7561462E-02  0.1091142E+00
         22   -1    0    0    0    0  0.00000000000E+00  0.00000000000E+00  0.35313228069E+03  0.35313228069E+03  0.00000000000E+00 0.  1.
         22   -1    0    0    0    0 -0.00000000000E+00 -0.00000000000E+00 -0.27040297153E+03  0.27040297153E+03  0.00000000000E+00 0. -1.
        -24    2    1    2    0    0  0.63001959824E+02 -0.65836692612E+02 -0.17126430983E+03  0.21015985109E+03  0.80820678992E+02 0.  0.
         25    2    1    2    0    0 -0.73705153860E+02  0.68346665619E+02  0.14945368395E+02  0.16116570932E+03  0.12508918984E+03 0.  0.
         24    2    1    2    0    0  0.10703194036E+02 -0.25099730067E+01  0.23904825059E+03  0.25220969181E+03  0.79654279257E+02 0.  0.
        -11    1    5    5    0    0  0.28182575170E+02  0.30037163795E+02  0.95898493084E+02  0.10436958239E+03  0.00000000000E+00 0.  1.
         12    1    5    5    0    0 -0.17479381134E+02 -0.32547136802E+02  0.14314975751E+03  0.14784010942E+03  0.00000000000E+00 0. -1.
         11    1    3    3    0    0  0.82150161141E+02 -0.56052169786E+02 -0.14956090778E+03  0.17960779451E+03  0.00000000000E+00 0. -1.
        -12    1    3    3    0    0 -0.19148201317E+02 -0.97845228269E+01 -0.21703402047E+02  0.30552056576E+02  0.00000000000E+00 0.  1.
          5    1    4    4  501    0 -0.10188277515E+03  0.44649071087E+02 -0.16544528983E+02  0.11253814136E+03  0.41800000000E+01 0.  1.
         -5    1    4    4    0  501  0.28177621292E+02  0.23697594532E+02  0.31489897378E+02  0.48627567955E+02  0.41800000000E+01 0.  1.
</event>
<event>
11    1  0.6455215E-009  0.1406592E+03  0.7561462E-02  0.1106825E+00
         22   -1    0    0    0    0  0.00000000000E+00  0.00000000000E+00  0.50656069804E+03  0.50656069804E+03  0.00000000000E+00 0.  1.
         22   -1    0    0    0    0 -0.00000000000E+00 -0.00000000000E+00 -0.95082243128E+03  0.95082243128E+03  0.00000000000E+00 0. -1.
        -24    2    1    2    0    0 -0.29673382374E+01  0.25189428901E+01 -0.86399526799E+03  0.86798511198E+03  0.83037228704E+02 0.  0.
         25    2    1    2    0    0 -0.57733027259E+02 -0.24222259122E+02 -0.16802296841E+02  0.14088720643E+03  0.12508823879E+03 0.  0.
         24    2    1    2    0    0  0.60700365496E+02  0.21703316232E+02  0.43653583159E+03  0.44851081090E+03  0.80267346575E+02 0.  0.
        -11    1    5    5    0    0  0.52067456734E+01  0.11221699914E+02  0.30639368295E+03  0.30664332000E+03  0.00000000000E+00 0.  1.
         12    1    5    5    0    0  0.55493619823E+02  0.10481616318E+02  0.13014214864E+03  0.14186749090E+03  0.00000000000E+00 0. -1.
         11    1    3    3    0    0  0.11900603307E+02 -0.53403627668E+00 -0.83645031361E+03  0.83653513775E+03  0.00000000000E+00 0. -1.
        -12    1    3    3    0    0 -0.14867941545E+02  0.30529791668E+01 -0.27544954378E+02  0.31449974233E+02  0.00000000000E+00 0.  1.
          5    1    4    4  501    0 -0.25475056917E+02  0.23583085629E+02  0.44515674427E+02  0.56606166823E+02  0.41800000000E+01 0.  1.
         -5    1    4    4    0  501 -0.32257970342E+02 -0.47805344752E+02 -0.61317971268E+02  0.84281039611E+02  0.41800000000E+01 0.  1.
</event>
<event>
11    1  0.6455215E-009  0.1471304E+03  0.7561462E-02  0.1099848E+00
         22   -1    0    0    0    0  0.00000000000E+00  0.00000000000E+00  0.11210610844E+04  0.11210610844E+04  0.00000000000E+00 0.  1.
         22   -1    0    0    0    0 -0.00000000000E+00 -0.00000000000E+00 -0.10012913606E+03  0.10012913606E+03  0.00000000000E+00 0. -1.
         24    2    1    2    0    0  0.84542020551E+01  0.77849410761E+02 -0.35508312465E+02  0.12047910450E+03  0.84394135337E+02 0.  0.
         25    2    1    2    0    0  0.35007628213E+02 -0.74390322129E+02  0.26778534854E+03  0.30678379088E+03  0.12509135619E+03 0.  0.
        -24    2    1    2    0    0 -0.43461830268E+02 -0.34590886323E+01  0.78865491228E+03  0.79392732511E+03  0.80269115441E+02 0.  0.
        -11    1    3    3    0    0  0.44485620760E+02  0.30299151931E+02 -0.67362921416E+01  0.54243771015E+02  0.00000000000E+00 0.  1.
         12    1    3    3    0    0 -0.36031418705E+02  0.47550258830E+02 -0.28772020323E+02  0.66235333487E+02  0.00000000000E+00 0. -1.
         13    1    5    5    0    0 -0.57022649857E+02 -0.13979881535E+02  0.34645789296E+03  0.35139734102E+03  0.00000000000E+00 0. -1.
        -14    1    5    5    0    0  0.13560819589E+02  0.10520792903E+02  0.44219701933E+03  0.44252998409E+03  0.00000000000E+00 0.  1.
          5    1    4    4  501    0  0.81256492249E+02 -0.40930096837E+02  0.18409348105E+03  0.20539175379E+03  0.41800000000E+01 0. -1.
         -5    1    4    4    0  501 -0.46248864036E+02 -0.33460225292E+02  0.83691867498E+02  0.10139203710E+03  0.41800000000E+01 0. -1.
</event>
<event>
11    1  0.6455215E-009  0.1446986E+03  0.7561462E-02  0.1102422E+00
         22   -1    0    0    0    0  0.00000000000E+00  0.00000000000E+00  0.13551081066E+04  0.13551081066E+04  0.00000000000E+00 0.  1.
         22   -1    0    0    0    0 -0.00000000000E+00 -0.00000000000E+00 -0.24913642671E+03  0.24913642671E+03  0.00000000000E+00 0.  1.
        -24    2    1    2    0    0  0.52481228496E+02 -0.50895030107E+02 -0.21601127567E+03  0.24039245344E+03  0.76046545118E+02 0.  0.
         25    2    1    2    0    0 -0.54026426428E+02  0.37021546480E+02  0.23801357591E+03  0.27674742894E+03  0.12509687227E+03 0.  0.
         24    2    1    2    0    0  0.15451979320E+01  0.13873483627E+02  0.10839693796E+04  0.10871046509E+04  0.81314481404E+02 0.  0.
        -11    1    5    5    0    0  0.66928351432E+01 -0.16883267642E+02  0.92096768700E+03  0.92114674144E+03  0.00000000000E+00 0.  1.
         12    1    5    5    0    0 -0.51476372112E+01  0.30756751270E+02  0.16300169261E+03  0.16595790946E+03  0.00000000000E+00 0. -1.
         11    1    3    3    0    0  0.17259662903E+02  0.67805811211E+01 -0.55639385924E+01  0.19360517981E+02  0.00000000000E+00 0. -1.
        -12    1    3    3    0    0  0.35221565593E+02 -0.57675611228E+02 -0.21044733707E+03  0.22103193546E+03  0.00000000000E+00 0.  1.
          5    1    4    4  501    0  0.34218778495E+02  0.39561638604E+02  0.79406784043E+02  0.95178557474E+02  0.41800000000E+01 0. -1.
         -5    1    4    4    0  501 -0.88245204923E+02 -0.25400921244E+01  0.15860679187E+03  0.18156887147E+03  0.41800000000E+01 0. -1.
</event>
<event>
11    1  0.6455215E-009  0.2527333E+03  0.7561462E-02  0.1022453E+00
         22   -1    0    0    0    0  0.00000000000E+00  0.00000000000E+00  0.27170364970E+04  0.27170364970E+04  0.00000000000E+00 0.  1.
         22   -1    0    0    0    0 -0.00000000000E+00 -0.00000000000E+00 -0.10394343056E+03  0.10394343056E+03  0.00000000000E+00 0. -1.
        -24    2    1    2    0    0  0.25031906994E+02 -0.87654590982E+01 -0.54255119918E+02  0.10045114554E+03  0.80270698030E+02 0.  0.
         25    2    1    2    0    0 -0.34122203427E+02  0.22536151584E+03  0.85930888483E+03  0.89778155205E+03  0.12509123898E+03 0.  0.
         24    2    1    2    0    0  0.90902964325E+01 -0.21659605674E+03  0.18080393015E+04  0.18227472300E+04  0.80030389237E+02 0.  0.
        -11    1    5    5    0    0 -0.32994187890E+02 -0.10792264317E+03  0.99992001469E+03  0.10062683286E+04  0.00000000000E+00 0.  1.
         12    1    5    5    0    0  0.42084484323E+02 -0.10867341357E+03  0.80811928683E+03  0.81647890137E+03  0.00000000000E+00 0. -1.
         11    1    3    3    0    0  0.19211766860E+02 -0.33584935838E+01 -0.75390378494E+02  0.77872207074E+02  0.00000000000E+00 0. -1.
        -12    1    3    3    0    0  0.58201401343E+01 -0.54069655144E+01  0.21135258576E+02  0.22578938468E+02  0.00000000000E+00 0.  1.
          5    1    4    4  501    0  0.23595340166E+02  0.49675672619E+02  0.82385836162E+02  0.99142881378E+02  0.41800000000E+01 0.  1.
         -5    1    4    4    0  501 -0.57717543593E+02  0.17568584322E+03  0.77692304866E+03  0.79863867067E+03  0.41800000000E+01 0.  1.
</event>
<event>
11    1  0.7390449E-009  0.1671579E+03  0.7561462E-02  0.1080532E+00
         22   -1    0    0    0    0  0.00000000000E+00  0.00000000000E+00  0.11460247892E+04  0.11460247892E+04  0.00000000000E+00 0.  1.
         22   -1    0    0    0    0 -0.00000000000E+00 -0.00000000000E+00 -0.45830174834E+03  0.45830174834E+03  0.00000000000E+00 0.  1.
        -24    2    1    2    0    0 -0.82301246827E+02 -0.99970100911E+01 -0.35346300219E+03  0.37326689215E+03  0.86710111427E+02 0.  0.
         25    2    1    2    0    0  0.29709090168E+02 -0.90108452619E+02 -0.22260589493E+02  0.15857003261E+03  0.12508700222E+03 0.  0.
         24    2    1    2    0    0  0.52592156660E+02  0.10010546271E+03  0.10634466326E+04  0.10724896128E+04  0.80797219180E+02 0.  0.
        -13    1    5    5    0    0  0.53588856737E+02  0.94761178899E+02  0.65340267092E+03  0.66240961418E+03  0.00000000000E+00 0.  1.
         14    1    5    5    0    0 -0.99670007730E+00  0.53442838111E+01  0.41004396164E+03  0.41007999861E+03  0.00000000000E+00 0. -1.
         11    1    3    3    0    0 -0.69116944638E+02 -0.19608429305E+02 -0.12464597990E+03  0.14386890853E+03  0.00000000000E+00 0. -1.
        -12    1    3    3    0    0 -0.13184302189E+02  0.96114192136E+01 -0.22881702229E+03  0.22939798363E+03  0.00000000000E+00 0.  1.
          5    1    4    4  501    0 -0.45847232718E+02 -0.53422359430E+02  0.35236277598E+01  0.70610237130E+02  0.41800000000E+01 0. -1.
         -5    1    4    4    0  501  0.75556322886E+02 -0.36686093188E+02 -0.25784217253E+02  0.87959795480E+02  0.41800000000E+01 0. -1.
</event>
<event>
11    1  0.6455215E-009  0.1506112E+03  0.7561462E-02  0.1096256E+00
         22   -1    0    0    0    0  0.00000000000E+00  0.00000000000E+00  0.30840188441E+03  0.30840188441E+03  0.00000000000E+00 0. -1.
         22   -1    0    0    0    0 -0.00000000000E+00 -0.00000000000E+00 -0.30709375929E+03  0.30709375929E+03  0.00000000000E+00 0. -1.
         24    2    1    2    0    0  0.64696507555E+02 -0.51862227280E+02 -0.23101749412E+03  0.25914082134E+03  0.83123726985E+02 0.  0.
         25    2    1    2    0    0 -0.45728151820E+02  0.89978216710E+02  0.82933277252E+02  0.18086518188E+03  0.12508853740E+03 0.  0.
        -24    2    1    2    0    0 -0.18968355736E+02 -0.38115989429E+02  0.14939234199E+03  0.17548964048E+03  0.81645054357E+02 0.  0.
        -11    1    3    3    0    0  0.23291635389E+02 -0.50251119261E+02 -0.54057761954E+02  0.77394553384E+02  0.00000000000E+00 0.  1.
         12    1    3    3    0    0  0.41404872166E+02 -0.16111080189E+01 -0.17695973217E+03  0.18174626796E+03  0.00000000000E+00 0. -1.
         11    1    5    5    0    0  0.24222891888E+02  0.92327981420E+01  0.27604789067E+02  0.37868422629E+02  0.00000000000E+00 0. -1.
        -12    1    5    5    0    0 -0.43191247624E+02 -0.47348787571E+02  0.12178755292E+03  0.13762121785E+03  0.00000000000E+00 0.  1.
          5    1    4    4  501    0  0.13913838533E+02  0.78679690863E+02  0.25509288434E+01  0.80050410961E+02  0.41800000000E+01 0. -1.
         -5    1    4    4    0  501 -0.59641990353E+02  0.11298525847E+02  0.80382348408E+02  0.10081477092E+03  0.41800000000E+01 0. -1.
</event>
<event>
11    1  0.6455215E-009  0.1642440E+03  0.7561462E-02  0.1083152E+00
         22   -1    0    0    0    0  0.00000000000E+00  0.00000000000E+00  0.24488344872E+03  0.24488344872E+03  0.00000000000E+00 0. -1.
         22   -1    0    0    0    0 -0.00000000000E+00 -0.00000000000E+00 -0.26202947677E+04  0.26202947677E+04  0.00000000000E+00 0.  1.
         24    2    1    2    0    0 -0.66487615246E+01 -0.32420209860E+02 -0.22922879877E+04  0.22939208979E+04  0.79959933774E+02 0.  0.
         25    2    1    2    0    0 -0.29168541053E+02  0.13080803682E+03 -0.27976446286E+03  0.33447951682E+03  0.12508735432E+03 0.  0.
        -24    2    1    2    0    0  0.35817302577E+02 -0.98387826961E+02  0.19664113163E+03  0.23677780169E+03  0.80205667294E+02 0.  0.
        -13    1    3    3    0    0 -0.30223537185E+02 -0.23914183198E+02 -0.20456079946E+04  0.20459710208E+04  0.00000000000E+00 0.  1.
         14    1    3    3    0    0  0.23574775661E+02 -0.85060266622E+01 -0.24667999313E+03  0.24794987709E+03  0.00000000000E+00 0. -1.
         13    1    5    5    0    0  0.23647652910E+02 -0.11124310972E+03  0.17644774687E+03  0.20992391080E+03  0.00000000000E+00 0. -1.
        -14    1    5    5    0    0  0.12169649668E+02  0.12855282764E+02  0.20193384769E+02  0.26853890898E+02  0.00000000000E+00 0.  1.
          5    1    4    4  501    0  0.22057008193E+02  0.11813137863E+03 -0.13737018508E+03  0.18256389122E+03  0.41800000000E+01 0.  1.
         -5    1    4    4    0  501 -0.51225549245E+02  0.12676658190E+02 -0.14239427778E+03  0.15191562560E+03  0.41800000000E+01 0.  1.
</event>
<event>
11    1  0.6455215E-009  0.2697284E+03  0.7561462E-02  0.1013885E+00
         22   -1    0    0    0    0  0.00000000000E+00  0.00000000000E+00  0.10486623923E+04  0.10486623923E+04  0.00000000000E+00 0. -1.
         22   -1    0    0    0    0 -0.00000000000E+00 -0.00000000000E+00 -0.57860131978E+03  0.57860131978E+03  0.00000000000E+00 0. -1.
         24    2    1    2    0    0 -0.26575146616E+02  0.64249265694E+02 -0.45731434372E+03  0.46947796503E+03  0.80243031568E+02 0.  0.
         25    2    1    2    0    0 -0.34586870821E+02 -0.28586934623E+03  0.15926243596E+03  0.35203622017E+03  0.12508973601E+03 0.  0.
        -24    2    1    2    0    0  0.61162017437E+02  0.22162008054E+03  0.76811298033E+03  0.80574952691E+03  0.79865493805E+02 0.  0.
        -11    1    3    3    0    0 -0.38637717652E+02 -0.21070592915E+01 -0.16086875940E+03  0.16545715661E+03  0.00000000000E+00 0.  1.
         12    1    3    3    0    0  0.12062571035E+02  0.66356324986E+02 -0.29644558433E+03  0.30402080842E+03  0.00000000000E+00 0. -1.
         11    1    5    5    0    0  0.71612298776E+02  0.21420245486E+03  0.75186782882E+03  0.78505811569E+03  0.00000000000E+00 0. -1.
        -12    1    5    5    0    0 -0.10450281339E+02  0.74176256795E+01  0.16245151510E+02  0.20691411222E+02  0.00000000000E+00 0.  1.
          5    1    4    4  501    0 -0.23800608996E+02 -0.29627142770E+03  0.15743431853E+03  0.33637221186E+03  0.41800000000E+01 0.  1.
         -5    1    4    4    0  501 -0.10786261825E+02  0.10402081467E+02  0.18281174285E+01  0.15664008310E+02  0.41800000000E+01 0.  1.
</event>
<event>
11    1  0.6455215E-009  0.1440739E+03  0.7561462E-02  0.1103093E+00
         22   -1    0    0    0    0  0.00000000000E+00  0.00000000000E+00  0.95948628405E+03  0.95948628405E+03  0.00000000000E+00 0. -1.
         22   -1    0    0    0    0 -0.00000000000E+00 -0.00000000000E+00 -0.36385722049E+03  0.36385722049E+03  0.00000000000E+00 0.  1.
        -24    2    1    2    0    0 -0.68370090483E+02 -0.15524000697E+02 -0.25567062341E+03  0.27699213113E+03  0.80260258932E+02 0.  0.
         25    2    1    2    0    0  0.67046001687E+02  0.55776199547E+02 -0.34100411405E+02  0.15625679352E+03  0.12508875523E+03 0.  0.
         24    2    1    2    0    0  0.13240887960E+01 -0.40252198851E+02  0.88540009837E+03  0.89009457988E+03  0.81933108154E+02 0.  0.
        -13    1    5    5    0    0 -0.33544570736E+02 -0.52145897251E+01  0.55278907047E+03  0.55383046738E+03  0.00000000000E+00 0.  1.
         14    1    5    5    0    0  0.34868659532E+02 -0.35037609126E+02  0.33261102791E+03  0.33626411250E+03  0.00000000000E+00 0. -1.
         11    1    3    3    0    0 -0.78937933651E+01 -0.29494760121E+02 -0.16044120433E+03  0.16332064442E+03  0.00000000000E+00 0. -1.
        -12    1    3    3    0    0 -0.60476297118E+02  0.13970759424E+02 -0.95229419079E+02  0.11367148671E+03  0.00000000000E+00 0.  1.
          5    1    4    4  501    0 -0.37119082871E+02  0.12569185002E+02 -0.12616727790E+02  0.41381939840E+02  0.41800000000E+01 0. -1.
         -5    1    4    4    0  501  0.10416508456E+03  0.43207014546E+02 -0.21483683615E+02  0.11487485368E+03  0.41800000000E+01 0. -1.
</event>
<event>
11    1  0.6455215E-009  0.2395032E+03  0.7561462E-02  0.1029644E+00
         22   -1    0    0    0    0  0.00000000000E+00  0.00000000000E+00  0.22780311352E+04  0.22780311352E+04  0.00000000000E+00 0. -1.
         22   -1    0    0    0    0 -0.00000000000E+00 -0.00000000000E+00 -0.36756453860E+03  0.36756453860E+03  0.00000000000E+00 0.  1.
        -24    2    1    2    0    0  0.22607248554E+02 -0.10089243798E+03 -0.32116268542E+03  0.34830082310E+03  0.86473239446E+02 0.  0.
         25    2    1    2    0    0  0.99930748050E+02 -0.88870865520E+02  0.30390001963E+03  0.35480612715E+03  0.12509188937E+03 0.  0.
         24    2    1    2    0    0 -0.12253799660E+03  0.18976330350E+03  0.19277292624E+04  0.19424887235E+04  0.78081112049E+02 0.  0.
        -11    1    5    5    0    0 -0.78663020979E+02  0.85839629771E+02  0.70312823981E+03  0.71270304793E+03  0.00000000000E+00 0.  1.
         12    1    5    5    0    0 -0.43874975624E+02  0.10392367373E+03  0.12246010226E+04  0.12297856756E+04  0.00000000000E+00 0. -1.
         13    1    3    3    0    0  0.19319837844E+02 -0.10465589496E+03 -0.19592505263E+03  0.22296353678E+03  0.00000000000E+00 0. -1.
        -14    1    3    3    0    0  0.32874107095E+01  0.37634569748E+01 -0.12523763279E+03  0.12533728633E+03  0.00000000000E+00 0.  1.
          5    1    4    4  501    0  0.67699271692E+02  0.18778570584E+02  0.10739349081E+03  0.12840039085E+03  0.41800000000E+01 0. -1.
         -5    1    4    4    0  501  0.32231476358E+02 -0.10764943610E+03  0.19650652882E+03  0.22640573631E+03  0.41800000000E+01 0. -1.
</event>
<event>
11    1  0.6455215E-009  0.1673220E+03  0.7561462E-02  0.1080386E+00
         22   -1    0    0    0    0  0.00000000000E+00  0.00000000000E+00  0.19765665869E+04  0.19765665869E+04  0.00000000000E+00 0.  1.
         22   -1    0    0    0    0 -0.00000000000E+00 -0.00000000000E+00 -0.44006240336E+03  0.44006240336E+03  0.00000000000E+00 0. -1.
         24    2    1    2    0    0  0.68771341623E+01  0.46250773885E+02 -0.40352082688E+03  0.41408255017E+03  0.80304866407E+02 0.  0.
         25    2    1    2    0    0  0.79460653962E+02  0.28478257592E+02  0.17116811046E+03  0.22820111534E+03  0.12510883390E+03 0.  0.
        -24    2    1    2    0    0 -0.86337788125E+02 -0.74729031477E+02  0.17688569000E+04  0.17743453248E+04  0.80049716552E+02 0.  0.
        -11    1    3    3    0    0  0.26689230871E+02 -0.10561077113E+02 -0.79498712882E+02  0.84521575614E+02  0.00000000000E+00 0.  1.
         12    1    3    3    0    0 -0.19812096709E+02  0.56811850998E+02 -0.32402211400E+03  0.32956097455E+03  0.00000000000E+00 0. -1.
         13    1    5    5    0    0 -0.69943713958E+02 -0.51015300941E+02  0.73412184908E+03  0.73920874816E+03  0.00000000000E+00 0. -1.
        -14    1    5    5    0    0 -0.16394074167E+02 -0.23713730536E+02  0.10347350509E+04  0.10351365766E+04  0.00000000000E+00 0.  1.
          5    1    4    4  501    0 -0.32229716972E+02 -0.69942745366E+01  0.45093583784E+02  0.56023015189E+02  0.41800000000E+01 0.  1.
         -5    1    4    4    0  501  0.11169037093E+03  0.35472532129E+02  0.12607452667E+03  0.17217810015E+03  0.41800000000E+01 0.  1.
</event>
<event>
11    1  0.6455215E-009  0.1655020E+03  0.7561462E-02  0.1082014E+00
         22   -1    0    0    0    0  0.00000000000E+00  0.00000000000E+00  0.15275615160E+04  0.15275615160E+04  0.00000000000E+00 0. -1.
         22   -1    0    0    0    0 -0.00000000000E+00 -0.00000000000E+00 -0.12297450351E+04  0.12297450351E+04  0.00000000000E+00 0.  1.
         24    2    1    2    0    0 -0.42825641998E+02  0.92823725646E+02 -0.11975767778E+04  0.12046790450E+04  0.81309183151E+02 0.  0.
         25    2    1    2    0    0 -0.69876292690E+02 -0.98849055185E+02  0.28358894969E+03  0.33275358856E+03  0.12509367018E+03 0.  0.
        -24    2    1    2    0    0  0.11270193469E+03  0.60253295387E+01  0.12118043089E+04  0.12198739175E+04  0.82973855883E+02 0.  0.
        -11    1    3    3    0    0 -0.55654766347E+02  0.43001606913E+02 -0.89503698064E+03  0.89779607257E+03  0.00000000000E+00 0.  1.
         12    1    3    3    0    0  0.12829124349E+02  0.49822118734E+02 -0.30253979711E+03  0.30688297246E+03  0.00000000000E+00 0. -1.
         11    1    5    5    0    0  0.25126580931E+02 -0.71302606881E+00  0.70969781977E+03  0.71014283694E+03  0.00000000000E+00 0. -1.
        -12    1    5    5    0    0  0.87575353757E+02  0.67383556076E+01  0.50210648916E+03  0.50973108055E+03  0.00000000000E+00 0.  1.
          5    1    4    4  501    0 -0.94299485968E+01 -0.85528192826E+02  0.24497316384E+03  0.25967926198E+03  0.41800000000E+01 0.  1.
         -5    1    4    4    0  501 -0.60446344094E+02 -0.13320862359E+02  0.38615785849E+02  0.73074326579E+02  0.41800000000E+01 0.  1.
</event>
<event>
11    1  0.6455215E-009  0.1536233E+03  0.7561462E-02  0.1093233E+00
         22   -1    0    0    0    0  0.00000000000E+00  0.00000000000E+00  0.13454448865E+03  0.13454448865E+03  0.00000000000E+00 0.  1.
         22   -1    0    0    0    0 -0.00000000000E+00 -0.00000000000E+00 -0.92490919009E+03  0.92490919009E+03  0.00000000000E+00 0.  1.
        -24    2    1    2    0    0  0.28254313686E+02  0.66924348790E+02 -0.76797236528E+03  0.77544873008E+03  0.79132827809E+02 0.  0.
         25    2    1    2    0    0 -0.67637214711E+02  0.34670413090E+02 -0.25435331570E+02  0.14859259653E+03  0.12512383184E+03 0.  0.
         24    2    1    2    0    0  0.39382901025E+02 -0.10159476188E+03  0.30429954043E+01  0.13541235213E+03  0.80341376355E+02 0.  0.
        -13    1    5    5    0    0  0.61668856526E+01 -0.72356258296E+02  0.35210431591E+02  0.80704603871E+02  0.00000000000E+00 0.  1.
         14    1    5    5    0    0  0.33216015373E+02 -0.29238503584E+02 -0.32167436187E+02  0.54707748262E+02  0.00000000000E+00 0. -1.
         11    1    3    3    0    0  0.47360242461E+02  0.50018397228E+02 -0.35091208117E+03  0.35760889438E+03  0.00000000000E+00 0. -1.
        -12    1    3    3    0    0 -0.19105928776E+02  0.16905951562E+02 -0.41706028411E+03  0.41783983570E+03  0.00000000000E+00 0.  1.
          5    1    4    4  501    0 -0.54966077766E+02 -0.37608999250E+02 -0.33467795200E+02  0.74654351816E+02  0.41800000000E+01 0.  1.
         -5    1    4    4    0  501 -0.12671136945E+02  0.72279412340E+02  0.80324636302E+01  0.73938244716E+02  0.41800000000E+01 0.  1.
</event>
<event>
11    1  0.6455215E-009  0.1614768E+03  0.7561462E-02  0.1085696E+00
         22   -1    0    0    0    0  0.00000000000E+00  0.00000000000E+00  0.78820569435E+03  0.78820569435E+03  0.00000000000E+00 0.  1.
         22   -1    0    0    0    0 -0.00000000000E+00 -0.00000000000E+00 -0.56688850522E+03  0.56688850522E+03  0.00000000000E+00 0.  1.
         24    2    1    2    0    0  0.10074467628E+03  0.17112433089E+02 -0.44035528972E+03  0.45925631853E+03  0.81001603470E+02 0.  0.
         25    2    1    2    0    0 -0.99401200457E+02 -0.21543450214E+02 -0.58338599488E+02  0.17145594100E+03  0.12509607753E+03 0.  0.
        -24    2    1    2    0    0 -0.13434758220E+01  0.44310171253E+01  0.72001107833E+03  0.72438194005E+03  0.79320888216E+02 0.  0.
        -11    1    3    3    0    0  0.59513976595E+02  0.46895968390E+02 -0.31478947627E+03  0.32378011000E+03  0.00000000000E+00 0.  1.
         12    1    3    3    0    0  0.41230699685E+02 -0.29783535301E+02 -0.12556581345E+03  0.13547620853E+03  0.00000000000E+00 0. -1.
         13    1    5    5    0    0  0.34713618514E+02 -0.28522119818E+01  0.50885303348E+03  0.51004370411E+03  0.00000000000E+00 0. -1.
        -14    1    5    5    0    0 -0.36057094336E+02  0.72832291070E+01  0.21115804485E+03  0.21433823593E+03  0.00000000000E+00 0.  1.
          5    1    4    4  501    0 -0.22819172186E+02  0.49331271621E+02 -0.65984712956E+01  0.54911758326E+02  0.41800000000E+01 0.  1.
         -5    1    4    4    0  501 -0.76582028271E+02 -0.70874721834E+02 -0.51740128192E+02  0.11654418267E+03  0.41800000000E+01 0.  1.
</event>
<event>
11    1  0.6455215E-009  0.1541882E+03  0.7561462E-02  0.1092674E+00
         22   -1    0    0    0    0  0.00000000000E+00  0.00000000000E+00  0.12915773726E+03  0.12915773726E+03  0.00000000000E+00 0.  1.
         22   -1    0    0    0    0 -0.00000000000E+00 -0.00000000000E+00 -0.15010083093E+04  0.15010083093E+04  0.00000000000E+00 0.  1.
        -24    2    1    2    0    0 -0.23370419260E+02 -0.21651002832E+02 -0.11787519771E+04  0.11818031366E+04  0.78660586052E+02 0.  0.
         25    2    1    2    0    0 -0.16148938670E+02  0.10148733277E+03 -0.26214386957E+03  0.30810229553E+03  0.12508856553E+03 0.  0.
         24    2    1    2    0    0  0.39519357930E+02 -0.79836329937E+02  0.69045274611E+02  0.14026061442E+03  0.83487548660E+02 0.  0.
        -11    1    5    5    0    0  0.40092150528E+02  0.20554503289E+01  0.24621079156E+02  0.47093555279E+02  0.00000000000E+00 0.  1.
         12    1    5    5    0    0 -0.57279259826E+00 -0.81891780265E+02  0.44424195455E+02  0.93167059137E+02  0.00000000000E+00 0. -1.
         13    1    3    3    0    0 -0.29768995982E+02 -0.47618601741E+01 -0.15570242052E+03  0.15859417451E+03  0.00000000000E+00 0. -1.
        -14    1    3    3    0    0  0.63985767225E+01 -0.16889142658E+02 -0.10230495566E+04  0.10232089621E+04  0.00000000000E+00 0.  1.
          5    1    4    4  501    0  0.46463714275E+02  0.16557130051E+02 -0.46154425095E+02  0.67681006609E+02  0.41800000000E+01 0. -1.
         -5    1    4    4    0  501 -0.62612652945E+02  0.84930202718E+02 -0.21598944447E+03  0.24042128892E+03  0.41800000000E+01 0. -1.
</event>
<event>
11    1  0.6455215E-009  0.2609113E+03  0.7561462E-02  0.1018242E+00
         22   -1    0    0    0    0  0.00000000000E+00  0.00000000000E+00  0.59503971583E+03  0.59503971583E+03  0.00000000000E+00 0.  1.
         22   -1    0    0    0    0 -0.00000000000E+00 -0.00000000000E+00 -0.16526897358E+03  0.16526897358E+03  0.00000000000E+00 0. -1.
        -24    2    1    2    0    0  0.21473310890E+03  0.68833009461E+02  0.55381589449E+02  0.24573964569E+03  0.80452232837E+02 0.  0.
         25    2    1    2    0    0 -0.22812124251E+03 -0.61632801626E+02  0.25302896779E+03  0.36811635768E+03  0.12509232883E+03 0.  0.
         24    2    1    2    0    0  0.13388133615E+02 -0.72002078351E+01  0.12136018502E+03  0.14645268603E+03  0.80554389224E+02 0.  0.
        -13    1    5    5    0    0  0.42598375959E+02 -0.22704680403E+02  0.62907767316E+02  0.79293829112E+02  0.00000000000E+00 0.  1.
         14    1    5    5    0    0 -0.29210242343E+02  0.15504472568E+02  0.58452417705E+02  0.67158856921E+02  0.00000000000E+00 0. -1.
         11    1    3    3    0    0  0.12488269702E+03 -0.64538379167E+00  0.18049257556E+02  0.12618193307E+03  0.00000000000E+00 0. -1.
        -12    1    3    3    0    0  0.89850411878E+02  0.69478393253E+02  0.37332331893E+02  0.11955771263E+03  0.00000000000E+00 0.  1.
          5    1    4    4  501    0 -0.14467054707E+03 -0.64375316830E+02  0.23367761347E+03  0.28230559336E+03  0.41800000000E+01 0. -1.
         -5    1    4    4    0  501 -0.83450695440E+02  0.27425152044E+01  0.19351354318E+02  0.85810764319E+02  0.41800000000E+01 0. -1.
</event>
<event>
11    1  0.6455215E-009  0.1341444E+03  0.7561462E-02  0.1114279E+00
         22   -1    0    0    0    0  0.00000000000E+00  0.00000000000E+00  0.50682478313E+03  0.50682478313E+03  0.00000000000E+00 0. -1.
         22   -1    0    0    0    0 -0.00000000000E+00 -0.00000000000E+00 -0.21124450042E+03  0.21124450042E+03  0.00000000000E+00 0. -1.
         24    2    1    2    0    0 -0.24371166145E+02 -0.39769930625E+02 -0.13469154702E+03  0.16385554406E+03  0.80815996931E+02 0.  0.
         25    2    1    2    0    0  0.47723395613E+01  0.65024514849E+02  0.30267157539E+02  0.14427202514E+03  0.12508938266E+03 0.  0.
        -24    2    1    2    0    0  0.19598826583E+02 -0.25254584224E+02  0.40000467220E+03  0.40994171436E+03  0.83824598780E+02 0.  0.
        -13    1    3    3    0    0  0.10149559160E+02 -0.19877640012E+02  0.10937665310E+01  0.22345703140E+02  0.00000000000E+00 0.  1.
         14    1    3    3    0    0 -0.34520725304E+02 -0.19892290613E+02 -0.13578531355E+03  0.14150984092E+03  0.00000000000E+00 0. -1.
         13    1    5    5    0    0  0.26429755983E+02 -0.36982928083E+02  0.39104591573E+03  0.39367902812E+03  0.00000000000E+00 0. -1.
        -14    1    5    5    0    0 -0.68309294000E+01  0.11728343859E+02  0.89587564647E+01  0.16262686234E+02  0.00000000000E+00 0.  1.
          5    1    4    4  501    0 -0.48484373249E+02 -0.51192193869E+01  0.27342661147E+02  0.56053852455E+02  0.41800000000E+01 0.  1.
         -5    1    4    4    0  501  0.53256712810E+02  0.70143734236E+02  0.29244963919E+01  0.88218172680E+02  0.41800000000E+01 0.  1.
</event>
<event>
11    1  0.6455215E-009  0.1426166E+03  0.7561462E-02  0.1104671E+00
         22   -1    0    0    0    0  0.00000000000E+00  0.00000000000E+00  0.78602865216E+02  0.78602865216E+02  0.00000000000E+00 0. -1.
         22   -1    0    0    0    0 -0.00000000000E+00 -0.00000000000E+00 -0.17220828677E+04  0.17220828677E+04  0.00000000000E+00 0. -1.
         24    2    1    2    0    0  0.57227477590E+02  0.48594492747E+02 -0.11735837263E+04  0.11791676111E+04  0.86608795976E+02 0.  0.
         25    2    1    2    0    0  0.15068897840E+02 -0.30654273815E+02 -0.48807860499E+03  0.50501006476E+03  0.12509070577E+03 0.  0.
        -24    2    1    2    0    0 -0.72296375431E+02 -0.17940218932E+02  0.18182328798E+02  0.11650805706E+03  0.87720652777E+02 0.  0.
        -13    1    3    3    0    0  0.60742387588E+02  0.24327467601E+02 -0.40984809118E+03  0.41503845746E+03  0.00000000000E+00 0.  1.
         14    1    3    3    0    0 -0.35149099978E+01  0.24267025146E+02 -0.76373563515E+03  0.76412915367E+03  0.00000000000E+00 0. -1.
         13    1    5    5    0    0 -0.38914149255E+01 -0.25532516362E+02  0.37031613531E+02  0.45148564790E+02  0.00000000000E+00 0. -1.
        -14    1    5    5    0    0 -0.68404960505E+02  0.75922974299E+01 -0.18849284734E+02  0.71359492269E+02  0.00000000000E+00 0.  1.
          5    1    4    4  501    0  0.30815937339E+02 -0.74879103683E+02 -0.34367992472E+03  0.35311452139E+03  0.41800000000E+01 0.  1.
         -5    1    4    4    0  501 -0.15747039499E+02  0.44224829867E+02 -0.14439868027E+03  0.15189554337E+03  0.41800000000E+01 0.  1.
</event>
<event>
11    1  0.6455215E-009  0.1412388E+03  0.7561462E-02  0.1106183E+00
         22   -1    0    0    0    0  0.00000000000E+00  0.00000000000E+00  0.35995790882E+04  0.35995790882E+04  0.00000000000E+00 0.  1.
         22   -1    0    0    0    0 -0.00000000000E+00 -0.00000000000E+00 -0.63094573332E+02  0.63094573332E+02  0.00000000000E+00 0.  1.
        -24    2    1    2    0    0 -0.69464462466E+02 -0.32086578136E+02  0.10290983495E+02  0.11082397212E+03  0.79505901753E+02 0.  0.
         25    2    1    2    0    0 -0.82093540991E+00  0.14334120502E+02  0.32065472970E+03  0.34449103223E+03  0.12509386341E+03 0.  0.
         24    2    1    2    0    0  0.70285397876E+02  0.17752457634E+02  0.32055388017E+04  0.32073586572E+04  0.80095941457E+02 0.  0.
        -11    1    5    5    0    0  0.82157920962E+02  0.29612146129E+01  0.29372369935E+04  0.29383872871E+04  0.00000000000E+00 0.  1.
         12    1    5    5    0    0 -0.11872523086E+02  0.14791243021E+02  0.26830180818E+03  0.26897137013E+03  0.00000000000E+00 0. -1.
         13    1    3    3    0    0 -0.39518363408E+02 -0.16830048683E+02  0.45208503651E+02  0.62359926134E+02  0.00000000000E+00 0. -1.
        -14    1    3    3    0    0 -0.29946099058E+02 -0.15256529453E+02 -0.34917520156E+02  0.48464045989E+02  0.00000000000E+00 0.  1.
          5    1    4    4  501    0 -0.19104621005E+02  0.41364465601E+02  0.36748829338E+02  0.58685214628E+02  0.41800000000E+01 0.  1.
         -5    1    4    4    0  501  0.18283685596E+02 -0.27030345099E+02  0.28390590036E+03  0.28580581760E+03  0.41800000000E+01 0.  1.
</event>
<event>
11    1  0.6455215E-009  0.1667231E+03  0.7561462E-02  0.1080919E+00
         22   -1    0    0    0    0  0.00000000000E+00  0.00000000000E+00  0.66842610571E+03  0.66842610571E+03  0.00000000000E+00 0.  1.
         22   -1    0    0    0    0 -0.00000000000E+00 -0.00000000000E+00 -0.94818331278E+03  0.94818331278E+03  0.00000000000E+00 0. -1.
        -24    2    1    2    0    0 -0.27177843403E+02 -0.10494668821E+03 -0.77709847387E+03  0.78865429553E+03  0.79631132307E+02 0.  0.
         25    2    1    2    0    0  0.89388126396E+02  0.10650444804E+03 -0.10674670498E+03  0.21536017136E+03  0.12510679355E+03 0.  0.
         24    2    1    2    0    0 -0.62210282993E+02 -0.15577598263E+01  0.60408797178E+03  0.61259495160E+03  0.80484477652E+02 0.  0.
        -11    1    5    5    0    0 -0.55097387590E+02  0.78944840120E+01  0.59520421653E+03  0.59780105752E+03  0.00000000000E+00 0.  1.
         12    1    5    5    0    0 -0.71128954026E+01 -0.94522438383E+01  0.88837552563E+01  0.14793894080E+02  0.00000000000E+00 0. -1.
         13    1    3    3    0    0 -0.37010061504E+02 -0.11045075965E+03 -0.60032444978E+03  0.61152151226E+03  0.00000000000E+00 0. -1.
        -14    1    3    3    0    0  0.98322181003E+01  0.55040714363E+01 -0.17677402409E+03  0.17713278327E+03  0.00000000000E+00 0.  1.
          5    1    4    4  501    0  0.77072477728E+02  0.11259291265E+03 -0.12969016161E+03  0.18829323201E+03  0.41800000000E+01 0.  1.
         -5    1    4    4    0  501  0.12315648668E+02 -0.60884646152E+01  0.22943456632E+02  0.27066939349E+02  0.41800000000E+01 0.  1.
</event>
<event>
11    1  0.6455215E-009  0.1567155E+03  0.7561462E-02  0.1090208E+00
         22   -1    0    0    0    0  0.00000000000E+00  0.00000000000E+00  0.11894728799E+03  0.11894728799E+03  0.00000000000E+00 0. -1.
         22   -1    0    0    0    0 -0.00000000000E+00 -0.00000000000E+00 -0.26502925275E+04  0.26502925275E+04  0.00000000000E+00 0. -1.
         24    2    1    2    0    0  0.69089851374E-03 -0.95177278496E+02 -0.25002694873E+04  0.25038074911E+04  0.92982412584E+02 0.  0.
         25    2    1    2    0    0  0.41515554360E+02  0.72793216890E+02 -0.67586444001E+02  0.16503903597E+03  0.12509021665E+03 0.  0.
        -24    2    1    2    0    0 -0.41516245258E+02  0.22384061606E+02  0.36510691826E+02  0.10039328838E+03  0.80753556577E+02 0.  0.
        -13    1    3    3    0    0 -0.37580031247E+02 -0.13560591571E+02 -0.53770432835E+03  0.53918651051E+03  0.00000000000E+00 0.  1.
         14    1    3    3    0    0  0.37580722146E+02 -0.81616686925E+02 -0.19625651589E+04  0.19646209806E+04  0.00000000000E+00 0. -1.
         13    1    5    5    0    0 -0.20156554252E+02  0.36171359241E+02  0.55081265007E+02  0.68910083902E+02  0.00000000000E+00 0. -1.
        -14    1    5    5    0    0 -0.21359691006E+02 -0.13787297635E+02 -0.18570573181E+02  0.31483204478E+02  0.00000000000E+00 0.  1.
          5    1    4    4  501    0 -0.22083361425E+02  0.83012837990E+02 -0.39704429670E+02  0.94724443827E+02  0.41800000000E+01 0.  1.
         -5    1    4    4    0  501  0.63598915785E+02 -0.10219621100E+02 -0.27882014331E+02  0.70314592139E+02  0.41800000000E+01 0.  1.
</event>
<event>
11    1  0.6455215E-009  0.2357241E+03  0.7561462E-02  0.1031791E+00
         22   -1    0    0    0    0  0.00000000000E+00  0.00000000000E+00  0.41169616764E+03  0.41169616764E+03  0.00000000000E+00 0.  1.
         22   -1    0    0    0    0 -0.00000000000E+00 -0.00000000000E+00 -0.83005313362E+03  0.83005313362E+03  0.00000000000E+00 0. -1.
         24    2    1    2    0    0  0.12115050108E+02 -0.59634280462E+02 -0.55174912131E+03  0.56071872071E+03  0.79217226905E+02 0.  0.
         25    2    1    2    0    0  0.15811191416E+03  0.15928578411E+03 -0.17135578092E+03  0.30883718746E+03  0.12508503622E+03 0.  0.
        -24    2    1    2    0    0 -0.17022696427E+03 -0.99651503646E+02  0.30474793626E+03  0.37219339309E+03  0.82152149479E+02 0.  0.
        -13    1    3    3    0    0  0.29114949355E+02 -0.46235112010E+02 -0.17461272365E+03  0.18296166025E+03  0.00000000000E+00 0.  1.
         14    1    3    3    0    0 -0.16999899247E+02 -0.13399168453E+02 -0.37713639766E+03  0.37775706046E+03  0.00000000000E+00 0. -1.
         11    1    5    5    0    0  0.54228628019E+01  0.49449607670E+01  0.35070536296E+01  0.81338492189E+01  0.00000000000E+00 0. -1.
        -12    1    5    5    0    0 -0.17564982707E+03 -0.10459646441E+03  0.30124088263E+03  0.36405954387E+03  0.00000000000E+00 0.  1.
          5    1    4    4  501    0  0.72376817621E+02  0.36125860346E+01 -0.83186534506E+02  0.11040347110E+03  0.41800000000E+01 0.  1.
         -5    1    4    4    0  501  0.85735096540E+02  0.15567319807E+03 -0.88169246411E+02  0.19843371636E+03  0.41800000000E+01 0.  1.
</event>
<event>
11    1  0.6455215E-009  0.1779449E+03  0.7561462E-02  0.1071317E+00
         22   -1    0    0    0    0  0.00000000000E+00  0.00000000000E+00  0.62712905811E+03  0.62712905811E+03  0.00000000000E+00 0. -1.
         22   -1    0    0    0    0 -0.00000000000E+00 -0.00000000000E+00 -0.13104914607E+04  0.13104914607E+04  0.00000000000E+00 0.  1.
         24    2    1    2    0    0  0.53936198772E+01  0.12532517196E+03 -0.28476493491E+03  0.32161150379E+03  0.81285923462E+02 0.  0.
         25    2    1    2    0    0  0.95155142189E+02 -0.47220324493E+02 -0.99108811566E+03  0.10045828428E+04  0.12508706962E+03 0.  0.
        -24    2    1    2    0    0 -0.10054876207E+03 -0.78104847469E+02  0.59249064794E+03  0.61142617221E+03  0.81156487169E+02 0.  0.
        -13    1    3    3    0    0  0.11350876970E+02  0.11007764421E+03 -0.15295355295E+03  0.18878749832E+03  0.00000000000E+00 0.  1.
         14    1    3    3    0    0 -0.59572570926E+01  0.15247527756E+02 -0.13181138196E+03  0.13282400547E+03  0.00000000000E+00 0. -1.
         13    1    5    5    0    0 -0.73221680213E+02 -0.92502035372E+02  0.50645134148E+03  0.52001057901E+03  0.00000000000E+00 0. -1.
        -14    1    5    5    0    0 -0.27327081853E+02  0.14397187903E+02  0.86039306468E+02  0.91415593197E+02  0.00000000000E+00 0.  1.
          5    1    4    4  501    0  0.35451418040E+01 -0.53045550433E+02 -0.61990958789E+03  0.62219913854E+03  0.41800000000E+01 0. -1.
         -5    1    4    4    0  501  0.91610000385E+02  0.58252259396E+01 -0.37117852777E+03  0.38238370429E+03  0.41800000000E+01 0. -1.
</event>
<event>
11    1  0.6455215E-009  0.1294035E+03  0.7561462E-02  0.1120004E+00
         22   -1    0    0    0    0  0.00000000000E+00  0.00000000000E+00  0.31009714945E+03  0.31009714945E+03  0.00000000000E+00 0.  1.
         22   -1    0    0    0    0 -0.00000000000E+00 -0.00000000000E+00 -0.20238552033E+03  0.20238552033E+03  0.00000000000E+00 0. -1.
        -24    2    1    2    0    0  0.81908950977E+01 -0.27513370284E+02 -0.13976791639E+03  0.16200559888E+03  0.76724619979E+02 0.  0.
         25    2    1    2    0    0  0.13185206591E+02 -0.47191955015E+01  0.55182440036E+02  0.13742323464E+03  0.12507567010E+03 0.  0.
         24    2    1    2    0    0 -0.21376101689E+02  0.32232565785E+02  0.19229710547E+03  0.21305383626E+03  0.83173820094E+02 0.  0.
        -13    1    5    5    0    0  0.11609760570E+01 -0.27681490197E+02  0.59396390011E+02  0.65540399078E+02  0.00000000000E+00 0.  1.
         14    1    5    5    0    0 -0.22537077746E+02  0.59914055982E+02  0.13290071546E+03  0.14751343718E+03  0.00000000000E+00 0. -1.
         11    1    3    3    0    0  0.86462154799E+01 -0.52618823606E+02 -0.11487487371E+03  0.12664807243E+03  0.00000000000E+00 0. -1.
        -12    1    3    3    0    0 -0.45532038227E+00  0.25105453323E+02 -0.24893042676E+02  0.35357526452E+02  0.00000000000E+00 0.  1.
          5    1    4    4  501    0  0.49820777464E+02  0.42610425408E+02  0.25280847458E+02  0.70387156987E+02  0.41800000000E+01 0.  1.
         -5    1    4    4    0  501 -0.36635570873E+02 -0.47329620909E+02  0.29901592577E+02  0.67036077654E+02  0.41800000000E+01 0.  1.
</event>
<event>
11    1  0.6455215E-009  0.1509636E+03  0.7561462E-02  0.1095898E+00
         22   -1    0    0    0    0  0.00000000000E+00  0.00000000000E+00  0.10703536827E+04  0.10703536827E+04  0.00000000000E+00 0. -1.
         22   -1    0    0    0    0 -0.00000000000E+00 -0.00000000000E+00 -0.20983090241E+03  0.20983090241E+03  0.00000000000E+00 0. -1.
         24    2    1    2    0    0  0.36011554890E+02  0.59594690915E+02 -0.13232708522E+03  0.16869946868E+03  0.78106939382E+02 0.  0.
         25    2    1    2    0    0 -0.11788176450E+03 -0.52725999671E+02  0.91807766862E+02  0.20187321946E+03  0.12509192315E+03 0.  0.
        -24    2    1    2    0    0  0.81870209605E+02 -0.68686912442E+01  0.90104209861E+03  0.90961189694E+03  0.93632416655E+02 0.  0.
        -13    1    3    3    0    0 -0.14115076933E+02  0.49123956786E+02 -0.48449315736E+02  0.70425384077E+02  0.00000000000E+00 0.  1.
         14    1    3    3    0    0  0.50126631824E+02  0.10470734129E+02 -0.83877769481E+02  0.98274084602E+02  0.00000000000E+00 0. -1.
         11    1    5    5    0    0  0.61787515624E+02  0.30020869725E+02  0.74003407607E+03  0.74321556998E+03  0.00000000000E+00 0. -1.
        -12    1    5    5    0    0  0.20082693981E+02 -0.36889560969E+02  0.16100802253E+03  0.16639632696E+03  0.00000000000E+00 0.  1.
          5    1    4    4  501    0 -0.61505498057E+02  0.11805439537E+02  0.97430304304E+02  0.11589836621E+03  0.41800000000E+01 0. -1.
         -5    1    4    4    0  501 -0.56376266439E+02 -0.64531439209E+02 -0.56225374416E+01  0.85974853249E+02  0.41800000000E+01 0. -1.
</event>
<event>
11    1  0.6455215E-009  0.1974665E+03  0.7561462E-02  0.1056330E+00
         22   -1    0    0    0    0  0.00000000000E+00  0.00000000000E+00  0.11322974445E+04  0.11322974445E+04  0.00000000000E+00 0.  1.
         22   -1    0    0    0    0 -0.00000000000E+00 -0.00000000000E+00 -0.44257327224E+03  0.44257327224E+03  0.00000000000E+00 0. -1.
        -24    2    1    2    0    0 -0.66399492760E+02 -0.40967389998E+02 -0.37040642515E+03  0.38611552060E+03  0.76138398827E+02 0.  0.
         25    2    1    2    0    0  0.11774137597E+03  0.17663654121E+03  0.21279928718E+03  0.32556825982E+03  0.12509059067E+03 0.  0.
         24    2    1    2    0    0 -0.51341883212E+02 -0.13566915121E+03  0.84733131021E+03  0.86318693630E+03  0.77969418119E+02 0.  0.
        -13    1    5    5    0    0 -0.67590999745E+02 -0.11417713231E+03  0.76871323272E+03  0.78008012085E+03  0.00000000000E+00 0.  1.
         14    1    5    5    0    0  0.16249116533E+02 -0.21492018902E+02  0.78618077496E+02  0.83106815447E+02  0.00000000000E+00 0. -1.
         11    1    3    3    0    0 -0.73114368113E+02 -0.60067752700E+01 -0.25505830636E+03  0.26539881653E+03  0.00000000000E+00 0. -1.
        -12    1    3    3    0    0  0.67148753526E+01 -0.34960614728E+02 -0.11534811879E+03  0.12071670407E+03  0.00000000000E+00 0.  1.
          5    1    4    4  501    0 -0.84020076245E+01  0.12855015454E+01 -0.10988769908E+02  0.14507643173E+02  0.41800000000E+01 0. -1.
         -5    1    4    4    0  501  0.12614338360E+03  0.17535103966E+03  0.22378805709E+03  0.31106061665E+03  0.41800000000E+01 0. -1.
</event>
<event>
11    1  0.6455215E-009  0.1358856E+03  0.7561462E-02  0.1112242E+00
         22   -1    0    0    0    0  0.00000000000E+00  0.00000000000E+00  0.62079477106E+03  0.62079477106E+03  0.00000000000E+00 0.  1.
         22   -1    0    0    0    0 -0.00000000000E+00 -0.00000000000E+00 -0.68508614195E+03  0.68508614195E+03  0.00000000000E+00 0.  1.
        -24    2    1    2    0    0  0.26952385271E+02  0.19404258307E+01 -0.63213214755E+03  0.63799031189E+03  0.81916968813E+02 0.  0.
         25    2    1    2    0    0 -0.39838405996E+02  0.49059883160E+02  0.62210489278E+02  0.15333564225E+03  0.12509078096E+03 0.  0.
         24    2    1    2    0    0  0.12886020725E+02 -0.51000308991E+02  0.50563028739E+03  0.51455495886E+03  0.79609905913E+02 0.  0.
        -11    1    5    5    0    0 -0.15502896640E+02 -0.21199114337E+02  0.40475350939E+03  0.40560466666E+03  0.00000000000E+00 0.  1.
         12    1    5    5    0    0  0.28388917365E+02 -0.29801194654E+02  0.10087677800E+03  0.10895029220E+03  0.00000000000E+00 0. -1.
         11    1    3    3    0    0  0.20034889624E+02 -0.23515420549E+02 -0.88838435816E+02  0.94056575975E+02  0.00000000000E+00 0. -1.
        -12    1    3    3    0    0  0.69174956471E+01  0.25455846380E+02 -0.54329371173E+03  0.54393373592E+03  0.00000000000E+00 0.  1.
          5    1    4    4  501    0  0.65798479353E+00  0.79714929934E+02  0.10127079804E+02  0.80466969271E+02  0.41800000000E+01 0.  1.
         -5    1    4    4    0  501 -0.40496390790E+02 -0.30655046774E+02  0.52083409474E+02  0.72868672982E+02  0.41800000000E+01 0.  1.
</event>
<event>
11    1  0.6455215E-009  0.1302197E+03  0.7561462E-02  0.1118999E+00
         22   -1    0    0    0    0  0.00000000000E+00  0.00000000000E+00  0.17995859013E+03  0.17995859013E+03  0.00000000000E+00 0.  1.
         22   -1    0    0    0    0 -0.00000000000E+00 -0.00000000000E+00 -0.45727690414E+03  0.45727690414E+03  0.00000000000E+00 0.  1.
         24    2    1    2    0    0  0.11791351817E+02 -0.31454796729E+02 -0.21910214488E+03  0.23300756109E+03  0.71821538711E+02 0.  0.
         25    2    1    2    0    0  0.96563603945E+01  0.59360074521E+02 -0.19655532719E+03  0.24061931334E+03  0.12508714388E+03 0.  0.
        -24    2    1    2    0    0 -0.21447712211E+02 -0.27905277791E+02  0.13833915806E+03  0.16360861983E+03  0.79945912605E+02 0.  0.
        -13    1    3    3    0    0 -0.21874049985E+02 -0.25577862206E+02 -0.16926668823E+03  0.17258016353E+03  0.00000000000E+00 0.  1.
         14    1    3    3    0    0  0.33665401802E+02 -0.58769345233E+01 -0.49835456645E+02  0.60427397568E+02  0.00000000000E+00 0. -1.
         11    1    5    5    0    0  0.19187263692E+02 -0.41179153844E+01  0.24298173942E+01  0.19774031649E+02  0.00000000000E+00 0. -1.
        -12    1    5    5    0    0 -0.40634975903E+02 -0.23787362407E+02  0.13590934067E+03  0.14383458818E+03  0.00000000000E+00 0.  1.
          5    1    4    4  501    0  0.24612013677E+02  0.38134770060E+01  0.92424426055E+01  0.26892173015E+02  0.41800000000E+01 0. -1.
         -5    1    4    4    0  501 -0.14955653283E+02  0.55546597515E+02 -0.20579776980E+03  0.21372714033E+03  0.41800000000E+01 0. -1.
</event>
<event>
11    1  0.6455215E-009  0.1524933E+03  0.7561462E-02  0.1094358E+00
         22   -1    0    0    0    0  0.00000000000E+00  0.00000000000E+00  0.42744322562E+03  0.42744322562E+03  0.00000000000E+00 0. -1.
         22   -1    0    0    0    0 -0.00000000000E+00 -0.00000000000E+00 -0.13046766160E+04  0.13046766160E+04  0.00000000000E+00 0.  1.
        -24    2    1    2    0    0  0.25121211261E+02 -0.16482942055E+00 -0.12355207339E+04  0.12383498530E+04  0.79798321793E+02 0.  0.
         25    2    1    2    0    0 -0.87487260484E+02  0.56661954055E+02  0.59856168628E+02  0.17347947438E+03  0.12509104414E+03 0.  0.
         24    2    1    2    0    0  0.62366049223E+02 -0.56497124635E+02  0.29843117489E+03  0.32029051422E+03  0.80270780269E+02 0.  0.
        -13    1    5    5    0    0  0.54604599077E+02  0.18085246772E+01  0.10881275372E+03  0.12175856592E+03  0.00000000000E+00 0.  1.
         14    1    5    5    0    0  0.77614501459E+01 -0.58305649312E+02  0.18961842117E+03  0.19853194830E+03  0.00000000000E+00 0. -1.
         13    1    3    3    0    0  0.17006183842E+02  0.18251820803E+02 -0.11617766834E+03  0.11882588048E+03  0.00000000000E+00 0. -1.
        -14    1    3    3    0    0  0.81150274193E+01 -0.18416650223E+02 -0.11193430656E+04  0.11195239726E+04  0.00000000000E+00 0.  1.
          5    1    4    4  501    0 -0.80327159482E+02  0.12911618968E+02  0.88692893717E+02  0.12042866872E+03  0.41800000000E+01 0.  1.
         -5    1    4    4    0  501 -0.71601010026E+01  0.43750335087E+02 -0.28836725089E+02  0.53050805653E+02  0.41800000000E+01 0.  1.
</event>
<event>
11    1  0.6455215E-009  0.1315727E+03  0.7561462E-02  0.1117352E+00
         22   -1    0    0    0    0  0.00000000000E+00  0.00000000000E+00  0.13143322783E+04  0.13143322783E+04  0.00000000000E+00 0.  1.
         22   -1    0    0    0    0 -0.00000000000E+00 -0.00000000000E+00 -0.21463475321E+03  0.21463475321E+03  0.00000000000E+00 0. -1.
        -24    2    1    2    0    0 -0.43292389110E+02  0.95628360508E+00 -0.18952854010E+03  0.21071518542E+03  0.81269160334E+02 0.  0.
         25    2    1    2    0    0 -0.47641324162E+01  0.87907281482E+01  0.32515079632E+03  0.34852867477E+03  0.12509685418E+03 0.  0.
         24    2    1    2    0    0  0.48056521526E+02 -0.97470117532E+01  0.96407526890E+03  0.96972317137E+03  0.92290148384E+02 0.  0.
        -13    1    5    5    0    0  0.71898790349E+02 -0.13681146317E+02  0.84838886701E+03  0.85153994591E+03  0.00000000000E+00 0.  1.
         14    1    5    5    0    0 -0.23842268823E+02  0.39341345641E+01  0.11568640189E+03  0.11818322546E+03  0.00000000000E+00 0. -1.
         13    1    3    3    0    0 -0.56429813484E+01 -0.26554855908E+02 -0.14032262554E+03  0.14292460547E+03  0.00000000000E+00 0. -1.
        -14    1    3    3    0    0 -0.37649407762E+02  0.27511139513E+02 -0.49205914557E+02  0.67790579947E+02  0.00000000000E+00 0.  1.
          5    1    4    4  501    0  0.30002227418E+02 -0.48748431171E+02  0.16865265390E+03  0.17815087219E+03  0.41800000000E+01 0.  1.
         -5    1    4    4    0  501 -0.34766359835E+02  0.57539159319E+02  0.15649814242E+03  0.17037780258E+03  0.41800000000E+01 0.  1.
</event>
<event>
11    1  0.6455215E-009  0.1414509E+03  0.7561462E-02  0.1105949E+00
         22   -1    0    0    0    0  0.00000000000E+00  0.00000000000E+00  0.97349243290E+03  0.97349243290E+03  0.00000000000E+00 0.  1.
         22   -1    0    0    0    0 -0.00000000000E+00 -0.00000000000E+00 -0.61949438587E+03  0.61949438587E+03  0.00000000000E+00 0.  1.
         24    2    1    2    0    0 -0.13736754453E+02  0.62868873811E+02 -0.45752987190E+03  0.46879906020E+03  0.79358562520E+02 0.  0.
         25    2    1    2    0    0 -0.84030420646E+01 -0.80284580104E+02 -0.11819908753E+03  0.19006693777E+03  0.12505275535E+03 0.  0.
        -24    2    1    2    0    0  0.22139796518E+02  0.17415706293E+02  0.92972700645E+03  0.93412082080E+03  0.85999557621E+02 0.  0.
        -11    1    3    3    0    0  0.17007726898E+01  0.75306528839E+02 -0.27280021570E+03  0.28300869880E+03  0.00000000000E+00 0.  1.
         12    1    3    3    0    0 -0.15437527143E+02 -0.12437655028E+02 -0.18472965620E+03  0.18579036139E+03  0.00000000000E+00 0. -1.
         11    1    5    5    0    0 -0.18945283836E+02 -0.51583480848E+01  0.59993992970E+02  0.63125363579E+02  0.00000000000E+00 0. -1.
        -12    1    5    5    0    0  0.41085080353E+02  0.22574054378E+02  0.86973301348E+03  0.87099545722E+03  0.00000000000E+00 0.  1.
          5    1    4    4  501    0 -0.62175509334E+01 -0.10100554247E+03 -0.13074726624E+03  0.16538771895E+03  0.41800000000E+01 0. -1.
         -5    1    4    4    0  501 -0.21854911313E+01  0.20720962362E+02  0.12548178713E+02  0.24679218822E+02  0.41800000000E+01 0. -1.
</event>
<event>
11    1  0.6455215E-009  0.3432778E+03  0.7561462E-02  0.9833748E-01
         22   -1    0    0    0    0  0.00000000000E+00  0.00000000000E+00  0.54035781534E+03  0.54035781534E+03  0.00000000000E+00 0.  1.
         22   -1    0    0    0    0 -0.00000000000E+00 -0.00000000000E+00 -0.58419310296E+03  0.58419310296E+03  0.00000000000E+00 0.  1.
        -24    2    1    2    0    0 -0.27607763736E+03  0.19180692172E+03 -0.41538097942E+03  0.54047478848E+03  0.81011615493E+02 0.  0.
         25    2    1    2    0    0  0.15013724895E+03 -0.16295517919E+03  0.34872853566E+03  0.43168860548E+03  0.12509147285E+03 0.  0.
         24    2    1    2    0    0  0.12594038842E+03 -0.28851742531E+02  0.22817156147E+02  0.15238752434E+03  0.77510841036E+02 0.  0.
        -11    1    5    5    0    0  0.92400229154E+02 -0.46358121610E+02 -0.78648761178E+01  0.10367610170E+03  0.00000000000E+00 0.  1.
         12    1    5    5    0    0  0.33540159262E+02  0.17506379079E+02  0.30682032265E+02  0.48711422641E+02  0.00000000000E+00 0. -1.
         11    1    3    3    0    0 -0.36749647921E+02  0.18344302491E+02 -0.17088227199E+02  0.44486599836E+02  0.00000000000E+00 0. -1.
        -12    1    3    3    0    0 -0.23932798944E+03  0.17346261923E+03 -0.39829275222E+03  0.49598818864E+03  0.00000000000E+00 0.  1.
          5    1    4    4  501    0  0.15125864304E+02  0.25755727103E+01 -0.64845744388E+01  0.17174034220E+02  0.41800000000E+01 0. -1.
         -5    1    4    4    0  501  0.13501138464E+03 -0.16553075190E+03  0.35521311010E+03  0.41451457126E+03  0.41800000000E+01 0. -1.
</event>
<event>
11    1  0.6455215E-009  0.2161866E+03  0.7561462E-02  0.1043633E+00
         22   -1    0    0    0    0  0.00000000000E+00  0.00000000000E+00  0.14122954660E+03  0.14122954660E+03  0.00000000000E+00 0.  1.
         22   -1    0    0    0    0 -0.00000000000E+00 -0.00000000000E+00 -0.15307685278E+04  0.15307685278E+04  0.00000000000E+00 0. -1.
        -24    2    1    2    0    0 -0.19663886012E+02 -0.11032627229E+03 -0.72830511925E+03  0.74088892193E+03  0.77003202124E+02 0.  0.
         25    2    1    2    0    0 -0.15125704132E+03  0.48374702387E+02 -0.70002271806E+03  0.72862804896E+03  0.12509285967E+03 0.  0.
         24    2    1    2    0    0  0.17092092734E+03  0.61951569907E+02  0.38788856108E+02  0.20248110353E+03  0.80262453943E+02 0.  0.
        -13    1    5    5    0    0  0.83318457018E+02 -0.84748384949E+01  0.53995110051E+00  0.83750102774E+02  0.00000000000E+00 0.  1.
         14    1    5    5    0    0  0.87602470318E+02  0.70426408402E+02  0.38248905007E+02  0.11873100076E+03  0.00000000000E+00 0. -1.
         13    1    3    3    0    0  0.61582590975E+01 -0.71416687940E+02 -0.60153983922E+03  0.60579571279E+03  0.00000000000E+00 0. -1.
        -14    1    3    3    0    0 -0.25822145109E+02 -0.38909584354E+02 -0.12676528003E+03  0.13509320913E+03  0.00000000000E+00 0.  1.
          5    1    4    4  501    0 -0.11816520980E+03  0.46263012386E+02 -0.28192302184E+03  0.30919467293E+03  0.41800000000E+01 0. -1.
         -5    1    4    4    0  501 -0.33091831527E+02  0.21116900013E+01 -0.41809969622E+03  0.41943337603E+03  0.41800000000E+01 0. -1.
</event>
<event>
11    1  0.6455215E-009  0.1723748E+03  0.7561462E-02  0.1075983E+00
         22   -1    0    0    0    0  0.00000000000E+00  0.00000000000E+00  0.23918462589E+04  0.23918462589E+04  0.00000000000E+00 0. -1.
         22   -1    0    0    0    0 -0.00000000000E+00 -0.00000000000E+00 -0.80074302529E+03  0.80074302529E+03  0.00000000000E+00 0. -1.
        -24    2    1    2    0    0  0.29824525580E+01  0.84702404700E+02 -0.78332459358E+03  0.79196867369E+03  0.80209530710E+02 0.  0.
         25    2    1    2    0    0  0.10279273406E+03 -0.54653984735E+01  0.68916074924E+03  0.70794458459E+03  0.12508708888E+03 0.  0.
         24    2    1    2    0    0 -0.10577518662E+03 -0.79237006227E+02  0.16852670780E+04  0.16926760259E+04  0.86948901134E+02 0.  0.
        -13    1    5    5    0    0 -0.58318576800E+02 -0.42595737892E+02  0.43353481999E+03  0.43950869551E+03  0.00000000000E+00 0.  1.
         14    1    5    5    0    0 -0.47456609822E+02 -0.36641268335E+02  0.12517322580E+04  0.12531673304E+04  0.00000000000E+00 0. -1.
         11    1    3    3    0    0 -0.32909321646E+02  0.69605018747E+02 -0.47586859704E+03  0.48205684700E+03  0.00000000000E+00 0. -1.
        -12    1    3    3    0    0  0.35891774204E+02  0.15097385953E+02 -0.30745599654E+03  0.30991182670E+03  0.00000000000E+00 0.  1.
          5    1    4    4  501    0  0.91248672165E+02  0.48183569240E+02  0.51653759819E+03  0.52676041923E+03  0.41800000000E+01 0. -1.
         -5    1    4    4    0  501  0.11544061899E+02 -0.53648967713E+02  0.17262315105E+03  0.18118416537E+03  0.41800000000E+01 0. -1.
</event>
<event>
11    1  0.6455215E-009  0.1306481E+03  0.7561462E-02  0.1118475E+00
         22   -1    0    0    0    0  0.00000000000E+00  0.00000000000E+00  0.98762777834E+02  0.98762777834E+02  0.00000000000E+00 0. -1.
         22   -1    0    0    0    0 -0.00000000000E+00 -0.00000000000E+00 -0.19114977768E+04  0.19114977768E+04  0.00000000000E+00 0. -1.
        -24    2    1    2    0    0 -0.19023029547E+02  0.53486673194E+01 -0.17214275454E+04  0.17234596963E+04  0.81302194227E+02 0.  0.
         25    2    1    2    0    0  0.53202153793E+02 -0.10788842739E+02 -0.12995892286E+03  0.18836866099E+03  0.12508622034E+03 0.  0.
         24    2    1    2    0    0 -0.34179124246E+02  0.54401754192E+01  0.38651469315E+02  0.98432197326E+02  0.83648988920E+02 0.  0.
        -13    1    5    5    0    0 -0.86841573136E+01 -0.39390721326E+01 -0.26328616470E+02  0.28002266386E+02  0.00000000000E+00 0.  1.
         14    1    5    5    0    0 -0.25494966932E+02  0.93792475518E+01  0.64980085786E+02  0.70429930940E+02  0.00000000000E+00 0. -1.
         13    1    3    3    0    0  0.12270110541E+02 -0.60732949779E+01 -0.14403382923E+04  0.14404033590E+04  0.00000000000E+00 0. -1.
        -14    1    3    3    0    0 -0.31293140088E+02  0.11421962297E+02 -0.28108925315E+03  0.28305633728E+03  0.00000000000E+00 0.  1.
          5    1    4    4  501    0 -0.18100813133E+02 -0.34109475295E+02 -0.68601514384E+00  0.38846348062E+02  0.41800000000E+01 0.  1.
         -5    1    4    4    0  501  0.71302966926E+02  0.23320632556E+02 -0.12927290772E+03  0.14952231293E+03  0.41800000000E+01 0.  1.
</event>
<event>
11    1  0.6455215E-009  0.1374414E+03  0.7561462E-02  0.1110450E+00
         22   -1    0    0    0    0  0.00000000000E+00  0.00000000000E+00  0.98573546605E+03  0.98573546605E+03  0.00000000000E+00 0. -1.
         22   -1    0    0    0    0 -0.00000000000E+00 -0.00000000000E+00 -0.43186500346E+03  0.43186500346E+03  0.00000000000E+00 0.  1.
         24    2    1    2    0    0 -0.31537785902E+02  0.86926339976E+01 -0.40678981602E+03  0.41597431887E+03  0.80538721849E+02 0.  0.
         25    2    1    2    0    0 -0.29825629992E+01  0.41720576863E+02  0.23913713582E+03  0.27310034720E+03  0.12509087776E+03 0.  0.
        -24    2    1    2    0    0  0.34520348902E+02 -0.50413210860E+02  0.72152314280E+03  0.72852580344E+03  0.80131481754E+02 0.  0.
        -13    1    3    3    0    0 -0.41183092479E+02 -0.29088191089E+01 -0.39410939911E+03  0.39626597987E+03  0.00000000000E+00 0.  1.
         14    1    3    3    0    0  0.96453065766E+01  0.11601453106E+02 -0.12680416906E+02  0.19708338997E+02  0.00000000000E+00 0. -1.
         13    1    5    5    0    0 -0.13499900225E+02 -0.20487337063E+02  0.63510902812E+02  0.68085336615E+02  0.00000000000E+00 0. -1.
        -14    1    5    5    0    0  0.48020249127E+02 -0.29925873797E+02  0.65801223999E+03  0.66044046683E+03  0.00000000000E+00 0.  1.
          5    1    4    4  501    0 -0.12011556972E+02  0.84875985920E+02  0.13544707895E+03  0.16034835229E+03  0.41800000000E+01 0.  1.
         -5    1    4    4    0  501  0.90289939731E+01 -0.43155409057E+02  0.10369005687E+03  0.11275199491E+03  0.41800000000E+01 0.  1.
</event>
<event>
11    1  0.6455215E-009  0.1420192E+03  0.7561462E-02  0.1105324E+00
         22   -1    0    0    0    0  0.00000000000E+00  0.00000000000E+00  0.18393540118E+03  0.18393540118E+03  0.00000000000E+00 0. -1.
         22   -1    0    0    0    0 -0.00000000000E+00 -0.00000000000E+00 -0.62510442495E+03  0.62510442495E+03  0.00000000000E+00 0. -1.
         24    2    1    2    0    0  0.64694252311E+01  0.11328428797E+02 -0.53089419760E+03  0.53691341950E+03  0.79102365539E+02 0.  0.
         25    2    1    2    0    0 -0.71666738542E+02 -0.12316753540E+02  0.17199685294E+02  0.14570765411E+03  0.12508823870E+03 0.  0.
        -24    2    1    2    0    0  0.65197313311E+02  0.98832474308E+00  0.72525488526E+02  0.12641875252E+03  0.80436857565E+02 0.  0.
        -13    1    3    3    0    0  0.12042875478E+02  0.43388309395E+02 -0.37245842676E+03  0.37517043581E+03  0.00000000000E+00 0.  1.
         14    1    3    3    0    0 -0.55734502468E+01 -0.32059880597E+02 -0.15843577083E+03  0.16174298368E+03  0.00000000000E+00 0. -1.
         13    1    5    5    0    0  0.51650849331E+02  0.37739205884E+02  0.50361199034E+02  0.81414422957E+02  0.00000000000E+00 0. -1.
        -14    1    5    5    0    0  0.13546463980E+02 -0.36750881141E+02  0.22164289492E+02  0.45004329566E+02  0.00000000000E+00 0.  1.
          5    1    4    4  501    0 -0.77347722877E+02  0.18449755059E+01  0.61336098050E+02  0.98821371641E+02  0.41800000000E+01 0.  1.
         -5    1    4    4    0  501  0.56809843352E+01 -0.14161729046E+02 -0.44136412756E+02  0.46886282467E+02  0.41800000000E+01 0.  1.
</event>
<event>
11    1  0.6455215E-009  0.1278803E+03  0.7561462E-02  0.1121901E+00
         22   -1    0    0    0    0  0.00000000000E+00  0.00000000000E+00  0.99145984163E+03  0.99145984163E+03  0.00000000000E+00 0.  1.
         22   -1    0    0    0    0 -0.00000000000E+00 -0.00000000000E+00 -0.54347949968E+03  0.54347949968E+03  0.00000000000E+00 0.  1.
        -24    2    1    2    0    0  0.93432567828E+01 -0.24598754952E+02 -0.48683666321E+03  0.49439511407E+03  0.82001201125E+02 0.  0.
         25    2    1    2    0    0 -0.33402126943E+02  0.21507495832E+02  0.33792451490E+02  0.13552639190E+03  0.12508876313E+03 0.  0.
         24    2    1    2    0    0  0.24058870160E+02  0.30912591194E+01  0.90102455367E+03  0.90501783534E+03  0.81385814851E+02 0.  0.
        -13    1    5    5    0    0  0.11534124818E+02 -0.37731036314E+02  0.54837277553E+03  0.54979029464E+03  0.00000000000E+00 0.  1.
         14    1    5    5    0    0  0.12524745342E+02  0.40822295434E+02  0.35265177814E+03  0.35522754070E+03  0.00000000000E+00 0. -1.
         13    1    3    3    0    0 -0.62138153584E+01 -0.26490036024E+02 -0.47212992272E+02  0.54492202645E+02  0.00000000000E+00 0. -1.
        -14    1    3    3    0    0  0.15557072141E+02  0.18912810719E+01 -0.43962367094E+03  0.43990291143E+03  0.00000000000E+00 0.  1.
          5    1    4    4  501    0 -0.34837147515E+02 -0.46685031949E+02 -0.18996052799E+01  0.58431155690E+02  0.41800000000E+01 0.  1.
         -5    1    4    4    0  501  0.14350205721E+01  0.68192527782E+02  0.35692056770E+02  0.77095236207E+02  0.41800000000E+01 0.  1.
</event>
<event>
11    1  0.6455215E-009  0.1365462E+03  0.7561462E-02  0.1111478E+00
         22   -1    0    0    0    0  0.00000000000E+00  0.00000000000E+00  0.12756882429E+03  0.12756882429E+03  0.00000000000E+00 0. -1.
         22   -1    0    0    0    0 -0.00000000000E+00 -0.00000000000E+00 -0.13254044840E+04  0.13254044840E+04  0.00000000000E+00 0.  1.
         24    2    1    2    0    0  0.53447786706E+02 -0.58904453847E+01 -0.76201254935E+03  0.76805365279E+03  0.79698964487E+02 0.  0.
         25    2    1    2    0    0 -0.10531155044E+03 -0.20604629310E+01 -0.52339396870E+03  0.54834658028E+03  0.12509179617E+03 0.  0.
        -24    2    1    2    0    0  0.51863763735E+02  0.79509083157E+01  0.87570858384E+02  0.13657307518E+03  0.90722007775E+02 0.  0.
        -11    1    3    3    0    0  0.31094052736E+02  0.30134949585E+02 -0.21013395475E+03  0.21454890874E+03  0.00000000000E+00 0.  1.
         12    1    3    3    0    0  0.22353733970E+02 -0.36025394970E+02 -0.55187859460E+03  0.55350474405E+03  0.00000000000E+00 0. -1.
         13    1    5    5    0    0  0.57135190954E+02 -0.78297665371E+01  0.10025062412E+03  0.11565432515E+03  0.00000000000E+00 0. -1.
        -14    1    5    5    0    0 -0.52714272192E+01  0.15780674853E+02 -0.12679765737E+02  0.20918750031E+02  0.00000000000E+00 0.  1.
          5    1    4    4  501    0 -0.52052588539E+02 -0.27898337183E+02 -0.72678662756E+02  0.93741397532E+02  0.41800000000E+01 0.  1.
         -5    1    4    4    0  501 -0.53258961901E+02  0.25837874252E+02 -0.45071530594E+03  0.45460518275E+03  0.41800000000E+01 0.  1.
</event>
<event>
11    1  0.6455215E-009  0.1317719E+03  0.7561462E-02  0.1117111E+00
         22   -1    0    0    0    0  0.00000000000E+00  0.00000000000E+00  0.27173947620E+04  0.27173947620E+04  0.00000000000E+00 0. -1.
         22   -1    0    0    0    0 -0.00000000000E+00 -0.00000000000E+00 -0.63870945313E+02  0.63870945313E+02  0.00000000000E+00 0. -1.
        -24    2    1    2    0    0  0.29220573315E+02  0.27903714666E+02 -0.18108300905E+02  0.92597174807E+02  0.81325684895E+02 0.  0.
         25    2    1    2    0    0 -0.26690895145E+02 -0.57107041313E+02  0.63599232265E+03  0.65123544358E+03  0.12509096874E+03 0.  0.
         24    2    1    2    0    0 -0.25296781706E+01  0.29203326648E+02  0.20356397949E+04  0.20374330889E+04  0.80280654681E+02 0.  0.
        -11    1    5    5    0    0  0.10182047528E+02  0.24355321975E+02  0.19904070192E+03  0.20078360695E+03  0.00000000000E+00 0.  1.
         12    1    5    5    0    0 -0.12711725699E+02  0.48480046728E+01  0.18365990930E+04  0.18366494820E+04  0.00000000000E+00 0. -1.
         13    1    3    3    0    0 -0.12703368744E+02 -0.13123122921E+02 -0.27680031572E+02  0.33162872018E+02  0.00000000000E+00 0. -1.
        -14    1    3    3    0    0  0.41923942059E+02  0.41026837587E+02  0.95717306662E+01  0.59434302790E+02  0.00000000000E+00 0.  1.
          5    1    4    4  501    0 -0.29966697660E+02 -0.42187918677E+02  0.82234741567E+02  0.97251470794E+02  0.41800000000E+01 0. -1.
         -5    1    4    4    0  501  0.32758025156E+01 -0.14919122636E+02  0.55375758108E+03  0.55398397279E+03  0.41800000000E+01 0. -1.
</event>
<event>
11    1  0.6455215E-009  0.1615155E+03  0.7561462E-02  0.1085661E+00
         22   -1    0    0    0    0  0.00000000000E+00  0.00000000000E+00  0.15427218725E+03  0.15427218725E+03  0.00000000000E+00 0.  1.
         22   -1    0    0    0    0 -0.00000000000E+00 -0.00000000000E+00 -0.46013822261E+03  0.46013822261E+03  0.00000000000E+00 0.  1.
        -24    2    1    2    0    0  0.95425935531E+02  0.21121169611E+02 -0.17243843120E+03  0.21379616154E+03  0.80134718780E+02 0.  0.
         25    2    1    2    0    0 -0.11282594117E+03  0.40779364980E+02 -0.19543546524E+03  0.26121658074E+03  0.12508569610E+03 0.  0.
         24    2    1    2    0    0  0.17400005638E+02 -0.61900534591E+02  0.62007861089E+02  0.13939766759E+03  0.10701541250E+03 0.  0.
        -13    1    5    5    0    0 -0.34004282797E+02 -0.33987864786E+02  0.64975468656E+02  0.80828693719E+02  0.00000000000E+00 0.  1.
         14    1    5    5    0    0  0.51404288435E+02 -0.27912669805E+02 -0.29676075666E+01  0.58568973867E+02  0.00000000000E+00 0. -1.
         11    1    3    3    0    0 -0.11104075498E+02 -0.91180843909E+01 -0.30964104948E+02  0.34135256713E+02  0.00000000000E+00 0. -1.
        -12    1    3    3    0    0  0.10653001103E+03  0.30239254002E+02 -0.14147432625E+03  0.17966090482E+03  0.00000000000E+00 0.  1.
          5    1    4    4  501    0 -0.11689220924E+03  0.23760286156E+02 -0.20762403839E+03  0.23948601941E+03  0.41800000000E+01 0.  1.
         -5    1    4    4    0  501  0.40662680692E+01  0.17019078824E+02  0.12188573148E+02  0.21730561323E+02  0.41800000000E+01 0.  1.
</event>
<event>
11    1  0.6455215E-009  0.1402400E+03  0.7561462E-02  0.1107291E+00
         22   -1    0    0    0    0  0.00000000000E+00  0.00000000000E+00  0.21727006291E+03  0.21727006291E+03  0.00000000000E+00 0.  1.
         22   -1    0    0    0    0 -0.00000000000E+00 -0.00000000000E+00 -0.75235679646E+03  0.75235679646E+03  0.00000000000E+00 0.  1.
         24    2    1    2    0    0 -0.53725249677E+02  0.68854711533E+01 -0.31051352722E+03  0.32535593137E+03  0.80647500431E+02 0.  0.
         25    2    1    2    0    0  0.79897525029E+02  0.35832786713E+02 -0.40938516179E+03  0.43693349503E+03  0.12508822996E+03 0.  0.
        -24    2    1    2    0    0 -0.26172275352E+02 -0.42718257866E+02  0.18481195545E+03  0.20733743298E+03  0.79520529956E+02 0.  0.
        -13    1    3    3    0    0 -0.75239568262E+02  0.74809722828E+01 -0.24408755240E+03  0.25553021507E+03  0.00000000000E+00 0.  1.
         14    1    3    3    0    0  0.21514318585E+02 -0.59550112946E+00 -0.66425974821E+02  0.69825716299E+02  0.00000000000E+00 0. -1.
         13    1    5    5    0    0  0.68707513042E+01  0.19226052045E+02  0.68513937745E+02  0.71491313920E+02  0.00000000000E+00 0. -1.
        -14    1    5    5    0    0 -0.33043026656E+02 -0.61944309911E+02  0.11629801770E+03  0.13584611906E+03  0.00000000000E+00 0.  1.
          5    1    4    4  501    0  0.73631758871E+02  0.40217707821E+02 -0.11496896343E+03  0.14238832427E+03  0.41800000000E+01 0. -1.
         -5    1    4    4    0  501  0.62657661579E+01 -0.43849211077E+01 -0.29441619836E+03  0.29454517076E+03  0.41800000000E+01 0. -1.
</event>
<event>
11    1  0.6455215E-009  0.1343713E+03  0.7561462E-02  0.1114012E+00
         22   -1    0    0    0    0  0.00000000000E+00  0.00000000000E+00  0.10192225762E+04  0.10192225762E+04  0.00000000000E+00 0. -1.
         22   -1    0    0    0    0 -0.00000000000E+00 -0.00000000000E+00 -0.11184167310E+04  0.11184167310E+04  0.00000000000E+00 0. -1.
        -24    2    1    2    0    0 -0.11904090597E+02 -0.48473662119E+02 -0.10177142487E+04  0.10210527009E+04  0.65688070917E+02 0.  0.
         25    2    1    2    0    0 -0.25187758724E+02  0.79796483883E+02 -0.38200833740E+02  0.15526949120E+03  0.12508960456E+03 0.  0.
         24    2    1    2    0    0  0.37091849321E+02 -0.31322821764E+02  0.95672092757E+03  0.96131711511E+03  0.80366274732E+02 0.  0.
        -11    1    5    5    0    0  0.30287933636E+02 -0.15850761138E+01  0.11166110458E+03  0.11570684365E+03  0.00000000000E+00 0.  1.
         12    1    5    5    0    0  0.68039156856E+01 -0.29737745651E+02  0.84505982299E+03  0.84561027147E+03  0.00000000000E+00 0. -1.
         11    1    3    3    0    0 -0.12771340127E+02 -0.18339002209E+02 -0.87032541549E+03  0.87061228741E+03  0.00000000000E+00 0. -1.
        -12    1    3    3    0    0  0.86724952934E+00 -0.30134659910E+02 -0.14738883319E+03  0.15044041345E+03  0.00000000000E+00 0.  1.
          5    1    4    4  501    0 -0.73703134184E+02  0.38969582871E+02 -0.38012612954E+02  0.91723560339E+02  0.41800000000E+01 0. -1.
         -5    1    4    4    0  501  0.48515375460E+02  0.40826901013E+02 -0.18822078577E+00  0.63545930864E+02  0.41800000000E+01 0. -1.
</event>
<event>
11    1  0.6455215E-009  0.1578665E+03  0.7561462E-02  0.1089101E+00
         22   -1    0    0    0    0  0.00000000000E+00  0.00000000000E+00  0.50184191271E+03  0.50184191271E+03  0.00000000000E+00 0. -1.
         22   -1    0    0    0    0 -0.00000000000E+00 -0.00000000000E+00 -0.44096723801E+03  0.44096723801E+03  0.00000000000E+00 0. -1.
        -24    2    1    2    0    0 -0.18281197536E+02 -0.11581759681E+02 -0.38609729541E+03  0.39598821072E+03  0.85247886591E+02 0.  0.
         25    2    1    2    0    0  0.49804881494E+02  0.98433098956E+02  0.14118699322E+03  0.21851979404E+03  0.12509009610E+03 0.  0.
         24    2    1    2    0    0 -0.31523683959E+02 -0.86851339275E+02  0.30578497689E+03  0.32830114596E+03  0.75764718438E+02 0.  0.
        -11    1    5    5    0    0 -0.13112112415E+02 -0.54162733142E+02  0.69629086057E+02  0.89183736065E+02  0.00000000000E+00 0.  1.
         12    1    5    5    0    0 -0.18411571544E+02 -0.32688606133E+02  0.23615589084E+03  0.23911740989E+03  0.00000000000E+00 0. -1.
         13    1    3    3    0    0 -0.32078952838E+02 -0.98637313935E+01 -0.37880283600E+03  0.38028665632E+03  0.00000000000E+00 0. -1.
        -14    1    3    3    0    0  0.13797755302E+02 -0.17180282873E+01 -0.72944594063E+01  0.15701554401E+02  0.00000000000E+00 0.  1.
          5    1    4    4  501    0  0.87033487807E+02  0.55709002545E+02  0.11863656322E+03  0.15738623668E+03  0.41800000000E+01 0.  1.
         -5    1    4    4    0  501 -0.37228606313E+02  0.42724096411E+02  0.22550430004E+02  0.61133557360E+02  0.41800000000E+01 0.  1.
</event>
<event>
11    1  0.6455215E-009  0.1291889E+03  0.7561462E-02  0.1120270E+00
         22   -1    0    0    0    0  0.00000000000E+00  0.00000000000E+00  0.25107346800E+03  0.25107346800E+03  0.00000000000E+00 0. -1.
         22   -1    0    0    0    0 -0.00000000000E+00 -0.00000000000E+00 -0.12691234097E+04  0.12691234097E+04  0.00000000000E+00 0.  1.
        -24    2    1    2    0    0 -0.10941589119E+01 -0.32085248012E+02 -0.12163715816E+04  0.12193087370E+04  0.78251589884E+02 0.  0.
         25    2    1    2    0    0 -0.18919179822E+02  0.46455336725E+02  0.82333834492E+02  0.15793452811E+03  0.12509364969E+03 0.  0.
         24    2    1    2    0    0  0.20013338734E+02 -0.14370088713E+02  0.11598780538E+03  0.14295361261E+03  0.79846923458E+02 0.  0.
        -13    1    5    5    0    0  0.17884405121E+02  0.21712722711E+02  0.99178649061E+02  0.10309073044E+03  0.00000000000E+00 0.  1.
         14    1    5    5    0    0  0.21289336120E+01 -0.36082811424E+02  0.16809156315E+02  0.39862882166E+02  0.00000000000E+00 0. -1.
         11    1    3    3    0    0  0.20023375910E+02 -0.41317583939E+02 -0.40239726752E+03  0.40500819651E+03  0.00000000000E+00 0. -1.
        -12    1    3    3    0    0 -0.21117534822E+02  0.92323359271E+01 -0.81397431406E+03  0.81430054050E+03  0.00000000000E+00 0.  1.
          5    1    4    4  501    0 -0.57907092085E+00  0.85444609233E+02  0.75517090485E+02  0.11411143644E+03  0.41800000000E+01 0.  1.
         -5    1    4    4    0  501 -0.18340108901E+02 -0.38989272508E+02  0.68167440070E+01  0.43823091676E+02  0.41800000000E+01 0.  1.
</event>
<event>
11    1  0.6455215E-009  0.1341873E+03  0.7561462E-02  0.1114229E+00
         22   -1    0    0    0    0  0.00000000000E+00  0.00000000000E+00  0.83495557990E+03  0.83495557990E+03  0.00000000000E+00 0.  1.
         22   -1    0    0    0    0 -0.00000000000E+00 -0.00000000000E+00 -0.69065964755E+02  0.69065964755E+02  0.00000000000E+00 0.  1.
         24    2    1    2    0    0  0.21343061561E+02 -0.95451056851E+01 -0.12446953873E+02  0.84206379359E+02  0.79932173401E+02 0.  0.
         25    2    1    2    0    0  0.26297098892E+01  0.52120668801E+02  0.26552496103E+03  0.29810377772E+03  0.12505549918E+03 0.  0.
        -24    2    1    2    0    0 -0.23972771450E+02 -0.42575563116E+02  0.51281160799E+03  0.52171138757E+03  0.82581198133E+02 0.  0.
        -13    1    3    3    0    0 -0.56136899420E+01  0.23923610770E+02 -0.29126970174E+02  0.38108175744E+02  0.00000000000E+00 0.  1.
         14    1    3    3    0    0  0.26956751503E+02 -0.33468716455E+02  0.16680016301E+02  0.46098203615E+02  0.00000000000E+00 0. -1.
         13    1    5    5    0    0 -0.85244712896E+01  0.20850488764E+02  0.57688251819E+02  0.61930153321E+02  0.00000000000E+00 0. -1.
        -14    1    5    5    0    0 -0.15448300161E+02 -0.63426051880E+02  0.45512335617E+03  0.45978123425E+03  0.00000000000E+00 0.  1.
          5    1    4    4  501    0 -0.16678821957E+02  0.69751461994E+02  0.68352935862E+02  0.99161715360E+02  0.41800000000E+01 0.  1.
         -5    1    4    4    0  501  0.19308531846E+02 -0.17630793193E+02  0.19717202516E+03  0.19894206236E+03  0.41800000000E+01 0.  1.
</event>
<event>
11    1  0.6455215E-009  0.2139549E+03  0.7561462E-02  0.1045072E+00
         22   -1    0    0    0    0  0.00000000000E+00  0.00000000000E+00  0.32860911089E+03  0.32860911089E+03  0.00000000000E+00 0.  1.
         22   -1    0    0    0    0 -0.00000000000E+00 -0.00000000000E+00 -0.12584538867E+04  0.12584538867E+04  0.00000000000E+00 0. -1.
        -24    2    1    2    0    0  0.13637617462E+03 -0.11178436986E+03 -0.11903073017E+04  0.12060489083E+04  0.81414313257E+02 0.  0.
         25    2    1    2    0    0 -0.64621094419E+02  0.92209642939E+02  0.14783388707E+03  0.22400752442E+03  0.12508400672E+03 0.  0.
         24    2    1    2    0    0 -0.71755080199E+02  0.19574726920E+02  0.11262863879E+03  0.15700656490E+03  0.80211530824E+02 0.  0.
        -13    1    5    5    0    0 -0.44826658320E+02 -0.28071997679E+02  0.41329244112E+02  0.67123563439E+02  0.00000000000E+00 0.  1.
         14    1    5    5    0    0 -0.26928421879E+02  0.47646724599E+02  0.71299394678E+02  0.89883001460E+02  0.00000000000E+00 0. -1.
         11    1    3    3    0    0  0.47701549048E+02 -0.54478780238E+02 -0.73979526851E+03  0.74333062267E+03  0.00000000000E+00 0. -1.
        -12    1    3    3    0    0  0.88674625570E+02 -0.57305589621E+02 -0.45051203316E+03  0.46271828562E+03  0.00000000000E+00 0.  1.
          5    1    4    4  501    0 -0.87659516419E+02  0.60695163509E+02  0.48523386735E+02  0.11721810932E+03  0.41800000000E+01 0.  1.
         -5    1    4    4    0  501  0.23038422001E+02  0.31514479429E+02  0.99310500332E+02  0.10678941510E+03  0.41800000000E+01 0.  1.
</event>
<event>
11    1  0.6455215E-009  0.1556590E+03  0.7561462E-02  0.1091233E+00
         22   -1    0    0    0    0  0.00000000000E+00  0.00000000000E+00  0.11344762958E+04  0.11344762958E+04  0.00000000000E+00 0.  1.
         22   -1    0    0    0    0 -0.00000000000E+00 -0.00000000000E+00 -0.11238451105E+03  0.11238451105E+03  0.00000000000E+00 0.  1.
         24    2    1    2    0    0  0.40960142726E+02 -0.85985891161E+02 -0.20775213887E+02  0.12619999695E+03  0.80146883578E+02 0.  0.
         25    2    1    2    0    0  0.11068669022E+01  0.91778211123E+02  0.12752528201E+03  0.20083453265E+03  0.12508935511E+03 0.  0.
        -24    2    1    2    0    0 -0.42067009628E+02 -0.57923199627E+01  0.91534171658E+03  0.91982627720E+03  0.80166937345E+02 0.  0.
        -13    1    3    3    0    0  0.16495683978E+02 -0.92576861803E+02 -0.30802220568E+02  0.98951299755E+02  0.00000000000E+00 0.  1.
         14    1    3    3    0    0  0.24464458748E+02  0.65909706422E+01  0.10027006682E+02  0.27248697195E+02  0.00000000000E+00 0. -1.
         13    1    5    5    0    0  0.26240570617E+01 -0.26579755169E+02  0.60548800162E+03  0.60607680137E+03  0.00000000000E+00 0. -1.
        -14    1    5    5    0    0 -0.44691066690E+02  0.20787435206E+02  0.30985371497E+03  0.31374947583E+03  0.00000000000E+00 0.  1.
          5    1    4    4  501    0  0.16523885281E+02  0.11182761274E+03  0.58809847284E+02  0.12749323234E+03  0.41800000000E+01 0. -1.
         -5    1    4    4    0  501 -0.15417018379E+02 -0.20049401617E+02  0.68715434725E+02  0.73341300305E+02  0.41800000000E+01 0. -1.
</event>
<event>
11    1  0.6455215E-009  0.1530942E+03  0.7561462E-02  0.1093758E+00
         22   -1    0    0    0    0  0.00000000000E+00  0.00000000000E+00  0.28449502652E+03  0.28449502652E+03  0.00000000000E+00 0. -1.
         22   -1    0    0    0    0 -0.00000000000E+00 -0.00000000000E+00 -0.26247731964E+04  0.26247731964E+04  0.00000000000E+00 0. -1.
        -24    2    1    2    0    0  0.11601629026E+02 -0.38659167437E+02 -0.25441064936E+04  0.25457399167E+04  0.81760281245E+02 0.  0.
         25    2    1    2    0    0 -0.96988002608E+02  0.26928928932E+02  0.46674687202E+02  0.16720741219E+03  0.12509177592E+03 0.  0.
         24    2    1    2    0    0  0.85386373582E+02  0.11730238505E+02  0.15715363656E+03  0.19632089401E+03  0.80101165114E+02 0.  0.
        -13    1    5    5    0    0  0.48336016146E+02 -0.16351342334E+01  0.17844367476E+02  0.51550611746E+02  0.00000000000E+00 0.  1.
         14    1    5    5    0    0  0.37050357436E+02  0.13365372738E+02  0.13930926908E+03  0.14477028226E+03  0.00000000000E+00 0. -1.
         13    1    3    3    0    0  0.12963475260E+02 -0.61097296610E+02 -0.22076403893E+04  0.22085237196E+04  0.00000000000E+00 0. -1.
        -14    1    3    3    0    0 -0.13618462344E+01  0.22438129173E+02 -0.33646610431E+03  0.33721619714E+03  0.00000000000E+00 0.  1.
          5    1    4    4  501    0 -0.32439448665E+02  0.42478678912E+02 -0.33352358495E+02  0.63139593038E+02  0.41800000000E+01 0. -1.
         -5    1    4    4    0  501 -0.64548553943E+02 -0.15549749980E+02  0.80027045697E+02  0.10406781915E+03  0.41800000000E+01 0. -1.
</event>
<event>
11    1  0.6455215E-009  0.1640623E+03  0.7561462E-02  0.1083318E+00
         22   -1    0    0    0    0  0.00000000000E+00  0.00000000000E+00  0.48815853292E+02  0.48815853292E+02  0.00000000000E+00 0. -1.
         22   -1    0    0    0    0 -0.00000000000E+00 -0.00000000000E+00 -0.10357689257E+04  0.10357689257E+04  0.00000000000E+00 0.  1.
         24    2    1    2    0    0 -0.35890458027E+02  0.30576691636E+02 -0.52424061578E+03  0.53240600592E+03  0.80030449545E+02 0.  0.
         25    2    1    2    0    0  0.12300930646E+03  0.72916111698E+01 -0.24932877666E+03  0.30495407819E+03  0.12509074251E+03 0.  0.
        -24    2    1    2    0    0 -0.87118848438E+02 -0.37868302806E+02 -0.21338367994E+03  0.24722469486E+03  0.81016990648E+02 0.  0.
        -11    1    3    3    0    0 -0.38406811276E+02 -0.88007445682E+01 -0.12132395216E+03  0.12756189723E+03  0.00000000000E+00 0.  1.
         12    1    3    3    0    0  0.25163532486E+01  0.39377436204E+02 -0.40291666362E+03  0.40484410868E+03  0.00000000000E+00 0. -1.
         13    1    5    5    0    0 -0.10231587580E+03 -0.31963879275E+02 -0.19596502478E+03  0.22336633353E+03  0.00000000000E+00 0. -1.
        -14    1    5    5    0    0  0.15197027358E+02 -0.59044235312E+01 -0.17418655161E+02  0.23858361330E+02  0.00000000000E+00 0.  1.
          5    1    4    4  501    0  0.26290893540E+02  0.40039176024E+02 -0.16680873284E+03  0.17360003587E+03  0.41800000000E+01 0. -1.
         -5    1    4    4    0  501  0.96718412925E+02 -0.32747564854E+02 -0.82520043821E+02  0.13135404232E+03  0.41800000000E+01 0. -1.
</event>
<event>
11    1  0.6455215E-009  0.1461844E+03  0.7561462E-02  0.1100843E+00
         22   -1    0    0    0    0  0.00000000000E+00  0.00000000000E+00  0.22187708275E+03  0.22187708275E+03  0.00000000000E+00 0.  1.
         22   -1    0    0    0    0 -0.00000000000E+00 -0.00000000000E+00 -0.11156641264E+04  0.11156641264E+04  0.00000000000E+00 0. -1.
         24    2    1    2    0    0 -0.62351638476E+02 -0.16471185087E+02 -0.83235864753E+03  0.83865075821E+03  0.79719190680E+02 0.  0.
         25    2    1    2    0    0  0.98841977181E+02  0.80003112472E+02 -0.23574906162E+03  0.29562751114E+03  0.12509105016E+03 0.  0.
        -24    2    1    2    0    0 -0.36490338705E+02 -0.63531927386E+02  0.17432066553E+03  0.20326293977E+03  0.74567269215E+02 0.  0.
        -13    1    3    3    0    0 -0.64512060571E+02 -0.11309567241E+02 -0.33947946535E+03  0.34573981499E+03  0.00000000000E+00 0.  1.
         14    1    3    3    0    0  0.21604220951E+01 -0.51616178459E+01 -0.49287918218E+03  0.49291094322E+03  0.00000000000E+00 0. -1.
         13    1    5    5    0    0 -0.15020044311E+02  0.12934530550E+02  0.66211934239E+02  0.69115295321E+02  0.00000000000E+00 0. -1.
        -14    1    5    5    0    0 -0.21470294394E+02 -0.76466457935E+02  0.10810873129E+03  0.13414764445E+03  0.00000000000E+00 0.  1.
          5    1    4    4  501    0  0.62993002598E+02  0.92530832275E+02 -0.86389142518E+02  0.14145893271E+03  0.41800000000E+01 0.  1.
         -5    1    4    4    0  501  0.35848974583E+02 -0.12527719803E+02 -0.14935991910E+03  0.15416857843E+03  0.41800000000E+01 0.  1.
</event>
<event>
11    1  0.6455215E-009  0.1331180E+03  0.7561462E-02  0.1115496E+00
         22   -1    0    0    0    0  0.00000000000E+00  0.00000000000E+00  0.98225581569E+03  0.98225581569E+03  0.00000000000E+00 0. -1.
         22   -1    0    0    0    0 -0.00000000000E+00 -0.00000000000E+00 -0.24955829901E+03  0.24955829901E+03  0.00000000000E+00 0.  1.
         24    2    1    2    0    0 -0.15237008301E+02  0.20599290321E+02 -0.21401543211E+03  0.23016031409E+03  0.80713492176E+02 0.  0.
         25    2    1    2    0    0  0.38084020857E+02  0.19867408882E+02  0.15111482616E+03  0.20081893896E+03  0.12508976370E+03 0.  0.
        -24    2    1    2    0    0 -0.22847012556E+02 -0.40466699203E+02  0.79559812263E+03  0.80083486165E+03  0.78743654810E+02 0.  0.
        -13    1    3    3    0    0 -0.22867709261E+02  0.34379900279E+02 -0.20984036159E+03  0.21386417891E+03  0.00000000000E+00 0.  1.
         14    1    3    3    0    0  0.76307009602E+01 -0.13780609958E+02 -0.41750705176E+01  0.16296135179E+02  0.00000000000E+00 0. -1.
         11    1    5    5    0    0  0.27616900172E+02 -0.28025121966E+02  0.32323722814E+03  0.32562310467E+03  0.00000000000E+00 0. -1.
        -12    1    5    5    0    0 -0.50463912728E+02 -0.12441577237E+02  0.47236089449E+03  0.47521175698E+03  0.00000000000E+00 0.  1.
          5    1    4    4  501    0  0.83371368450E+02  0.64666213790E+01  0.10866626548E+03  0.13718028984E+03  0.41800000000E+01 0.  1.
         -5    1    4    4    0  501 -0.45287347594E+02  0.13400787503E+02  0.42448560680E+02  0.63638649118E+02  0.41800000000E+01 0.  1.
</event>
<event>
11    1  0.6455215E-009  0.1458727E+03  0.7561462E-02  0.1101172E+00
         22   -1    0    0    0    0  0.00000000000E+00  0.00000000000E+00  0.30404502797E+03  0.30404502797E+03  0.00000000000E+00 0. -1.
         22   -1    0    0    0    0 -0.00000000000E+00 -0.00000000000E+00 -0.31891189729E+03  0.31891189729E+03  0.00000000000E+00 0.  1.
         24    2    1    2    0    0  0.54955482725E+00  0.43025000743E+02 -0.92695181419E+02  0.13150754182E+03  0.82767047778E+02 0.  0.
         25    2    1    2    0    0 -0.86055864379E+01  0.34007095007E+02 -0.17350647648E+03  0.21675555573E+03  0.12509170608E+03 0.  0.
        -24    2    1    2    0    0  0.80560316106E+01 -0.77032095750E+02  0.25133478857E+03  0.27469382771E+03  0.79301195557E+02 0.  0.
        -13    1    3    3    0    0 -0.80309208924E+00 -0.25044331068E+02 -0.21766773678E+02  0.33191202327E+02  0.00000000000E+00 0.  1.
         14    1    3    3    0    0  0.13526469165E+01  0.68069331811E+02 -0.70928407741E+02  0.98316339494E+02  0.00000000000E+00 0. -1.
         11    1    5    5    0    0  0.24941455316E+02 -0.83392425875E+02  0.23403264470E+03  0.24969511743E+03  0.00000000000E+00 0. -1.
        -12    1    5    5    0    0 -0.16885423705E+02  0.63603301250E+01  0.17302143875E+02  0.24998710280E+02  0.00000000000E+00 0.  1.
          5    1    4    4  501    0  0.28500253128E+02  0.26827295317E+02 -0.23783551510E+00  0.39363652881E+02  0.41800000000E+01 0. -1.
         -5    1    4    4    0  501 -0.37105839566E+02  0.71797996897E+01 -0.17326864096E+03  0.17739190285E+03  0.41800000000E+01 0. -1.
</event>
<event>
11    1  0.6455215E-009  0.1272016E+03  0.7561462E-02  0.1122756E+00
         22   -1    0    0    0    0  0.00000000000E+00  0.00000000000E+00  0.68200546716E+02  0.68200546716E+02  0.00000000000E+00 0.  1.
         22   -1    0    0    0    0 -0.00000000000E+00 -0.00000000000E+00 -0.11934589057E+04  0.11934589057E+04  0.00000000000E+00 0.  1.
        -24    2    1    2    0    0 -0.28291964858E+02  0.28992066853E+02 -0.65548445048E+03  0.66139161835E+03  0.78345598393E+02 0.  0.
         25    2    1    2    0    0  0.36246045058E+02 -0.47692894120E+02 -0.48628292827E+03  0.50567383538E+03  0.12508618441E+03 0.  0.
         24    2    1    2    0    0 -0.79540801998E+01  0.18700827267E+02  0.16509019715E+02  0.94593998735E+02  0.90898231735E+02 0.  0.
        -11    1    5    5    0    0  0.47286512348E+01  0.11659218012E+02  0.53447891793E+02  0.54908784764E+02  0.00000000000E+00 0.  1.
         12    1    5    5    0    0 -0.12682731435E+02  0.70416092556E+01 -0.36938872078E+02  0.39685213971E+02  0.00000000000E+00 0. -1.
         13    1    3    3    0    0 -0.21048527192E+02 -0.18092444972E+02 -0.97396778273E+02  0.10127442658E+03  0.00000000000E+00 0. -1.
        -14    1    3    3    0    0 -0.72434376661E+01  0.47084511825E+02 -0.55808767220E+03  0.56011719176E+03  0.00000000000E+00 0.  1.
          5    1    4    4  501    0 -0.71547699850E+01 -0.23276521969E+02 -0.98039992737E+01  0.26581535138E+02  0.41800000000E+01 0.  1.
         -5    1    4    4    0  501  0.43400815043E+02 -0.24416372151E+02 -0.47647892899E+03  0.47909230024E+03  0.41800000000E+01 0.  1.
</event>
<event>
11    1  0.6455215E-009  0.1347130E+03  0.7561462E-02  0.1113610E+00
         22   -1    0    0    0    0  0.00000000000E+00  0.00000000000E+00  0.12441495845E+04  0.12441495845E+04  0.00000000000E+00 0.  1.
         22   -1    0    0    0    0 -0.00000000000E+00 -0.00000000000E+00 -0.48594630163E+03  0.48594630163E+03  0.00000000000E+00 0. -1.
        -24    2    1    2    0    0  0.47519984591E+01  0.37420593044E+01 -0.40804363154E+03  0.41614326739E+03  0.81480238403E+02 0.  0.
         25    2    1    2    0    0  0.51850750305E+01 -0.52706842299E+02 -0.78438259564E+01  0.13605401303E+03  0.12507706675E+03 0.  0.
         24    2    1    2    0    0 -0.99370734896E+01  0.48964782995E+02  0.11740907404E+04  0.11778986057E+04  0.80372652896E+02 0.  0.
        -13    1    5    5    0    0 -0.28209635034E+02  0.46533354204E+02  0.11065599594E+04  0.11078971434E+04  0.00000000000E+00 0.  1.
         14    1    5    5    0    0  0.18272561544E+02  0.24314287909E+01  0.67530780947E+02  0.70001462318E+02  0.00000000000E+00 0. -1.
         13    1    3    3    0    0  0.36289944634E+02  0.16580183805E+02 -0.12898295140E+03  0.13501283023E+03  0.00000000000E+00 0. -1.
        -14    1    3    3    0    0 -0.31537946175E+02 -0.12838124501E+02 -0.27906068015E+03  0.28113043715E+03  0.00000000000E+00 0.  1.
          5    1    4    4  501    0  0.35021186419E+02  0.47744530789E+01 -0.47985899194E+02  0.59744437581E+02  0.41800000000E+01 0.  1.
         -5    1    4    4    0  501 -0.29836111389E+02 -0.57481295378E+02  0.40142073238E+02  0.76309575447E+02  0.41800000000E+01 0.  1.
</event>
<event>
11    1  0.6455215E-009  0.1525981E+03  0.7561462E-02  0.1094253E+00
         22   -1    0    0    0    0  0.00000000000E+00  0.00000000000E+00  0.39562443584E+03  0.39562443584E+03  0.00000000000E+00 0. -1.
         22   -1    0    0    0    0 -0.00000000000E+00 -0.00000000000E+00 -0.21905060787E+04  0.21905060787E+04  0.00000000000E+00 0. -1.
        -24    2    1    2    0    0  0.15772518983E+01  0.90856778956E+02 -0.20102014777E+04  0.20138557003E+04  0.80295447555E+02 0.  0.
         25    2    1    2    0    0 -0.27758380132E+02 -0.37326738660E+02 -0.14561416815E+03  0.19752210725E+03  0.12509070229E+03 0.  0.
         24    2    1    2    0    0  0.26181128234E+02 -0.53530040296E+02  0.36093400293E+03  0.37475270699E+03  0.81334618896E+02 0.  0.
        -13    1    5    5    0    0 -0.26890345723E+02 -0.23102799853E+02  0.84592938450E+02  0.91721291365E+02  0.00000000000E+00 0.  1.
         14    1    5    5    0    0  0.53071473957E+02 -0.30427240443E+02  0.27634106448E+03  0.28303141562E+03  0.00000000000E+00 0. -1.
         11    1    3    3    0    0 -0.21829080429E+02  0.69591078480E+02 -0.17798325064E+04  0.17813262413E+04  0.00000000000E+00 0. -1.
        -12    1    3    3    0    0  0.23406332327E+02  0.21265700476E+02 -0.23036897123E+03  0.23252945903E+03  0.00000000000E+00 0.  1.
          5    1    4    4  501    0 -0.74009494685E+02 -0.88096334994E+01 -0.10806791989E+03  0.13134368144E+03  0.41800000000E+01 0. -1.
         -5    1    4    4    0  501  0.46251114552E+02 -0.28517105160E+02 -0.37546248267E+02  0.66178425812E+02  0.41800000000E+01 0. -1.
</event>
<event>
11    1  0.6455215E-009  0.1715984E+03  0.7561462E-02  0.1076649E+00
         22   -1    0    0    0    0  0.00000000000E+00  0.00000000000E+00  0.30265566902E+04  0.30265566902E+04  0.00000000000E+00 0. -1.
         22   -1    0    0    0    0 -0.00000000000E+00 -0.00000000000E+00 -0.13270908749E+03  0.13270908749E+03  0.00000000000E+00 0. -1.
         24    2    1    2    0    0  0.50245032730E+02  0.57307170828E+02 -0.76630957200E+02  0.13790830994E+03  0.85660511366E+02 0.  0.
         25    2    1    2    0    0 -0.16384100240E+03 -0.48978354916E+02  0.45375689448E+03  0.50078507412E+03  0.12509043872E+03 0.  0.
        -24    2    1    2    0    0  0.11359596967E+03 -0.83288159124E+01  0.25167216655E+04  0.25205723937E+04  0.80148841466E+02 0.  0.
        -11    1    3    3    0    0  0.40155728032E+02 -0.10675467146E+02 -0.11242124548E+02  0.43044552000E+02  0.00000000000E+00 0.  1.
         12    1    3    3    0    0  0.10089304698E+02  0.67982637974E+02 -0.65388832653E+02  0.94863757942E+02  0.00000000000E+00 0. -1.
         13    1    5    5    0    0  0.44872497080E+02 -0.33318753539E+02  0.15851681510E+04  0.15861531285E+04  0.00000000000E+00 0. -1.
        -14    1    5    5    0    0  0.68723472592E+02  0.24989937626E+02  0.93155351450E+03  0.93441926513E+03  0.00000000000E+00 0.  1.
          5    1    4    4  501    0 -0.26352394595E+02  0.36427744932E+02  0.14895860306E+03  0.15565207075E+03  0.41800000000E+01 0. -1.
         -5    1    4    4    0  501 -0.13748860781E+03 -0.85406099848E+02  0.30479829141E+03  0.34513300337E+03  0.41800000000E+01 0. -1.
</event>
<event>
11    1  0.6455215E-009  0.1386590E+03  0.7561462E-02  0.1109065E+00
         22   -1    0    0    0    0  0.00000000000E+00  0.00000000000E+00  0.80503301685E+03  0.80503301685E+03  0.00000000000E+00 0.  1.
         22   -1    0    0    0    0 -0.00000000000E+00 -0.00000000000E+00 -0.10904194875E+04  0.10904194875E+04  0.00000000000E+00 0. -1.
         24    2    1    2    0    0  0.47612443828E+02  0.36583209905E+02 -0.10700578385E+04  0.10747557119E+04  0.80441199149E+02 0.  0.
         25    2    1    2    0    0 -0.40978170450E+02  0.22273148231E+01  0.29182216619E+03  0.32014332726E+03  0.12508957558E+03 0.  0.
        -24    2    1    2    0    0 -0.66342733788E+01 -0.38810524728E+02  0.49284920170E+03  0.50055346512E+03  0.78122758611E+02 0.  0.
        -13    1    3    3    0    0  0.34815078124E+02  0.49768097607E+02 -0.41311175368E+03  0.41755272030E+03  0.00000000000E+00 0.  1.
         14    1    3    3    0    0  0.12797365704E+02 -0.13184887703E+02 -0.65694608483E+03  0.65720299163E+03  0.00000000000E+00 0. -1.
         13    1    5    5    0    0 -0.31121387463E+02  0.65983538362E+01  0.11972787873E+03  0.12388237960E+03  0.00000000000E+00 0. -1.
        -14    1    5    5    0    0  0.24487114084E+02 -0.45408878564E+02  0.37312132297E+03  0.37667108552E+03  0.00000000000E+00 0.  1.
          5    1    4    4  501    0 -0.30712602179E+02 -0.57921936640E+02  0.10797483840E+03  0.12638929070E+03  0.41800000000E+01 0. -1.
         -5    1    4    4    0  501 -0.10265568271E+02  0.60149251463E+02  0.18384732779E+03  0.19375403655E+03  0.41800000000E+01 0. -1.
</event>
<event>
11    1  0.6455215E-009  0.1405133E+03  0.7561462E-02  0.1106987E+00
         22   -1    0    0    0    0  0.00000000000E+00  0.00000000000E+00  0.75590734172E+03  0.75590734172E+03  0.00000000000E+00 0.  1.
         22   -1    0    0    0    0 -0.00000000000E+00 -0.00000000000E+00 -0.26926647395E+04  0.26926647395E+04  0.00000000000E+00 0. -1.
         24    2    1    2    0    0  0.14682577625E+00  0.55966696570E+02 -0.23674443273E+04  0.23694832638E+04  0.80783673302E+02 0.  0.
         25    2    1    2    0    0  0.30723736068E+02 -0.11140319935E+03 -0.29793158145E+03  0.34316974937E+03  0.12509048275E+03 0.  0.
        -24    2    1    2    0    0 -0.30870561845E+02  0.55436502775E+02  0.72861851097E+03  0.73591906805E+03  0.81644000206E+02 0.  0.
        -11    1    3    3    0    0  0.23269465063E+02  0.62100809327E+02 -0.12292684948E+04  0.12310560551E+04  0.00000000000E+00 0.  1.
         12    1    3    3    0    0 -0.23122639286E+02 -0.61341127573E+01 -0.11381758325E+04  0.11384272087E+04  0.00000000000E+00 0. -1.
         13    1    5    5    0    0 -0.34076381402E+02  0.41379207062E+02  0.19867572564E+03  0.20578018006E+03  0.00000000000E+00 0. -1.
        -14    1    5    5    0    0  0.32058195571E+01  0.14057295713E+02  0.52994278533E+03  0.53013888799E+03  0.00000000000E+00 0.  1.
          5    1    4    4  501    0  0.59563865814E+02 -0.10026033392E+03 -0.14033225770E+03  0.18251192734E+03  0.41800000000E+01 0. -1.
         -5    1    4    4    0  501 -0.28840129745E+02 -0.11142865421E+02 -0.15759932375E+03  0.16065782203E+03  0.41800000000E+01 0. -1.
</event>
<event>
11    1  0.6455215E-009  0.1350030E+03  0.7561462E-02  0.1113270E+00
         22   -1    0    0    0    0  0.00000000000E+00  0.00000000000E+00  0.42891504833E+03  0.42891504833E+03  0.00000000000E+00 0. -1.
         22   -1    0    0    0    0 -0.00000000000E+00 -0.00000000000E+00 -0.50490350277E+03  0.50490350277E+03  0.00000000000E+00 0. -1.
         24    2    1    2    0    0 -0.24026167710E+02  0.11116027445E+02 -0.41399317729E+03  0.42289666972E+03  0.82160937276E+02 0.  0.
         25    2    1    2    0    0  0.13457429647E+02 -0.60339089024E+02 -0.19988102323E+02  0.14095624610E+03  0.12508889240E+03 0.  0.
        -24    2    1    2    0    0  0.10568738063E+02  0.49223061579E+02  0.35799282517E+03  0.36996563528E+03  0.78619974591E+02 0.  0.
        -11    1    3    3    0    0  0.26180088985E+02  0.22835882970E+02 -0.16174670965E+03  0.16543540338E+03  0.00000000000E+00 0.  1.
         12    1    3    3    0    0 -0.50206256695E+02 -0.11719855525E+02 -0.25224646764E+03  0.25746126634E+03  0.00000000000E+00 0. -1.
         13    1    5    5    0    0 -0.17173218921E+02  0.37484168255E+02  0.31371265192E+03  0.31641050914E+03  0.00000000000E+00 0. -1.
        -14    1    5    5    0    0  0.27741956983E+02  0.11738893324E+02  0.44280173243E+02  0.53555126143E+02  0.00000000000E+00 0.  1.
          5    1    4    4  501    0 -0.23360384665E+02  0.28938463757E+02  0.11735813379E+02  0.39221728315E+02  0.41800000000E+01 0.  1.
         -5    1    4    4    0  501  0.36817814312E+02 -0.89277552781E+02 -0.31723915702E+02  0.10173451778E+03  0.41800000000E+01 0.  1.
</event>
<event>
11    1  0.6455215E-009  0.1302042E+03  0.7561462E-02  0.1119018E+00
         22   -1    0    0    0    0  0.00000000000E+00  0.00000000000E+00  0.72911670074E+03  0.72911670074E+03  0.00000000000E+00 0.  1.
         22   -1    0    0    0    0 -0.00000000000E+00 -0.00000000000E+00 -0.80489473063E+03  0.80489473063E+03  0.00000000000E+00 0. -1.
         24    2    1    2    0    0  0.90878406443E+01 -0.92278438166E+01 -0.74608073453E+03  0.75042748547E+03  0.79606573645E+02 0.  0.
         25    2    1    2    0    0  0.20577586990E+02  0.30059535748E+02  0.25558429812E+02  0.13276747050E+03  0.12508778962E+03 0.  0.
        -24    2    1    2    0    0 -0.29665427635E+02 -0.20831691931E+02  0.64474427483E+03  0.65081647540E+03  0.80950032358E+02 0.  0.
        -11    1    3    3    0    0  0.24512621132E+02 -0.19889404393E+02 -0.12050850813E+03  0.12457430527E+03  0.00000000000E+00 0.  1.
         12    1    3    3    0    0 -0.15424780488E+02  0.10661560577E+02 -0.62557222639E+03  0.62585318019E+03  0.00000000000E+00 0. -1.
         13    1    5    5    0    0  0.77954429786E+01 -0.36092946559E+02  0.15224684735E+03  0.15666069147E+03  0.00000000000E+00 0. -1.
        -14    1    5    5    0    0 -0.37460870613E+02  0.15261254627E+02  0.49249742748E+03  0.49415578393E+03  0.00000000000E+00 0.  1.
          5    1    4    4  501    0  0.30379750463E+02  0.21695651201E+02  0.73718933154E+02  0.82738044602E+02  0.41800000000E+01 0.  1.
         -5    1    4    4    0  501 -0.98021634726E+01  0.83638845470E+01 -0.48160503341E+02  0.50029425897E+02  0.41800000000E+01 0.  1.
</event>
<event>
11    1  0.6455215E-009  0.1612799E+03  0.7561462E-02  0.1085880E+00
         22   -1    0    0    0    0  0.00000000000E+00  0.00000000000E+00  0.55977495311E+03  0.55977495311E+03  0.00000000000E+00 0.  1.
         22   -1    0    0    0    0 -0.00000000000E+00 -0.00000000000E+00 -0.18646567110E+03  0.18646567110E+03  0.00000000000E+00 0. -1.
         24    2    1    2    0    0 -0.40777845093E+02  0.11460516544E+03 -0.79212871854E+02  0.16579771682E+03  0.80106349566E+02 0.  0.
         25    2    1    2    0    0  0.83822660828E+02 -0.18182772007E+02  0.53045990192E+02  0.16067936000E+03  0.12508848064E+03 0.  0.
        -24    2    1    2    0    0 -0.43044815735E+02 -0.96422393431E+02  0.39947616367E+03  0.41976354739E+03  0.73960099098E+02 0.  0.
        -13    1    3    3    0    0  0.13292187690E+02  0.68428567435E+02 -0.60428764187E+02  0.92253924772E+02  0.00000000000E+00 0.  1.
         14    1    3    3    0    0 -0.54070032783E+02  0.46176598003E+02 -0.18784107667E+02  0.73543792050E+02  0.00000000000E+00 0. -1.
         11    1    5    5    0    0  0.36177027887E+01 -0.41589349813E+02  0.25440809734E+03  0.25781047649E+03  0.00000000000E+00 0. -1.
        -12    1    5    5    0    0 -0.46662518523E+02 -0.54833043618E+02  0.14506806633E+03  0.16195307091E+03  0.00000000000E+00 0.  1.
          5    1    4    4  501    0  0.45390898769E+02 -0.22808884830E+02 -0.36728703579E+02  0.62825544047E+02  0.41800000000E+01 0. -1.
         -5    1    4    4    0  501  0.38431762059E+02  0.46261128232E+01  0.89774693771E+02  0.97853815953E+02  0.41800000000E+01 0. -1.
</event>
<event>
11    1  0.6455215E-009  0.1589707E+03  0.7561462E-02  0.1088049E+00
         22   -1    0    0    0    0  0.00000000000E+00  0.00000000000E+00  0.12878784372E+04  0.12878784372E+04  0.00000000000E+00 0. -1.
         22   -1    0    0    0    0 -0.00000000000E+00 -0.00000000000E+00 -0.49887810688E+03  0.49887810688E+03  0.00000000000E+00 0. -1.
         24    2    1    2    0    0  0.25031067395E+02 -0.99238119561E+02 -0.44213915872E+03  0.46078566344E+03  0.79759847307E+02 0.  0.
         25    2    1    2    0    0 -0.90088060207E+01  0.51477265884E+02  0.55577272442E+02  0.14651692531E+03  0.12508920298E+03 0.  0.
        -24    2    1    2    0    0 -0.16022261375E+02  0.47760853677E+02  0.11755622166E+04  0.11794539553E+04  0.81408203692E+02 0.  0.
        -11    1    3    3    0    0 -0.16833043979E+02  0.48874177291E+01 -0.60231578576E+02  0.62730226203E+02  0.00000000000E+00 0.  1.
         12    1    3    3    0    0  0.41864111374E+02 -0.10412553729E+03 -0.38190758015E+03  0.39805543723E+03  0.00000000000E+00 0. -1.
         13    1    5    5    0    0 -0.10735714096E+02  0.10937198787E+02  0.99407950051E+03  0.99419763186E+03  0.00000000000E+00 0. -1.
        -14    1    5    5    0    0 -0.52865472789E+01  0.36823654890E+02  0.18148271609E+03  0.18525632345E+03  0.00000000000E+00 0.  1.
          5    1    4    4  501    0  0.55061710438E+02  0.36667866299E+02  0.44144298187E+02  0.79639913597E+02  0.41800000000E+01 0. -1.
         -5    1    4    4    0  501 -0.64070516459E+02  0.14809399585E+02  0.11432974255E+02  0.66877011713E+02  0.41800000000E+01 0. -1.
</event>
<event>
11    1  0.6455215E-009  0.1855799E+03  0.7561462E-02  0.1065217E+00
         22   -1    0    0    0    0  0.00000000000E+00  0.00000000000E+00  0.73887745654E+02  0.73887745654E+02  0.00000000000E+00 0.  1.
         22   -1    0    0    0    0 -0.00000000000E+00 -0.00000000000E+00 -0.33512534813E+04  0.33512534813E+04  0.00000000000E+00 0.  1.
         24    2    1    2    0    0  0.58823641558E+02 -0.23187370260E+02 -0.24783249942E+04  0.24804410574E+04  0.80592726206E+02 0.  0.
         25    2    1    2    0    0 -0.15197238799E+03 -0.73103943142E+02 -0.75222531296E+03  0.78098121003E+03  0.12509570634E+03 0.  0.
        -24    2    1    2    0    0  0.93148746437E+02  0.96291313402E+02 -0.46815428507E+02  0.16371895953E+03  0.81630309093E+02 0.  0.
        -13    1    3    3    0    0  0.29620129147E+02  0.19758901546E+02 -0.17061661746E+04  0.17065376590E+04  0.00000000000E+00 0.  1.
         14    1    3    3    0    0  0.29203512411E+02 -0.42946271806E+02 -0.77215881961E+03  0.77390339843E+03  0.00000000000E+00 0. -1.
         11    1    5    5    0    0  0.31545952840E+02  0.12679309304E+02 -0.49238131756E+02  0.59835655289E+02  0.00000000000E+00 0. -1.
        -12    1    5    5    0    0  0.61602793596E+02  0.83612004098E+02  0.24227032492E+01  0.10388330424E+03  0.00000000000E+00 0.  1.
          5    1    4    4  501    0  0.16355504987E+01 -0.32717355042E+02 -0.43224895843E+02  0.54396363546E+02  0.41800000000E+01 0.  1.
         -5    1    4    4    0  501 -0.15360793849E+03 -0.40386588099E+02 -0.70900041712E+03  0.72658484649E+03  0.41800000000E+01 0.  1.
</event>
<event>
11    1  0.6455215E-009  0.1398009E+03  0.7561462E-02  0.1107781E+00
         22   -1    0    0    0    0  0.00000000000E+00  0.00000000000E+00  0.14254675926E+03  0.14254675926E+03  0.00000000000E+00 0.  1.
         22   -1    0    0    0    0 -0.00000000000E+00 -0.00000000000E+00 -0.73320889883E+03  0.73320889883E+03  0.00000000000E+00 0. -1.
        -24    2    1    2    0    0  0.55286191426E+02 -0.31543175014E+02 -0.64427052567E+03  0.65241171370E+03  0.80653574424E+02 0.  0.
         25    2    1    2    0    0 -0.26137482862E+02  0.29876596264E+02  0.30352001483E+02  0.13470097182E+03  0.12508928332E+03 0.  0.
         24    2    1    2    0    0 -0.29148708565E+02  0.16665787500E+01  0.23256384621E+02  0.88642972580E+02  0.80400823792E+02 0.  0.
        -11    1    5    5    0    0  0.99572405471E+01  0.99713595995E+01  0.42136905617E+02  0.44430771618E+02  0.00000000000E+00 0.  1.
         12    1    5    5    0    0 -0.39105949112E+02 -0.83047808496E+01 -0.18880520996E+02  0.44212200963E+02  0.00000000000E+00 0. -1.
         13    1    3    3    0    0  0.14565752801E+02  0.20648863881E+02 -0.34418668060E+03  0.34511303632E+03  0.00000000000E+00 0. -1.
        -14    1    3    3    0    0  0.40720438625E+02 -0.52192038895E+02 -0.30008384507E+03  0.30729867738E+03  0.00000000000E+00 0.  1.
          5    1    4    4  501    0  0.51117627986E+01 -0.17242481743E+02 -0.40173425785E+02  0.44213231446E+02  0.41800000000E+01 0. -1.
         -5    1    4    4    0  501 -0.31249245660E+02  0.47119078007E+02  0.70525427269E+02  0.90487740374E+02  0.41800000000E+01 0. -1.
</event>
<event>
11    1  0.6455215E-009  0.2687328E+03  0.7561462E-02  0.1014368E+00
         22   -1    0    0    0    0  0.00000000000E+00  0.00000000000E+00  0.15624337162E+04  0.15624337162E+04  0.00000000000E+00 0.  1.
         22   -1    0    0    0    0 -0.00000000000E+00 -0.00000000000E+00 -0.42193286586E+03  0.42193286586E+03  0.00000000000E+00 0. -1.
        -24    2    1    2    0    0  0.16553785795E+03  0.18076354841E+03 -0.24070649142E+03  0.35298663207E+03  0.81127705269E+02 0.  0.
         25    2    1    2    0    0 -0.14984143647E+03 -0.16244582364E+03  0.62930902857E+01  0.25402463792E+03  0.12509121465E+03 0.  0.
         24    2    1    2    0    0 -0.15696421477E+02 -0.18317724768E+02  0.13749142515E+04  0.13773553121E+04  0.78336071587E+02 0.  0.
        -11    1    5    5    0    0  0.17845693471E+02 -0.27773613436E+02  0.10608382823E+04  0.10613518284E+04  0.00000000000E+00 0.  1.
         12    1    5    5    0    0 -0.33542114948E+02  0.94558886680E+01  0.31407596913E+03  0.31600348366E+03  0.00000000000E+00 0. -1.
         11    1    3    3    0    0  0.16796198464E+03  0.17794841451E+03 -0.21117060100E+03  0.32321802122E+03  0.00000000000E+00 0. -1.
        -12    1    3    3    0    0 -0.24241266965E+01  0.28151338930E+01 -0.29535890424E+02  0.29768610855E+02  0.00000000000E+00 0.  1.
          5    1    4    4  501    0 -0.83712405238E+02 -0.13371892316E+03 -0.46547663595E+02  0.16453776037E+03  0.41800000000E+01 0. -1.
         -5    1    4    4    0  501 -0.66129031230E+02 -0.28726900485E+02  0.52840753881E+02  0.89486877550E+02  0.41800000000E+01 0. -1.
</event>
<event>
11    1  0.6455215E-009  0.1789898E+03  0.7561462E-02  0.1070463E+00
         22   -1    0    0    0    0  0.00000000000E+00  0.00000000000E+00  0.22120501119E+03  0.22120501119E+03  0.00000000000E+00 0.  1.
         22   -1    0    0    0    0 -0.00000000000E+00 -0.00000000000E+00 -0.17824921178E+04  0.17824921178E+04  0.00000000000E+00 0.  1.
         24    2    1    2    0    0  0.10325506120E+03  0.72625628469E+02 -0.16362976314E+04  0.16431321660E+04  0.80481593407E+02 0.  0.
         25    2    1    2    0    0 -0.15703549956E+03 -0.88790967843E+02 -0.24290214907E+02  0.22086110890E+03  0.12508249594E+03 0.  0.
        -24    2    1    2    0    0  0.53780438358E+02  0.16165339374E+02  0.99300739656E+02  0.13970385411E+03  0.80640413015E+02 0.  0.
        -13    1    3    3    0    0  0.94588652512E+02  0.86884924080E+02 -0.15444411310E+04  0.15497723737E+04  0.00000000000E+00 0.  1.
         14    1    3    3    0    0  0.86664086903E+01 -0.14259295611E+02 -0.91856500366E+02  0.93359792257E+02  0.00000000000E+00 0. -1.
         13    1    5    5    0    0 -0.92891048084E+01 -0.10330858808E+02 -0.51736943363E+01  0.14825020234E+02  0.00000000000E+00 0. -1.
        -14    1    5    5    0    0  0.63069543166E+02  0.26496198182E+02  0.10447443399E+03  0.12487883388E+03  0.00000000000E+00 0.  1.
          5    1    4    4  501    0 -0.61573836085E+02 -0.10522215872E+03 -0.21496392683E+02  0.12386527873E+03  0.41800000000E+01 0.  1.
         -5    1    4    4    0  501 -0.95461663475E+02  0.16431190880E+02 -0.27938222243E+01  0.96995830167E+02  0.41800000000E+01 0.  1.
</event>
<event>
11    1  0.6455215E-009  0.1648307E+03  0.7561462E-02  0.1082620E+00
         22   -1    0    0    0    0  0.00000000000E+00  0.00000000000E+00  0.49564981145E+03  0.49564981145E+03  0.00000000000E+00 0. -1.
         22   -1    0    0    0    0 -0.00000000000E+00 -0.00000000000E+00 -0.54426840712E+03  0.54426840712E+03  0.00000000000E+00 0.  1.
        -24    2    1    2    0    0  0.20188840433E+02 -0.13648540376E+01 -0.41649916974E+03  0.42508757004E+03  0.82573795485E+02 0.  0.
         25    2    1    2    0    0 -0.12383690513E+03 -0.19340161885E+02 -0.43749166959E+02  0.18240212169E+03  0.12508766308E+03 0.  0.
         24    2    1    2    0    0  0.10364806470E+03  0.20705015923E+02  0.41162974102E+03  0.43242852684E+03  0.79898486417E+02 0.  0.
        -13    1    5    5    0    0  0.52229121072E+01 -0.22826912085E+01 -0.24407295106E+01  0.62005363136E+01  0.00000000000E+00 0.  1.
         14    1    5    5    0    0  0.98425152594E+02  0.22987707131E+02  0.41407047053E+03  0.42622799053E+03  0.00000000000E+00 0. -1.
         13    1    3    3    0    0 -0.30622004812E+02 -0.11704593110E+02 -0.18136308395E+03  0.18430212396E+03  0.00000000000E+00 0. -1.
        -14    1    3    3    0    0  0.50810845245E+02  0.10339739072E+02 -0.23513608579E+03  0.24078544607E+03  0.00000000000E+00 0.  1.
          5    1    4    4  501    0 -0.22434446104E+02 -0.60930095973E+02 -0.30719977110E+02  0.71951166501E+02  0.41800000000E+01 0.  1.
         -5    1    4    4    0  501 -0.10140245903E+03  0.41589934087E+02 -0.13029189849E+02  0.11045095519E+03  0.41800000000E+01 0.  1.
</event>
<event>
11    1  0.6455215E-009  0.1327083E+03  0.7561462E-02  0.1115985E+00
         22   -1    0    0    0    0  0.00000000000E+00  0.00000000000E+00  0.36719401246E+03  0.36719401246E+03  0.00000000000E+00 0. -1.
         22   -1    0    0    0    0 -0.00000000000E+00 -0.00000000000E+00 -0.16434598734E+04  0.16434598734E+04  0.00000000000E+00 0. -1.
        -24    2    1    2    0    0 -0.98977605620E+01  0.19314609313E+02 -0.78964613394E+03  0.79373989081E+03  0.77530494793E+02 0.  0.
         25    2    1    2    0    0  0.32432575839E+02 -0.57257333351E+02 -0.83861105995E+03  0.85043901011E+03  0.12509087031E+03 0.  0.
         24    2    1    2    0    0 -0.22534815277E+02  0.37942724038E+02  0.35199133294E+03  0.36647498495E+03  0.91970364363E+02 0.  0.
        -13    1    5    5    0    0 -0.16835203690E+02 -0.23614598998E+02  0.46586182135E+02  0.54875729927E+02  0.00000000000E+00 0.  1.
         14    1    5    5    0    0 -0.56996115874E+01  0.61557323036E+02  0.30540515081E+03  0.31159925502E+03  0.00000000000E+00 0. -1.
         11    1    3    3    0    0 -0.22306895358E+02 -0.16513961605E+02 -0.58192775487E+03  0.58258923814E+03  0.00000000000E+00 0. -1.
        -12    1    3    3    0    0  0.12409134796E+02  0.35828570918E+02 -0.20771837907E+03  0.21115065267E+03  0.00000000000E+00 0.  1.
          5    1    4    4  501    0  0.49832792753E+01 -0.14308535397E+02 -0.69139489094E+01  0.17170973969E+02  0.41800000000E+01 0.  1.
         -5    1    4    4    0  501  0.27449296564E+02 -0.42948797954E+02 -0.83169711104E+03  0.83326803614E+03  0.41800000000E+01 0.  1.
</event>
<event>
11    1  0.6455215E-009  0.1299784E+03  0.7561462E-02  0.1119295E+00
         22   -1    0    0    0    0  0.00000000000E+00  0.00000000000E+00  0.89849286024E+03  0.89849286024E+03  0.00000000000E+00 0.  1.
         22   -1    0    0    0    0 -0.00000000000E+00 -0.00000000000E+00 -0.37219623759E+03  0.37219623759E+03  0.00000000000E+00 0. -1.
         24    2    1    2    0    0 -0.71303309962E+01 -0.35137154509E+02 -0.33297027546E+03  0.34529306498E+03  0.84098960362E+02 0.  0.
         25    2    1    2    0    0  0.13392261112E+02  0.21565773712E+02  0.10059217005E+03  0.16251270589E+03  0.12508860719E+03 0.  0.
        -24    2    1    2    0    0 -0.62619301155E+01  0.13571380797E+02  0.75867472806E+03  0.76288332696E+03  0.78614460498E+02 0.  0.
        -11    1    3    3    0    0  0.19498397274E+02 -0.38904340210E+02 -0.81514452125E+02  0.92403144366E+02  0.00000000000E+00 0.  1.
         12    1    3    3    0    0 -0.26628728271E+02  0.37671857012E+01 -0.25145582334E+03  0.25288992061E+03  0.00000000000E+00 0. -1.
         13    1    5    5    0    0 -0.28803545109E+02 -0.22824972327E+02  0.39151408603E+03  0.39323517535E+03  0.00000000000E+00 0. -1.
        -14    1    5    5    0    0  0.22541614993E+02  0.36396353124E+02  0.36716064203E+03  0.36964815160E+03  0.00000000000E+00 0.  1.
          5    1    4    4  501    0  0.45945865670E+02 -0.20508501442E+02  0.96604467934E+02  0.10900237075E+03  0.41800000000E+01 0. -1.
         -5    1    4    4    0  501 -0.32553604558E+02  0.42074275154E+02  0.39877021125E+01  0.53510335147E+02  0.41800000000E+01 0. -1.
</event>
<event>
11    1  0.6618125E-009  0.1527793E+03  0.7561462E-02  0.1094072E+00
         22   -1    0    0    0    0  0.00000000000E+00  0.00000000000E+00  0.90246750220E+03  0.90246750220E+03  0.00000000000E+00 0.  1.
         22   -1    0    0    0    0 -0.00000000000E+00 -0.00000000000E+00 -0.15276593380E+03  0.15276593380E+03  0.00000000000E+00 0.  1.
        -24    2    1    2    0    0 -0.23974612903E+02  0.23226374839E+02 -0.82373791200E+02  0.13806875805E+03  0.10565649020E+03 0.  0.
         25    2    1    2    0    0 -0.51418900025E+02  0.28709999540E+02  0.89574870982E+02  0.16474089711E+03  0.12509092019E+03 0.  0.
         24    2    1    2    0    0  0.75393512927E+02 -0.51936374379E+02  0.74250048862E+03  0.75242378085E+03  0.80330577118E+02 0.  0.
        -11    1    5    5    0    0  0.25772897493E+02  0.46774359457E+01  0.43700616486E+03  0.43779048503E+03  0.00000000000E+00 0.  1.
         12    1    5    5    0    0  0.49620615434E+02 -0.56613810325E+02  0.30549432375E+03  0.31463329582E+03  0.00000000000E+00 0. -1.
         11    1    3    3    0    0 -0.16501846467E+02  0.11166969457E+02  0.23749815557E+02  0.31001062605E+02  0.00000000000E+00 0. -1.
        -12    1    3    3    0    0 -0.74727664356E+01  0.12059405382E+02 -0.10612360676E+03  0.10706769544E+03  0.00000000000E+00 0.  1.
          5    1    4    4  501    0 -0.11905234480E+01 -0.37552091759E+02  0.69478609992E+02  0.79096944239E+02  0.41800000000E+01 0.  1.
         -5    1    4    4    0  501 -0.50228376576E+02  0.66262091299E+02  0.20096260990E+02  0.85643952867E+02  0.41800000000E+01 0.  1.
</event>
<event>
11    1  0.6455215E-009  0.1661163E+03  0.7561462E-02  0.1081462E+00
         22   -1    0    0    0    0  0.00000000000E+00  0.00000000000E+00  0.13833226281E+03  0.13833226281E+03  0.00000000000E+00 0.  1.
         22   -1    0    0    0    0 -0.00000000000E+00 -0.00000000000E+00 -0.43462935892E+03  0.43462935892E+03  0.00000000000E+00 0.  1.
        -24    2    1    2    0    0  0.86257866955E+02 -0.43648486537E+02 -0.13315644395E+03  0.18372696198E+03  0.81727278221E+02 0.  0.
         25    2    1    2    0    0 -0.83441749884E+02  0.10204156864E+03 -0.21061432523E+03  0.27817602201E+03  0.12509395620E+03 0.  0.
         24    2    1    2    0    0 -0.28161170714E+01 -0.58393082099E+02  0.47473673071E+02  0.11105863773E+03  0.81624682714E+02 0.  0.
        -13    1    5    5    0    0 -0.14326386407E+02 -0.64091362421E+02  0.62933925909E+02  0.90959480621E+02  0.00000000000E+00 0.  1.
         14    1    5    5    0    0  0.11510269336E+02  0.56982803221E+01 -0.15460252839E+02  0.20099157113E+02  0.00000000000E+00 0. -1.
         11    1    3    3    0    0  0.55613351454E+02 -0.29401380302E+02 -0.20580415345E+02  0.66187910674E+02  0.00000000000E+00 0. -1.
        -12    1    3    3    0    0  0.30644515502E+02 -0.14247106235E+02 -0.11257602860E+03  0.11753905131E+03  0.00000000000E+00 0.  1.
          5    1    4    4  501    0  0.13952350076E+02  0.73736502300E+01  0.99459558490E+01  0.19116307910E+02  0.41800000000E+01 0.  1.
         -5    1    4    4    0  501 -0.97394099960E+02  0.94667918407E+02 -0.22056028108E+03  0.25905971410E+03  0.41800000000E+01 0.  1.
</event>
<event>
11    1  0.6455215E-009  0.1969960E+03  0.7561462E-02  0.1056669E+00
         22   -1    0    0    0    0  0.00000000000E+00  0.00000000000E+00  0.27666952578E+04  0.27666952578E+04  0.00000000000E+00 0.  1.
         22   -1    0    0    0    0 -0.00000000000E+00 -0.00000000000E+00 -0.11801032373E+03  0.11801032373E+03  0.00000000000E+00 0. -1.
         24    2    1    2    0    0  0.57011861425E+02 -0.49125905059E+02  0.10119886029E+02  0.11063494212E+03  0.80460993245E+02 0.  0.
         25    2    1    2    0    0 -0.24322578860E+02 -0.10205422893E+03  0.37690467170E+02  0.16755423794E+03  0.12508875990E+03 0.  0.
        -24    2    1    2    0    0 -0.32689282565E+02  0.15118013398E+03  0.26008745809E+04  0.26065164015E+04  0.73858944071E+02 0.  0.
        -11    1    3    3    0    0  0.32668395540E+02 -0.22814737728E+01  0.38624682612E+02  0.50638871400E+02  0.00000000000E+00 0.  1.
         12    1    3    3    0    0  0.24343465885E+02 -0.46844431286E+02 -0.28504796583E+02  0.59996070722E+02  0.00000000000E+00 0. -1.
         11    1    5    5    0    0 -0.28760181289E+01 -0.61050980916E+01  0.34507380383E+02  0.35161100721E+02  0.00000000000E+00 0. -1.
        -12    1    5    5    0    0 -0.29813264436E+02  0.15728523208E+03  0.25663672005E+04  0.25713553008E+04  0.00000000000E+00 0.  1.
          5    1    4    4  501    0 -0.75683705333E+01 -0.11955582686E+01  0.61810515670E+02  0.62423728177E+02  0.41800000000E+01 0. -1.
         -5    1    4    4    0  501 -0.16754208327E+02 -0.10085867066E+03 -0.24120048500E+02  0.10513050976E+03  0.41800000000E+01 0. -1.
</event>
<event>
11    1  0.6455215E-009  0.2708213E+03  0.7561462E-02  0.1013357E+00
         22   -1    0    0    0    0  0.00000000000E+00  0.00000000000E+00  0.80996292129E+03  0.80996292129E+03  0.00000000000E+00 0. -1.
         22   -1    0    0    0    0 -0.00000000000E+00 -0.00000000000E+00 -0.25642962172E+03  0.25642962172E+03  0.00000000000E+00 0. -1.
        -24    2    1    2    0    0  0.18252859738E+02  0.87635680386E+01 -0.82093892923E+02  0.11695742301E+03  0.80806339661E+02 0.  0.
         25    2    1    2    0    0 -0.44567255230E+02  0.23102122617E+03  0.15040594633E+01  0.26647501034E+03  0.12509844827E+03 0.  0.
         24    2    1    2    0    0  0.26314395492E+02 -0.23978479421E+03  0.63412313303E+03  0.68296010967E+03  0.78314549154E+02 0.  0.
        -13    1    5    5    0    0 -0.85814119542E+01 -0.18541538955E+02  0.17440103960E+02  0.26862362593E+02  0.00000000000E+00 0.  1.
         14    1    5    5    0    0  0.34895807446E+02 -0.22124325525E+03  0.61668302907E+03  0.65609774707E+03  0.00000000000E+00 0. -1.
         13    1    3    3    0    0  0.21388191612E+02 -0.13580064737E+02 -0.89651654301E+02  0.93162717960E+02  0.00000000000E+00 0. -1.
        -14    1    3    3    0    0 -0.31353318733E+01  0.22343632776E+02  0.75577613780E+01  0.23794705054E+02  0.00000000000E+00 0.  1.
          5    1    4    4  501    0  0.38387604148E+02  0.67941428145E+02  0.24790332259E+02  0.81985845023E+02  0.41800000000E+01 0. -1.
         -5    1    4    4    0  501 -0.82954859378E+02  0.16307979802E+03 -0.23286272796E+02  0.18448916532E+03  0.41800000000E+01 0. -1.
</event>
<event>
11    1  0.6455215E-009  0.1321526E+03  0.7561462E-02  0.1116652E+00
         22   -1    0    0    0    0  0.00000000000E+00  0.00000000000E+00  0.25203996749E+03  0.25203996749E+03  0.00000000000E+00 0. -1.
         22   -1    0    0    0    0 -0.00000000000E+00 -0.00000000000E+00 -0.18241402017E+04  0.18241402017E+04  0.00000000000E+00 0.  1.
        -24    2    1    2    0    0  0.20262737617E+02 -0.13275246979E+02 -0.12505756923E+04  0.12534249413E+04  0.80917925122E+02 0.  0.
         25    2    1    2    0    0  0.29286526217E+01 -0.22869413243E+02 -0.55643799540E+03  0.57079157547E+03  0.12509273693E+03 0.  0.
         24    2    1    2    0    0 -0.23191390239E+02  0.36144660222E+02  0.23491345343E+03  0.25196365246E+03  0.80355923958E+02 0.  0.
        -13    1    5    5    0    0 -0.24170206107E+02  0.34990603437E+02  0.44532400410E+02  0.61576585472E+02  0.00000000000E+00 0.  1.
         14    1    5    5    0    0  0.97881586772E+00  0.11540567857E+01  0.19038105302E+03  0.19038706699E+03  0.00000000000E+00 0. -1.
         13    1    3    3    0    0 -0.26246662472E+02 -0.17784077624E+02 -0.29310132350E+03  0.29481103531E+03  0.00000000000E+00 0. -1.
        -14    1    3    3    0    0  0.46509400089E+02  0.45088306449E+01 -0.95747436880E+03  0.95861390599E+03  0.00000000000E+00 0.  1.
          5    1    4    4  501    0  0.16674900095E+02 -0.70629533919E+02 -0.40139989440E+03  0.40792883077E+03  0.41800000000E+01 0. -1.
         -5    1    4    4    0  501 -0.13746247473E+02  0.47760120677E+02 -0.15503810101E+03  0.16286274470E+03  0.41800000000E+01 0. -1.
</event>
<event>
11    1  0.6455215E-009  0.2571913E+03  0.7561462E-02  0.1020137E+00
         22   -1    0    0    0    0  0.00000000000E+00  0.00000000000E+00  0.15858018694E+04  0.15858018694E+04  0.00000000000E+00 0. -1.
         22   -1    0    0    0    0 -0.00000000000E+00 -0.00000000000E+00 -0.56082306521E+03  0.56082306521E+03  0.00000000000E+00 0.  1.
        -24    2    1    2    0    0  0.71003925965E+02  0.20625487625E+03 -0.43151618070E+03  0.48962073846E+03  0.77068942124E+02 0.  0.
         25    2    1    2    0    0 -0.12794829646E+03 -0.25158499247E+03  0.14543904653E+03  0.34127128044E+03  0.12509114915E+03 0.  0.
         24    2    1    2    0    0  0.56944370493E+02  0.45330116211E+02  0.13110559384E+04  0.13157329157E+04  0.83593966474E+02 0.  0.
        -11    1    5    5    0    0 -0.71080666022E+01  0.19915256621E+02  0.79925961853E+02  0.82675881824E+02  0.00000000000E+00 0.  1.
         12    1    5    5    0    0  0.64052437095E+02  0.25414859589E+02  0.12311299765E+04  0.12330570339E+04  0.00000000000E+00 0. -1.
         11    1    3    3    0    0 -0.58295009569E+01 -0.27537878410E+01 -0.40052004670E+01  0.75899973426E+01  0.00000000000E+00 0. -1.
        -12    1    3    3    0    0  0.76833426922E+02  0.20900866410E+03 -0.42751098023E+03  0.48203074111E+03  0.00000000000E+00 0.  1.
          5    1    4    4  501    0 -0.20853793166E+02  0.10798935675E+02  0.29316151938E+01  0.24032570998E+02  0.41800000000E+01 0.  1.
         -5    1    4    4    0  501 -0.10709450329E+03 -0.26238392814E+03  0.14250743133E+03  0.31723870944E+03  0.41800000000E+01 0.  1.
</event>
<event>
11    1  0.6455215E-009  0.1301375E+03  0.7561462E-02  0.1119100E+00
         22   -1    0    0    0    0  0.00000000000E+00  0.00000000000E+00  0.15388418829E+03  0.15388418829E+03  0.00000000000E+00 0.  1.
         22   -1    0    0    0    0 -0.00000000000E+00 -0.00000000000E+00 -0.16854385577E+04  0.16854385577E+04  0.00000000000E+00 0. -1.
         24    2    1    2    0    0  0.51783503337E+01 -0.37952373487E+02 -0.12889473475E+04  0.12917360152E+04  0.75693265793E+02 0.  0.
         25    2    1    2    0    0 -0.75108721641E+01  0.16989698325E+02 -0.37275086816E+03  0.39361832407E+03  0.12508841786E+03 0.  0.
        -24    2    1    2    0    0  0.23325218305E+01  0.20962675163E+02  0.13014384622E+03  0.15396840670E+03  0.79523425140E+02 0.  0.
        -13    1    3    3    0    0  0.50338562927E+01  0.88140311081E+01 -0.25823568749E+02  0.27746775605E+02  0.00000000000E+00 0.  1.
         14    1    3    3    0    0  0.14449404098E+00 -0.46766404596E+02 -0.12631237787E+04  0.12639892396E+04  0.00000000000E+00 0. -1.
         13    1    5    5    0    0  0.76100545732E+00 -0.30433842821E+02  0.41148572011E+02  0.51185963864E+02  0.00000000000E+00 0. -1.
        -14    1    5    5    0    0  0.15715163731E+01  0.51396517984E+02  0.88995274205E+02  0.10278244284E+03  0.00000000000E+00 0.  1.
          5    1    4    4  501    0  0.14155511974E+02  0.41350741542E+02 -0.35204253625E+03  0.35476990018E+03  0.41800000000E+01 0. -1.
         -5    1    4    4    0  501 -0.21666384139E+02 -0.24361043217E+02 -0.20708331907E+02  0.38848423889E+02  0.41800000000E+01 0. -1.
</event>
<event>
11    1  0.6455215E-009  0.1943237E+03  0.7561462E-02  0.1058612E+00
         22   -1    0    0    0    0  0.00000000000E+00  0.00000000000E+00  0.10524205264E+04  0.10524205264E+04  0.00000000000E+00 0.  1.
         22   -1    0    0    0    0 -0.00000000000E+00 -0.00000000000E+00 -0.16705118229E+04  0.16705118229E+04  0.00000000000E+00 0. -1.
        -24    2    1    2    0    0 -0.73578317354E+02 -0.25684593891E+02 -0.15902722232E+04  0.15943093481E+04  0.82359495225E+02 0.  0.
         25    2    1    2    0    0  0.10260924229E+03 -0.12110731112E+03  0.76207344529E+02  0.21599390163E+03  0.12510063458E+03 0.  0.
         24    2    1    2    0    0 -0.29030924932E+02  0.14679190501E+03  0.89597358214E+03  0.91262909966E+03  0.87934951370E+02 0.  0.
        -11    1    5    5    0    0 -0.18437381520E+02  0.13392128075E+03  0.87706381021E+03  0.88742085487E+03  0.00000000000E+00 0.  1.
         12    1    5    5    0    0 -0.10593543411E+02  0.12870624264E+02  0.18909771925E+02  0.25208244787E+02  0.00000000000E+00 0. -1.
         13    1    3    3    0    0 -0.23914902505E+02  0.10246200171E+02 -0.10879205265E+04  0.10882315835E+04  0.00000000000E+00 0. -1.
        -14    1    3    3    0    0 -0.49663414849E+02 -0.35930794062E+02 -0.50235169663E+03  0.50607776462E+03  0.00000000000E+00 0.  1.
          5    1    4    4  501    0  0.73933929106E+01  0.57257392926E+01  0.54983581563E+02  0.55929535942E+02  0.41800000000E+01 0.  1.
         -5    1    4    4    0  501  0.95215849375E+02 -0.12683305041E+03  0.21223762966E+02  0.16006436569E+03  0.41800000000E+01 0.  1.
</event>
<event>
11    1  0.6455215E-009  0.1790417E+03  0.7561462E-02  0.1070421E+00
         22   -1    0    0    0    0  0.00000000000E+00  0.00000000000E+00  0.10420574616E+04  0.10420574616E+04  0.00000000000E+00 0. -1.
         22   -1    0    0    0    0 -0.00000000000E+00 -0.00000000000E+00 -0.15417330559E+04  0.15417330559E+04  0.00000000000E+00 0.  1.
         24    2    1    2    0    0 -0.13012503389E+03 -0.23320885070E+02 -0.11208363849E+04  0.11318012083E+04  0.84990501832E+02 0.  0.
         25    2    1    2    0    0  0.11989492891E+03 -0.53563713770E+02 -0.39242156220E+03  0.43230287793E+03  0.12508888992E+03 0.  0.
        -24    2    1    2    0    0  0.10230104978E+02  0.76884598840E+02  0.10135823527E+04  0.10196864312E+04  0.79970843025E+02 0.  0.
        -11    1    3    3    0    0 -0.13377070793E+03 -0.34350434545E+02 -0.88807293605E+03  0.89874807060E+03  0.00000000000E+00 0.  1.
         12    1    3    3    0    0  0.36456740460E+01  0.11029549475E+02 -0.23276344882E+03  0.23305313774E+03  0.00000000000E+00 0. -1.
         11    1    5    5    0    0 -0.29473054694E+02  0.58830925300E+02  0.51190212964E+03  0.51611387218E+03  0.00000000000E+00 0. -1.
        -12    1    5    5    0    0  0.39703159672E+02  0.18053673541E+02  0.50168022305E+03  0.50357255904E+03  0.00000000000E+00 0.  1.
          5    1    4    4  501    0  0.10504283922E+03  0.17800971229E+02 -0.26143646244E+03  0.28234264457E+03  0.41800000000E+01 0.  1.
         -5    1    4    4    0  501  0.14852089693E+02 -0.71364684999E+02 -0.13098509976E+03  0.14996023337E+03  0.41800000000E+01 0.  1.
</event>
<event>
11    1  0.6455215E-009  0.2502851E+03  0.7561462E-02  0.1023747E+00
         22   -1    0    0    0    0  0.00000000000E+00  0.00000000000E+00  0.52951159874E+03  0.52951159874E+03  0.00000000000E+00 0. -1.
         22   -1    0    0    0    0 -0.00000000000E+00 -0.00000000000E+00 -0.25178385905E+03  0.25178385905E+03  0.00000000000E+00 0.  1.
         24    2    1    2    0    0 -0.16265243876E+03  0.14273427213E+03 -0.77344874638E+02  0.24357896308E+03  0.80743998827E+02 0.  0.
         25    2    1    2    0    0  0.15660643062E+03 -0.15138654684E+03  0.10075350728E+03  0.27063302839E+03  0.12508999221E+03 0.  0.
        -24    2    1    2    0    0  0.60460081365E+01  0.86522747110E+01  0.25431910705E+03  0.26708346631E+03  0.80894707458E+02 0.  0.
        -11    1    3    3    0    0 -0.15489512355E+03  0.14899996832E+03 -0.84880149233E+02  0.23108035310E+03  0.00000000000E+00 0.  1.
         12    1    3    3    0    0 -0.77573152142E+01 -0.62656961889E+01  0.75352745946E+01  0.12498609974E+02  0.00000000000E+00 0. -1.
         13    1    5    5    0    0  0.34238267026E+02  0.10720319907E+02  0.21863660004E+03  0.22156070740E+03  0.00000000000E+00 0. -1.
        -14    1    5    5    0    0 -0.28192258889E+02 -0.20680451956E+01  0.35682507010E+02  0.45522758910E+02  0.00000000000E+00 0.  1.
          5    1    4    4  501    0 -0.18861041032E+02 -0.28244427468E+02  0.28012741244E+02  0.44222987504E+02  0.41800000000E+01 0.  1.
         -5    1    4    4    0  501  0.17546747166E+03 -0.12314211937E+03  0.72740766032E+02  0.22641004089E+03  0.41800000000E+01 0.  1.
</event>
<event>
11    1  0.6455215E-009  0.1454352E+03  0.7561462E-02  0.1101636E+00
         22   -1    0    0    0    0  0.00000000000E+00  0.00000000000E+00  0.87914214187E+03  0.87914214187E+03  0.00000000000E+00 0. -1.
         22   -1    0    0    0    0 -0.00000000000E+00 -0.00000000000E+00 -0.36339920393E+03  0.36339920393E+03  0.00000000000E+00 0.  1.
        -24    2    1    2    0    0 -0.45372684194E+02 -0.55979912099E+02 -0.29165061613E+03  0.31084691839E+03  0.79832911482E+02 0.  0.
         25    2    1    2    0    0  0.11221417568E+03  0.38524959259E+02  0.68780666698E+02  0.18561785965E+03  0.12508803300E+03 0.  0.
         24    2    1    2    0    0 -0.66841491487E+02  0.17454952840E+02  0.73861288738E+03  0.74607656776E+03  0.79427874165E+02 0.  0.
        -11    1    5    5    0    0 -0.33245565912E+02  0.36004978176E+02  0.60720626358E+03  0.60918065681E+03  0.00000000000E+00 0.  1.
         12    1    5    5    0    0 -0.33595925575E+02 -0.18550025335E+02  0.13140662380E+03  0.13689591095E+03  0.00000000000E+00 0. -1.
         11    1    3    3    0    0 -0.11570495575E+02 -0.34880345354E+01  0.50434893999E+00  0.12095334664E+02  0.00000000000E+00 0. -1.
        -12    1    3    3    0    0 -0.33802188619E+02 -0.52491877564E+02 -0.29215496507E+03  0.29875158373E+03  0.00000000000E+00 0.  1.
          5    1    4    4  501    0  0.20968806892E+02  0.55337026600E+02 -0.14280305724E+02  0.61018660318E+02  0.41800000000E+01 0.  1.
         -5    1    4    4    0  501  0.91245368788E+02 -0.16812067342E+02  0.83060972422E+02  0.12459919933E+03  0.41800000000E+01 0.  1.
</event>
<event>
11    1  0.6455215E-009  0.2354522E+03  0.7561462E-02  0.1031948E+00
         22   -1    0    0    0    0  0.00000000000E+00  0.00000000000E+00  0.88061815994E+03  0.88061815994E+03  0.00000000000E+00 0. -1.
         22   -1    0    0    0    0 -0.00000000000E+00 -0.00000000000E+00 -0.39565054285E+03  0.39565054285E+03  0.00000000000E+00 0. -1.
         24    2    1    2    0    0  0.46484087488E+01 -0.85161975908E+00 -0.33127899797E+03  0.34147741081E+03  0.82696521331E+02 0.  0.
         25    2    1    2    0    0 -0.11747539508E+03  0.16313462071E+03  0.48836440399E+03  0.54273492216E+03  0.12509209296E+03 0.  0.
        -24    2    1    2    0    0  0.11282698634E+03 -0.16228300095E+03  0.32788221107E+03  0.39205636982E+03  0.84473377679E+02 0.  0.
        -11    1    3    3    0    0 -0.16803265151E+02  0.33314867026E+02 -0.10058812287E+03  0.10728560270E+03  0.00000000000E+00 0.  1.
         12    1    3    3    0    0  0.21451673900E+02 -0.34166486785E+02 -0.23069087510E+03  0.23419180811E+03  0.00000000000E+00 0. -1.
         11    1    5    5    0    0  0.82898938450E+02 -0.99069599394E+02  0.27676482361E+03  0.30542722064E+03  0.00000000000E+00 0. -1.
        -12    1    5    5    0    0  0.29928047886E+02 -0.63213401558E+02  0.51117387460E+02  0.86629149179E+02  0.00000000000E+00 0.  1.
          5    1    4    4  501    0 -0.90782752696E+02  0.70343304012E+02  0.13955166322E+03  0.18078115973E+03  0.41800000000E+01 0.  1.
         -5    1    4    4    0  501 -0.26692642388E+02  0.92791316700E+02  0.34881274077E+03  0.36195376243E+03  0.41800000000E+01 0.  1.
</event>
<event>
11    1  0.6455215E-009  0.1390144E+03  0.7561462E-02  0.1108664E+00
         22   -1    0    0    0    0  0.00000000000E+00  0.00000000000E+00  0.13314803043E+04  0.13314803043E+04  0.00000000000E+00 0.  1.
         22   -1    0    0    0    0 -0.00000000000E+00 -0.00000000000E+00 -0.18019491074E+03  0.18019491074E+03  0.00000000000E+00 0. -1.
         24    2    1    2    0    0  0.46520520858E+02  0.39982890081E+02 -0.15279665986E+03  0.18497321436E+03  0.84294011691E+02 0.  0.
         25    2    1    2    0    0 -0.99512668807E+01 -0.47355043613E+02  0.49707594128E+03  0.51485299689E+03  0.12509032393E+03 0.  0.
        -24    2    1    2    0    0 -0.36569253977E+02  0.73721535322E+01  0.80700611209E+03  0.81184900374E+03  0.80301188942E+02 0.  0.
        -13    1    3    3    0    0 -0.11496058877E+02 -0.16029734399E+01  0.43331015240E+01  0.12389699850E+02  0.00000000000E+00 0.  1.
         14    1    3    3    0    0  0.58016579735E+02  0.41585863521E+02 -0.15712976138E+03  0.17258351451E+03  0.00000000000E+00 0. -1.
         13    1    5    5    0    0  0.44585860350E+01 -0.22950579888E+02  0.50678599595E+03  0.50732499820E+03  0.00000000000E+00 0. -1.
        -14    1    5    5    0    0 -0.41027840012E+02  0.30322733420E+02  0.30022011614E+03  0.30452400555E+03  0.00000000000E+00 0.  1.
          5    1    4    4  501    0 -0.64579525978E+02 -0.45638643566E+02  0.28296526408E+03  0.29383705355E+03  0.41800000000E+01 0. -1.
         -5    1    4    4    0  501  0.54628259097E+02 -0.17164000474E+01  0.21411067720E+03  0.22101594335E+03  0.41800000000E+01 0. -1.
</event>
<event>
11    1  0.6455215E-009  0.1558418E+03  0.7561462E-02  0.1091055E+00
         22   -1    0    0    0    0  0.00000000000E+00  0.00000000000E+00  0.30317864256E+04  0.30317864256E+04  0.00000000000E+00 0. -1.
         22   -1    0    0    0    0 -0.00000000000E+00 -0.00000000000E+00 -0.23103594926E+03  0.23103594926E+03  0.00000000000E+00 0. -1.
        -24    2    1    2    0    0 -0.70157370620E+02  0.65477076477E+02 -0.19145991042E+03  0.22877927639E+03  0.80459653307E+02 0.  0.
         25    2    1    2    0    0  0.18320346949E+02 -0.58761621518E+02  0.22172489205E+03  0.26191194860E+03  0.12508947913E+03 0.  0.
         24    2    1    2    0    0  0.51837023671E+02 -0.67154549594E+01  0.27704854947E+04  0.27721311499E+04  0.79931604045E+02 0.  0.
        -13    1    5    5    0    0  0.14809707400E+02 -0.40729570660E+02  0.10130774536E+04  0.10140040199E+04  0.00000000000E+00 0.  1.
         14    1    5    5    0    0  0.37027316271E+02  0.34014115700E+02  0.17574080411E+04  0.17581271299E+04  0.00000000000E+00 0. -1.
         13    1    3    3    0    0 -0.38217736894E+02 -0.83806466852E+01 -0.97584001343E+02  0.10513547437E+03  0.00000000000E+00 0. -1.
        -14    1    3    3    0    0 -0.31939633726E+02  0.73857723163E+02 -0.93875909077E+02  0.12364380202E+03  0.00000000000E+00 0.  1.
          5    1    4    4  501    0  0.71905788133E+02 -0.32821947253E+02  0.11447140033E+03  0.13917218286E+03  0.41800000000E+01 0. -1.
         -5    1    4    4    0  501 -0.53585441184E+02 -0.25939674265E+02  0.10725349172E+03  0.12273976574E+03  0.41800000000E+01 0. -1.
</event>
<event>
11    1  0.6455215E-009  0.1307509E+03  0.7561462E-02  0.1118350E+00
         22   -1    0    0    0    0  0.00000000000E+00  0.00000000000E+00  0.91098117815E+03  0.91098117815E+03  0.00000000000E+00 0.  1.
         22   -1    0    0    0    0 -0.00000000000E+00 -0.00000000000E+00 -0.24199983192E+03  0.24199983192E+03  0.00000000000E+00 0.  1.
        -24    2    1    2    0    0  0.12383314718E+02 -0.18300133289E+02 -0.17213047955E+03  0.19133901406E+03  0.80582100673E+02 0.  0.
         25    2    1    2    0    0 -0.47315117207E+02  0.36612222345E+01  0.19240690084E+02  0.13516770090E+03  0.12509187962E+03 0.  0.
         24    2    1    2    0    0  0.34931802489E+02  0.14638911055E+02  0.82187113570E+03  0.82647429511E+03  0.78441495617E+02 0.  0.
        -11    1    5    5    0    0  0.48710183276E+02  0.35432434937E+02  0.49467335711E+03  0.49832707094E+03  0.00000000000E+00 0.  1.
         12    1    5    5    0    0 -0.13778380787E+02 -0.20793523882E+02  0.32719777859E+03  0.32814722417E+03  0.00000000000E+00 0. -1.
         13    1    3    3    0    0  0.24244015752E+02 -0.33236272967E+02 -0.38467134925E+02  0.56321777403E+02  0.00000000000E+00 0. -1.
        -14    1    3    3    0    0 -0.11860701034E+02  0.14936139678E+02 -0.13366334463E+03  0.13501723666E+03  0.00000000000E+00 0.  1.
          5    1    4    4  501    0  0.54617742921E+01 -0.12660388595E+02 -0.46799365899E+02  0.48967024275E+02  0.41800000000E+01 0.  1.
         -5    1    4    4    0  501 -0.52776891499E+02  0.16321610829E+02  0.66040055983E+02  0.86200676625E+02  0.41800000000E+01 0.  1.
</event>
<event>
11    1  0.6455215E-009  0.1661617E+03  0.7561462E-02  0.1081421E+00
         22   -1    0    0    0    0  0.00000000000E+00  0.00000000000E+00  0.12858837638E+03  0.12858837638E+03  0.00000000000E+00 0.  1.
         22   -1    0    0    0    0 -0.00000000000E+00 -0.00000000000E+00 -0.20471131353E+04  0.20471131353E+04  0.00000000000E+00 0.  1.
         24    2    1    2    0    0  0.90854824907E+02  0.59910288105E+02 -0.14774347290E+04  0.14836210819E+04  0.80463000459E+02 0.  0.
         25    2    1    2    0    0 -0.10642908880E+03 -0.40397745337E+02 -0.53790129513E+03  0.56386616383E+03  0.12509244037E+03 0.  0.
        -24    2    1    2    0    0  0.15574263897E+02 -0.19512542768E+02  0.96811265189E+02  0.12821426595E+03  0.80269420737E+02 0.  0.
        -13    1    3    3    0    0  0.38612112010E+02  0.70546044330E+02 -0.99662825067E+03  0.99986774605E+03  0.00000000000E+00 0.  1.
         14    1    3    3    0    0  0.52242712897E+02 -0.10635756225E+02 -0.48080647831E+03  0.48375333585E+03  0.00000000000E+00 0. -1.
         11    1    5    5    0    0  0.32399409571E+02  0.10912082547E+00  0.49373321721E+01  0.32773631122E+02  0.00000000000E+00 0. -1.
        -12    1    5    5    0    0 -0.16825145675E+02 -0.19621663593E+02  0.91873933017E+02  0.95440634832E+02  0.00000000000E+00 0.  1.
          5    1    4    4  501    0 -0.14359231095E+02 -0.70153775955E+02 -0.25175844389E+03  0.26177762752E+03  0.41800000000E+01 0.  1.
         -5    1    4    4    0  501 -0.92069857709E+02  0.29756030618E+02 -0.28614285124E+03  0.30208853631E+03  0.41800000000E+01 0.  1.
</event>
<event>
11    1  0.6455215E-009  0.1988401E+03  0.7561462E-02  0.1055347E+00
         22   -1    0    0    0    0  0.00000000000E+00  0.00000000000E+00  0.64599277493E+03  0.64599277493E+03  0.00000000000E+00 0.  1.
         22   -1    0    0    0    0 -0.00000000000E+00 -0.00000000000E+00 -0.80610507330E+03  0.80610507330E+03  0.00000000000E+00 0.  1.
         24    2    1    2    0    0  0.14850905037E+03 -0.36793763463E+02 -0.65310712334E+03  0.67563350417E+03  0.80765081127E+02 0.  0.
         25    2    1    2    0    0 -0.14639905509E+03  0.95200119633E+02 -0.53084262699E+02  0.22127148951E+03  0.12508951601E+03 0.  0.
        -24    2    1    2    0    0 -0.21099952793E+01 -0.58406356170E+02  0.54607908767E+03  0.55519285455E+03  0.81369412107E+02 0.  0.
        -13    1    3    3    0    0  0.12446781977E+03  0.36166130155E+01 -0.43235314497E+03  0.44992728303E+03  0.00000000000E+00 0.  1.
         14    1    3    3    0    0  0.24041230595E+02 -0.40410376478E+02 -0.22075397837E+03  0.22570622114E+03  0.00000000000E+00 0. -1.
         11    1    5    5    0    0  0.13783393456E+02 -0.75274955877E+02  0.39475581534E+03  0.40210502940E+03  0.00000000000E+00 0. -1.
        -12    1    5    5    0    0 -0.15893388735E+02  0.16868599707E+02  0.15132327233E+03  0.15308782515E+03  0.00000000000E+00 0.  1.
          5    1    4    4  501    0 -0.85752480122E+02 -0.36559749710E+01 -0.60327434174E+02  0.10499393180E+03  0.41800000000E+01 0.  1.
         -5    1    4    4    0  501 -0.60646574969E+02  0.98856094604E+02  0.72431714753E+01  0.11627755772E+03  0.41800000000E+01 0.  1.
</event>
<event>
11    1  0.6455215E-009  0.1450228E+03  0.7561462E-02  0.1102076E+00
         22   -1    0    0    0    0  0.00000000000E+00  0.00000000000E+00  0.79928872768E+03  0.79928872768E+03  0.00000000000E+00 0.  1.
         22   -1    0    0    0    0 -0.00000000000E+00 -0.00000000000E+00 -0.17919864404E+04  0.17919864404E+04  0.00000000000E+00 0. -1.
        -24    2    1    2    0    0  0.26875611279E+02  0.53706287612E+01 -0.17565472791E+04  0.17585791563E+04  0.79944749615E+02 0.  0.
         25    2    1    2    0    0 -0.13293156452E+02  0.67881677123E+02  0.13750527554E+03  0.19834279356E+03  0.12509009896E+03 0.  0.
         24    2    1    2    0    0 -0.13582454827E+02 -0.73252305884E+02  0.62634429088E+03  0.63435321823E+03  0.67427378376E+02 0.  0.
        -13    1    5    5    0    0 -0.21204650463E-01 -0.43223557147E+02  0.54321947846E+03  0.54493639823E+03  0.00000000000E+00 0.  1.
         14    1    5    5    0    0 -0.13561250177E+02 -0.30028748736E+02  0.83124812427E+02  0.89416819995E+02  0.00000000000E+00 0. -1.
         13    1    3    3    0    0  0.40161088843E+02  0.10801758772E+02 -0.16895484783E+04  0.16900602509E+04  0.00000000000E+00 0. -1.
        -14    1    3    3    0    0 -0.13285477564E+02 -0.54311300111E+01 -0.66998800798E+02  0.68518905388E+02  0.00000000000E+00 0.  1.
          5    1    4    4  501    0  0.40961399153E+02  0.77423215834E+02  0.83562209730E+02  0.12112929400E+03  0.41800000000E+01 0. -1.
         -5    1    4    4    0  501 -0.54254555606E+02 -0.95415387112E+01  0.53943065809E+02  0.77213499557E+02  0.41800000000E+01 0. -1.
</event>
<event>
11    1  0.6455215E-009  0.1457428E+03  0.7561462E-02  0.1101310E+00
         22   -1    0    0    0    0  0.00000000000E+00  0.00000000000E+00  0.14835095284E+04  0.14835095284E+04  0.00000000000E+00 0.  1.
         22   -1    0    0    0    0 -0.00000000000E+00 -0.00000000000E+00 -0.29827241250E+03  0.29827241250E+03  0.00000000000E+00 0.  1.
        -24    2    1    2    0    0 -0.57749721931E+02 -0.51882812329E+01 -0.24963556729E+03  0.26905959330E+03  0.81934117709E+02 0.  0.
         25    2    1    2    0    0  0.84340113922E+02 -0.63549047117E+02  0.14716787732E+03  0.22013174379E+03  0.12509142378E+03 0.  0.
         24    2    1    2    0    0 -0.26590391991E+02  0.68737328350E+02  0.12877048059E+04  0.12925906039E+04  0.84704974888E+02 0.  0.
        -13    1    5    5    0    0 -0.11803309554E+01  0.61210525221E+02  0.11830317363E+04  0.11846147942E+04  0.00000000000E+00 0.  1.
         14    1    5    5    0    0 -0.25410061036E+02  0.75268031291E+01  0.10467306961E+03  0.10797580964E+03  0.00000000000E+00 0. -1.
         11    1    3    3    0    0 -0.42434097527E+01 -0.16545752790E+02 -0.41827080319E+01  0.17585889463E+02  0.00000000000E+00 0. -1.
        -12    1    3    3    0    0 -0.53506312179E+02  0.11357471557E+02 -0.24545285926E+03  0.25147370384E+03  0.00000000000E+00 0.  1.
          5    1    4    4  501    0  0.16792048506E+02 -0.51074293945E+01 -0.22200852044E+02  0.28607847866E+02  0.41800000000E+01 0.  1.
         -5    1    4    4    0  501  0.67548065416E+02 -0.58441617722E+02  0.16936872936E+03  0.19152389592E+03  0.41800000000E+01 0.  1.
</event>
<event>
11    1  0.6455215E-009  0.2061295E+03  0.7561462E-02  0.1050272E+00
         22   -1    0    0    0    0  0.00000000000E+00  0.00000000000E+00  0.26414800280E+04  0.26414800280E+04  0.00000000000E+00 0.  1.
         22   -1    0    0    0    0 -0.00000000000E+00 -0.00000000000E+00 -0.21822411678E+03  0.21822411678E+03  0.00000000000E+00 0. -1.
         24    2    1    2    0    0 -0.50728380332E+02  0.15720059622E+03 -0.15025271120E+03  0.23770082929E+03  0.81488717005E+02 0.  0.
         25    2    1    2    0    0  0.26087164325E+02 -0.15021098678E+03  0.38986606370E+03  0.43690584477E+03  0.12508912372E+03 0.  0.
        -24    2    1    2    0    0  0.24641216007E+02 -0.69896094381E+01  0.21836425588E+04  0.21850974708E+04  0.75498927912E+02 0.  0.
        -11    1    3    3    0    0 -0.21849041266E+02 -0.24038414888E+01 -0.18839970827E+02  0.28950018289E+02  0.00000000000E+00 0.  1.
         12    1    3    3    0    0 -0.28879339066E+02  0.15960443771E+03 -0.13141274037E+03  0.20875081100E+03  0.00000000000E+00 0. -1.
         11    1    5    5    0    0  0.18071979967E+02  0.36717370669E+01  0.11929683419E+03  0.12071376376E+03  0.00000000000E+00 0. -1.
        -12    1    5    5    0    0  0.65692360404E+01 -0.10661346505E+02  0.20643457246E+04  0.20643837070E+04  0.00000000000E+00 0.  1.
          5    1    4    4  501    0  0.19411238484E+02 -0.13530522508E+03  0.17848006441E+03  0.22484862887E+03  0.41800000000E+01 0.  1.
         -5    1    4    4    0  501  0.66759258405E+01 -0.14905761708E+02  0.21138599930E+03  0.21205721590E+03  0.41800000000E+01 0.  1.
</event>
<event>
11    1  0.6455215E-009  0.1689824E+03  0.7561462E-02  0.1078921E+00
         22   -1    0    0    0    0  0.00000000000E+00  0.00000000000E+00  0.11740389931E+03  0.11740389931E+03  0.00000000000E+00 0. -1.
         22   -1    0    0    0    0 -0.00000000000E+00 -0.00000000000E+00 -0.51602714549E+03  0.51602714549E+03  0.00000000000E+00 0.  1.
         24    2    1    2    0    0 -0.12836676998E+03 -0.24232098710E+02 -0.17825151411E+03  0.23656437840E+03  0.84403084083E+02 0.  0.
         25    2    1    2    0    0  0.86271068189E+02 -0.93033649821E+02 -0.14890596438E+03  0.23220480134E+03  0.12509247111E+03 0.  0.
        -24    2    1    2    0    0  0.42095701791E+02  0.11726574853E+03 -0.71465767691E+02  0.16466186506E+03  0.80516271430E+02 0.  0.
        -13    1    3    3    0    0  0.20140529697E+01 -0.19893702651E+02 -0.67869634004E+01  0.21115839711E+02  0.00000000000E+00 0.  1.
         14    1    3    3    0    0 -0.13038082295E+03 -0.43383960590E+01 -0.17146455071E+03  0.21544853869E+03  0.00000000000E+00 0. -1.
         13    1    5    5    0    0  0.48251662342E+02  0.93820013647E+02 -0.19454942224E+02  0.10727960037E+03  0.00000000000E+00 0. -1.
        -14    1    5    5    0    0 -0.61559605505E+01  0.23445734884E+02 -0.52010825467E+02  0.57382264684E+02  0.00000000000E+00 0.  1.
          5    1    4    4  501    0  0.94621746477E+02 -0.10008476210E+03 -0.74035762901E+02  0.15642570473E+03  0.41800000000E+01 0. -1.
         -5    1    4    4    0  501 -0.83506782875E+01  0.70511122835E+01 -0.74870201484E+02  0.75779096607E+02  0.41800000000E+01 0. -1.
</event>
<event>
11    1  0.6455215E-009  0.1301591E+03  0.7561462E-02  0.1119074E+00
         22   -1    0    0    0    0  0.00000000000E+00  0.00000000000E+00  0.12996460897E+04  0.12996460897E+04  0.00000000000E+00 0. -1.
         22   -1    0    0    0    0 -0.00000000000E+00 -0.00000000000E+00 -0.15263396702E+04  0.15263396702E+04  0.00000000000E+00 0. -1.
        -24    2    1    2    0    0  0.28757195078E+01 -0.15179931146E+02 -0.10217191383E+04  0.10248834146E+04  0.78976679117E+02 0.  0.
         25    2    1    2    0    0  0.27315284161E+02 -0.44104456645E+01 -0.49342718892E+03  0.50978844177E+03  0.12509311659E+03 0.  0.
         24    2    1    2    0    0 -0.30191003668E+02  0.19590376811E+02  0.12884527468E+04  0.12913139035E+04  0.78011775821E+02 0.  0.
        -11    1    5    5    0    0 -0.17486481329E+02  0.28253733049E+02  0.19916880967E+03  0.20192143325E+03  0.00000000000E+00 0.  1.
         12    1    5    5    0    0 -0.12704522339E+02 -0.86633562379E+01  0.10892839371E+04  0.10893924703E+04  0.00000000000E+00 0. -1.
         13    1    3    3    0    0  0.14134321406E+01 -0.42903374962E+02 -0.83593714001E+03  0.83703858897E+03  0.00000000000E+00 0. -1.
        -14    1    3    3    0    0  0.14622873671E+01  0.27723443816E+02 -0.18578199832E+03  0.18784482565E+03  0.00000000000E+00 0.  1.
          5    1    4    4  501    0  0.33229328275E+02  0.10733323928E+02 -0.49165223648E+03  0.49290849712E+03  0.41800000000E+01 0.  1.
         -5    1    4    4    0  501 -0.59140441139E+01 -0.15143769592E+02 -0.17749524428E+01  0.16879944651E+02  0.41800000000E+01 0.  1.
</event>
<event>
11    1  0.6455215E-009  0.1519117E+03  0.7561462E-02  0.1094941E+00
         22   -1    0    0    0    0  0.00000000000E+00  0.00000000000E+00  0.32408288366E+03  0.32408288366E+03  0.00000000000E+00 0. -1.
         22   -1    0    0    0    0 -0.00000000000E+00 -0.00000000000E+00 -0.56884188572E+03  0.56884188572E+03  0.00000000000E+00 0. -1.
        -24    2    1    2    0    0 -0.81482129524E+02  0.33796108653E+02 -0.50616551553E+03  0.51974364456E+03  0.78411813904E+02 0.  0.
         25    2    1    2    0    0  0.35029153064E+02 -0.54164153221E+02  0.64955069663E+02  0.15500642562E+03  0.12508810436E+03 0.  0.
         24    2    1    2    0    0  0.46452976459E+02  0.20368044567E+02  0.19645144381E+03  0.21817469919E+03  0.80214046981E+02 0.  0.
        -11    1    5    5    0    0 -0.65520755088E+01  0.12390704123E+02 -0.53405856924E+00  0.14026562683E+02  0.00000000000E+00 0.  1.
         12    1    5    5    0    0  0.53005051968E+02  0.79773404443E+01  0.19698550237E+03  0.20414813651E+03  0.00000000000E+00 0. -1.
         13    1    3    3    0    0 -0.82324603581E+02  0.47112428009E+02 -0.48840057103E+03  0.49752591793E+03  0.00000000000E+00 0. -1.
        -14    1    3    3    0    0  0.84247405719E+00 -0.13316319356E+02 -0.17764944500E+02  0.22217726635E+02  0.00000000000E+00 0.  1.
          5    1    4    4  501    0  0.69539072836E+02 -0.62139389581E+02  0.16432697275E+02  0.94786561960E+02  0.41800000000E+01 0.  1.
         -5    1    4    4    0  501 -0.34509919772E+02  0.79752363604E+01  0.48522372387E+02  0.60219863664E+02  0.41800000000E+01 0.  1.
</event>
<event>
11    1  0.6455215E-009  0.1442028E+03  0.7561462E-02  0.1102954E+00
         22   -1    0    0    0    0  0.00000000000E+00  0.00000000000E+00  0.80938202990E+03  0.80938202990E+03  0.00000000000E+00 0.  1.
         22   -1    0    0    0    0 -0.00000000000E+00 -0.00000000000E+00 -0.33932999867E+03  0.33932999867E+03  0.00000000000E+00 0.  1.
        -24    2    1    2    0    0 -0.17834206906E+02  0.53497860705E+02 -0.30180582566E+03  0.31787078201E+03  0.82310373707E+02 0.  0.
         25    2    1    2    0    0 -0.45874711547E+02 -0.55385036880E+01  0.15896841373E+03  0.20749519961E+03  0.12509251423E+03 0.  0.
         24    2    1    2    0    0  0.63708918453E+02 -0.47959357017E+02  0.61288944316E+03  0.62334604695E+03  0.81042572154E+02 0.  0.
        -13    1    5    5    0    0  0.67530552794E+02 -0.10312757555E+02  0.27558550087E+03  0.28392621721E+03  0.00000000000E+00 0.  1.
         14    1    5    5    0    0 -0.38216343415E+01 -0.37646599462E+02  0.33730394229E+03  0.33941982974E+03  0.00000000000E+00 0. -1.
         13    1    3    3    0    0  0.30320581363E+02  0.36571791272E+02 -0.12079519107E+03  0.12980104682E+03  0.00000000000E+00 0. -1.
        -14    1    3    3    0    0 -0.48154788268E+02  0.16926069433E+02 -0.18101063459E+03  0.18806973519E+03  0.00000000000E+00 0.  1.
          5    1    4    4  501    0  0.24517141745E+02 -0.24348500261E+01  0.12799942774E+03  0.13041604439E+03  0.41800000000E+01 0. -1.
         -5    1    4    4    0  501 -0.70391853292E+02 -0.31036536619E+01  0.30968985991E+02  0.77079155218E+02  0.41800000000E+01 0. -1.
</event>
<event>
11    1  0.6455215E-009  0.1615187E+03  0.7561462E-02  0.1085658E+00
         22   -1    0    0    0    0  0.00000000000E+00  0.00000000000E+00  0.11548004183E+04  0.11548004183E+04  0.00000000000E+00 0.  1.
         22   -1    0    0    0    0 -0.00000000000E+00 -0.00000000000E+00 -0.17472063470E+04  0.17472063470E+04  0.00000000000E+00 0. -1.
         24    2    1    2    0    0 -0.39721367333E+01  0.13867440751E+02 -0.16863602809E+04  0.16883123986E+04  0.79872864323E+02 0.  0.
         25    2    1    2    0    0  0.10433125394E+03 -0.30619707458E+02  0.67381143569E+02  0.17891628286E+03  0.12509292838E+03 0.  0.
        -24    2    1    2    0    0 -0.10035911721E+03  0.16752266707E+02  0.10265732087E+04  0.10347780838E+04  0.80997154027E+02 0.  0.
        -11    1    3    3    0    0  0.33672578546E+02 -0.30927694865E+01 -0.45258703438E+03  0.45384846750E+03  0.00000000000E+00 0.  1.
         12    1    3    3    0    0 -0.37644715279E+02  0.16960210237E+02 -0.12337732466E+04  0.12344639311E+04  0.00000000000E+00 0. -1.
         11    1    5    5    0    0 -0.58127857238E+02 -0.30833975329E+02  0.47107350322E+03  0.47564674630E+03  0.00000000000E+00 0. -1.
        -12    1    5    5    0    0 -0.42231259968E+02  0.47586242036E+02  0.55549970547E+03  0.55913133746E+03  0.00000000000E+00 0.  1.
          5    1    4    4  501    0  0.69705509834E+02 -0.19205914268E+02 -0.27279706670E+02  0.77391085017E+02  0.41800000000E+01 0.  1.
         -5    1    4    4    0  501  0.34625744106E+02 -0.11413793190E+02  0.94660850239E+02  0.10152519785E+03  0.41800000000E+01 0.  1.
</event>
<event>
11    1  0.6455215E-009  0.1469456E+03  0.7561462E-02  0.1100041E+00
         22   -1    0    0    0    0  0.00000000000E+00  0.00000000000E+00  0.13653932389E+04  0.13653932389E+04  0.00000000000E+00 0. -1.
         22   -1    0    0    0    0 -0.00000000000E+00 -0.00000000000E+00 -0.15911710142E+03  0.15911710142E+03  0.00000000000E+00 0.  1.
         24    2    1    2    0    0 -0.45017421525E+01 -0.10988509266E+02 -0.12839719878E+03  0.15129655854E+03  0.79144140362E+02 0.  0.
         25    2    1    2    0    0  0.53332704976E+02 -0.49837406940E+02  0.30737073632E+03  0.33978339575E+03  0.12509133435E+03 0.  0.
        -24    2    1    2    0    0 -0.48830962823E+02  0.60825916206E+02  0.10273025999E+04  0.10334303860E+04  0.80891754385E+02 0.  0.
        -13    1    3    3    0    0 -0.11207442231E+02 -0.11248499356E+02 -0.13836891141E+03  0.13927703021E+03  0.00000000000E+00 0.  1.
         14    1    3    3    0    0  0.67057000787E+01  0.25999009067E+00  0.99717126341E+01  0.12019528329E+02  0.00000000000E+00 0. -1.
         11    1    5    5    0    0 -0.55410405511E+01  0.18516790485E+01  0.59158904521E+03  0.59161789210E+03  0.00000000000E+00 0. -1.
        -12    1    5    5    0    0 -0.43289922272E+02  0.58974237157E+02  0.43571355468E+03  0.44181249388E+03  0.00000000000E+00 0.  1.
          5    1    4    4  501    0 -0.13604410463E+02 -0.36056303007E+02  0.24211555339E+03  0.24519900196E+03  0.41800000000E+01 0.  1.
         -5    1    4    4    0  501  0.66937115438E+02 -0.13781103933E+02  0.65255182936E+02  0.94584393791E+02  0.41800000000E+01 0.  1.
</event>
<event>
11    1  0.6455215E-009  0.1427765E+03  0.7561462E-02  0.1104497E+00
         22   -1    0    0    0    0  0.00000000000E+00  0.00000000000E+00  0.29600460224E+04  0.29600460224E+04  0.00000000000E+00 0.  1.
         22   -1    0    0    0    0 -0.00000000000E+00 -0.00000000000E+00 -0.18353213119E+03  0.18353213119E+03  0.00000000000E+00 0. -1.
        -24    2    1    2    0    0  0.31607018529E+01  0.24520456213E+02 -0.14673272640E+03  0.16824401074E+03  0.78513128492E+02 0.  0.
         25    2    1    2    0    0  0.61257539997E+02  0.99309783925E+00  0.16893886981E+03  0.21895924571E+03  0.12509731052E+03 0.  0.
         24    2    1    2    0    0 -0.64418241850E+02 -0.25513554052E+02  0.27543077478E+04  0.27563748971E+04  0.81183450558E+02 0.  0.
        -11    1    5    5    0    0 -0.59207595358E+02 -0.14292353137E+02  0.26995438129E+04  0.27002308436E+04  0.00000000000E+00 0.  1.
         12    1    5    5    0    0 -0.52106464917E+01 -0.11221200915E+02  0.54763934842E+02  0.56144053525E+02  0.00000000000E+00 0. -1.
         11    1    3    3    0    0  0.23395295166E+02 -0.83209338667E+01 -0.11682154103E+03  0.11943136198E+03  0.00000000000E+00 0. -1.
        -12    1    3    3    0    0 -0.20234593313E+02  0.32841390080E+02 -0.29911185369E+02  0.48812648762E+02  0.00000000000E+00 0.  1.
          5    1    4    4  501    0  0.68961240841E+02  0.42398977649E+01  0.18657422880E+03  0.19900011237E+03  0.41800000000E+01 0. -1.
         -5    1    4    4    0  501 -0.77037008443E+01 -0.32467999256E+01 -0.17635358996E+02  0.19959133332E+02  0.41800000000E+01 0. -1.
</event>
<event>
11    1  0.6455215E-009  0.1585839E+03  0.7561462E-02  0.1088417E+00
         22   -1    0    0    0    0  0.00000000000E+00  0.00000000000E+00  0.47284528715E+04  0.47284528715E+04  0.00000000000E+00 0. -1.
         22   -1    0    0    0    0 -0.00000000000E+00 -0.00000000000E+00 -0.11355164044E+03  0.11355164044E+03  0.00000000000E+00 0. -1.
         24    2    1    2    0    0  0.26712458576E+02 -0.74726442117E+02 -0.73957401114E+02  0.13594701479E+03  0.81940814353E+02 0.  0.
         25    2    1    2    0    0  0.10019424479E+02  0.15685170756E+03  0.13356845121E+04  0.13507049816E+04  0.12509190458E+03 0.  0.
        -24    2    1    2    0    0 -0.36731883055E+02 -0.82125265443E+02  0.33531741202E+04  0.33553525156E+04  0.80746722714E+02 0.  0.
        -13    1    3    3    0    0  0.22534933076E+02 -0.31983718406E+02  0.11094104146E+02  0.40667684943E+02  0.00000000000E+00 0.  1.
         14    1    3    3    0    0  0.41775255002E+01 -0.42742723712E+02 -0.85051505261E+02  0.95279329850E+02  0.00000000000E+00 0. -1.
         13    1    5    5    0    0 -0.24115444843E+02 -0.68389169755E+02  0.32262996099E+04  0.32271144705E+04  0.00000000000E+00 0. -1.
        -14    1    5    5    0    0 -0.12616438212E+02 -0.13736095689E+02  0.12687451029E+03  0.12823804506E+03  0.00000000000E+00 0.  1.
          5    1    4    4  501    0  0.51904071834E+02  0.27852330965E+02  0.57384441143E+03  0.57687491360E+03  0.41800000000E+01 0.  1.
         -5    1    4    4    0  501 -0.41884647355E+02  0.12899937660E+03  0.76184010064E+03  0.77383006803E+03  0.41800000000E+01 0.  1.
</event>
<event>
11    1  0.6455215E-009  0.2168360E+03  0.7561462E-02  0.1043218E+00
         22   -1    0    0    0    0  0.00000000000E+00  0.00000000000E+00  0.41136231597E+03  0.41136231597E+03  0.00000000000E+00 0. -1.
         22   -1    0    0    0    0 -0.00000000000E+00 -0.00000000000E+00 -0.43854936081E+03  0.43854936081E+03  0.00000000000E+00 0.  1.
        -24    2    1    2    0    0  0.14684680497E+02  0.50244710137E+02 -0.31553152479E+03  0.33166966933E+03  0.87775028792E+02 0.  0.
         25    2    1    2    0    0  0.10868637536E+03  0.10526191437E+03  0.87439113138E+02  0.21490962956E+03  0.12509097317E+03 0.  0.
         24    2    1    2    0    0 -0.12337105585E+03 -0.15550662451E+03  0.20090536680E+03  0.30333237789E+03  0.11065639331E+03 0.  0.
        -11    1    5    5    0    0  0.16635500630E+02 -0.43780412825E+02  0.55511954929E+02  0.72629481399E+02  0.00000000000E+00 0.  1.
         12    1    5    5    0    0 -0.14000655648E+03 -0.11172621168E+03  0.14539341187E+03  0.23070289649E+03  0.00000000000E+00 0. -1.
         13    1    3    3    0    0  0.69823700645E+01 -0.24462718202E+02 -0.56356966053E+02  0.61832723506E+02  0.00000000000E+00 0. -1.
        -14    1    3    3    0    0  0.77023104322E+01  0.74707428339E+02 -0.25917455873E+03  0.26983694582E+03  0.00000000000E+00 0.  1.
          5    1    4    4  501    0  0.13663408667E+02  0.97396426509E+02  0.27495648556E+02  0.10220682816E+03  0.41800000000E+01 0.  1.
         -5    1    4    4    0  501  0.95022966688E+02  0.78654878587E+01  0.59943464582E+02  0.11270280140E+03  0.41800000000E+01 0.  1.
</event>
<event>
11    1  0.6455215E-009  0.1681457E+03  0.7561462E-02  0.1079657E+00
         22   -1    0    0    0    0  0.00000000000E+00  0.00000000000E+00  0.16687691452E+04  0.16687691452E+04  0.00000000000E+00 0.  1.
         22   -1    0    0    0    0 -0.00000000000E+00 -0.00000000000E+00 -0.36016495615E+03  0.36016495615E+03  0.00000000000E+00 0.  1.
        -24    2    1    2    0    0 -0.10523310368E+03 -0.39095880240E+02 -0.26502880201E+03  0.29908826452E+03  0.81308241411E+02 0.  0.
         25    2    1    2    0    0  0.90359256357E+02  0.77582161981E+02  0.20277710810E+02  0.17391265857E+03  0.12510251871E+03 0.  0.
         24    2    1    2    0    0  0.14873847326E+02 -0.38486281741E+02  0.15533552802E+04  0.15559331782E+04  0.79454410354E+02 0.  0.
        -13    1    5    5    0    0  0.38331148663E+02  0.60026718030E+01  0.60135352547E+03  0.60260382643E+03  0.00000000000E+00 0.  1.
         14    1    5    5    0    0 -0.23457301337E+02 -0.44488953544E+02  0.95200175475E+03  0.95332935181E+03  0.00000000000E+00 0. -1.
         13    1    3    3    0    0 -0.47497180109E+02 -0.32172276275E+02 -0.49239500969E+02  0.75601361990E+02  0.00000000000E+00 0. -1.
        -14    1    3    3    0    0 -0.57735923574E+02 -0.69236039645E+01 -0.21578930104E+03  0.22348690253E+03  0.00000000000E+00 0.  1.
          5    1    4    4  501    0  0.40471580693E+02  0.96739869200E+02 -0.20034577450E+02  0.10684291193E+03  0.41800000000E+01 0. -1.
         -5    1    4    4    0  501  0.49887675663E+02 -0.19157707219E+02  0.40312288260E+02  0.67069746635E+02  0.41800000000E+01 0. -1.
</event>
<event>
11    1  0.6455215E-009  0.1622280E+03  0.7561462E-02  0.1085000E+00
         22   -1    0    0    0    0  0.00000000000E+00  0.00000000000E+00  0.24072023478E+03  0.24072023478E+03  0.00000000000E+00 0.  1.
         22   -1    0    0    0    0 -0.00000000000E+00 -0.00000000000E+00 -0.34194869304E+03  0.34194869304E+03  0.00000000000E+00 0. -1.
        -24    2    1    2    0    0 -0.71555114541E+02  0.25714908405E+01 -0.18414060865E+03  0.21314204961E+03  0.79968885053E+02 0.  0.
         25    2    1    2    0    0  0.15978227636E+03 -0.49863667004E+01 -0.22225123671E+02  0.20419829301E+03  0.12509095512E+03 0.  0.
         24    2    1    2    0    0 -0.88227161821E+02  0.24148758599E+01  0.10513727406E+03  0.16532858521E+03  0.92140278830E+02 0.  0.
        -13    1    5    5    0    0 -0.48576451236E+02  0.46618083015E+02  0.46124844995E+02  0.81611387714E+02  0.00000000000E+00 0.  1.
         14    1    5    5    0    0 -0.39650710585E+02 -0.44203207155E+02  0.59012429066E+02  0.83717197498E+02  0.00000000000E+00 0. -1.
         11    1    3    3    0    0 -0.52755199145E+02 -0.46043845215E+01 -0.18556070137E+03  0.19296913040E+03  0.00000000000E+00 0. -1.
        -12    1    3    3    0    0 -0.18799915396E+02  0.71758753620E+01  0.14200927241E+01  0.20172919210E+02  0.00000000000E+00 0.  1.
          5    1    4    4  501    0  0.15991281726E+02  0.43957931629E+02  0.11935208586E+02  0.48455571902E+02  0.41800000000E+01 0.  1.
         -5    1    4    4    0  501  0.14379099464E+03 -0.48944298329E+02 -0.34160332256E+02  0.15574272110E+03  0.41800000000E+01 0.  1.
</event>
<event>
11    1  0.7617021E-009  0.1535645E+03  0.7561462E-02  0.1093291E+00
         22   -1    0    0    0    0  0.00000000000E+00  0.00000000000E+00  0.16623575273E+04  0.16623575273E+04  0.00000000000E+00 0.  1.
         22   -1    0    0    0    0 -0.00000000000E+00 -0.00000000000E+00 -0.95983461284E+02  0.95983461284E+02  0.00000000000E+00 0.  1.
         24    2    1    2    0    0 -0.76830226435E+02 -0.11970053153E+02 -0.14504954006E+02  0.11659228820E+03  0.85657469669E+02 0.  0.
         25    2    1    2    0    0  0.24648582493E+02 -0.65690957698E+02  0.15747134303E+03  0.21299849224E+03  0.12509308245E+03 0.  0.
        -24    2    1    2    0    0  0.52181643942E+02  0.77661010852E+02  0.14234076770E+04  0.14287502082E+04  0.80520716597E+02 0.  0.
        -13    1    3    3    0    0 -0.24785061382E+02 -0.40623938060E+02 -0.28614344313E+02  0.55528229863E+02  0.00000000000E+00 0.  1.
         14    1    3    3    0    0 -0.52045165052E+02  0.28653884907E+02  0.14109390306E+02  0.61064058335E+02  0.00000000000E+00 0. -1.
         13    1    5    5    0    0  0.28809835188E+02  0.85667500775E+01  0.13617304253E+03  0.13945068420E+03  0.00000000000E+00 0. -1.
        -14    1    5    5    0    0  0.23371808754E+02  0.69094260774E+02  0.12872346345E+04  0.12892995240E+04  0.00000000000E+00 0.  1.
          5    1    4    4  501    0 -0.48478480677E+02 -0.41063988875E+02  0.51763362324E+02  0.82056884843E+02  0.41800000000E+01 0. -1.
         -5    1    4    4    0  501  0.73127063170E+02 -0.24626968823E+02  0.10570798071E+03  0.13094160739E+03  0.41800000000E+01 0. -1.
</event>
<event>
11    1  0.6455215E-009  0.1314480E+03  0.7561462E-02  0.1117503E+00
         22   -1    0    0    0    0  0.00000000000E+00  0.00000000000E+00  0.42486619792E+03  0.42486619792E+03  0.00000000000E+00 0. -1.
         22   -1    0    0    0    0 -0.00000000000E+00 -0.00000000000E+00 -0.27641763167E+03  0.27641763167E+03  0.00000000000E+00 0.  1.
        -24    2    1    2    0    0  0.13577200648E+02 -0.16588349427E+02 -0.94690636001E+02  0.12744910080E+03  0.82567808710E+02 0.  0.
         25    2    1    2    0    0 -0.52380932605E+02  0.25634271347E+02 -0.13041298727E+03  0.18988528116E+03  0.12509194533E+03 0.  0.
         24    2    1    2    0    0  0.38803731956E+02 -0.90459219207E+01  0.37355218951E+03  0.38394944763E+03  0.79299317311E+02 0.  0.
        -13    1    5    5    0    0  0.44581821549E+02 -0.75836393716E+01  0.93782922342E+02  0.10411669857E+03  0.00000000000E+00 0.  1.
         14    1    5    5    0    0 -0.57780895930E+01 -0.14622825491E+01  0.27976926717E+03  0.27983274906E+03  0.00000000000E+00 0. -1.
         11    1    3    3    0    0 -0.16678361779E+02  0.23572888438E+02 -0.13330267699E+02  0.31804793002E+02  0.00000000000E+00 0. -1.
        -12    1    3    3    0    0  0.30255562427E+02 -0.40161237865E+02 -0.81360368302E+02  0.95644307802E+02  0.00000000000E+00 0.  1.
          5    1    4    4  501    0 -0.69006090768E+02  0.51422729077E+02 -0.13336770271E+03  0.15877831764E+03  0.41800000000E+01 0. -1.
         -5    1    4    4    0  501  0.16625158163E+02 -0.25788457730E+02  0.29547154395E+01  0.31106963519E+02  0.41800000000E+01 0. -1.
</event>
<event>
11    1  0.6455215E-009  0.1349623E+03  0.7561462E-02  0.1113318E+00
         22   -1    0    0    0    0  0.00000000000E+00  0.00000000000E+00  0.50165807939E+03  0.50165807939E+03  0.00000000000E+00 0.  1.
         22   -1    0    0    0    0 -0.00000000000E+00 -0.00000000000E+00 -0.35240606446E+03  0.35240606446E+03  0.00000000000E+00 0. -1.
         24    2    1    2    0    0 -0.11641722846E+02  0.48586715990E+02 -0.30156754030E+03  0.31605365978E+03  0.80316472875E+02 0.  0.
         25    2    1    2    0    0 -0.37198671511E+00 -0.64746951207E+02  0.87824882377E+02  0.16599182013E+03  0.12509104013E+03 0.  0.
        -24    2    1    2    0    0  0.12013709562E+02  0.16160235217E+02  0.36299467285E+03  0.37201866395E+03  0.78913062224E+02 0.  0.
        -13    1    3    3    0    0  0.16588092836E+02  0.50529826055E+02 -0.10752263647E+03  0.11995643167E+03  0.00000000000E+00 0.  1.
         14    1    3    3    0    0 -0.28229815682E+02 -0.19431100651E+01 -0.19404490383E+03  0.19609722811E+03  0.00000000000E+00 0. -1.
         13    1    5    5    0    0 -0.14827232940E+01 -0.23061888606E+02  0.38645986664E+02  0.45028451668E+02  0.00000000000E+00 0. -1.
        -14    1    5    5    0    0  0.13496432856E+02  0.39222123823E+02  0.32434868618E+03  0.32699021228E+03  0.00000000000E+00 0.  1.
          5    1    4    4  501    0  0.18225869655E+02 -0.14504053927E+02 -0.28982273176E+02  0.37416499882E+02  0.41800000000E+01 0. -1.
         -5    1    4    4    0  501 -0.18597856370E+02 -0.50242897281E+02  0.11680715555E+03  0.12857532025E+03  0.41800000000E+01 0. -1.
</event>
<event>
11    1  0.6455215E-009  0.1356686E+03  0.7561462E-02  0.1112494E+00
         22   -1    0    0    0    0  0.00000000000E+00  0.00000000000E+00  0.63003940628E+03  0.63003940628E+03  0.00000000000E+00 0. -1.
         22   -1    0    0    0    0 -0.00000000000E+00 -0.00000000000E+00 -0.49775807404E+03  0.49775807404E+03  0.00000000000E+00 0. -1.
        -24    2    1    2    0    0 -0.26542404211E+02 -0.30263953633E+02 -0.42603326746E+03  0.43520953996E+03  0.79262807022E+02 0.  0.
         25    2    1    2    0    0  0.54708671387E+02 -0.14979569985E+02  0.13492910537E+02  0.13801061397E+03  0.12508974655E+03 0.  0.
         24    2    1    2    0    0 -0.28166267176E+02  0.45243523618E+02  0.54482168916E+03  0.55457732639E+03  0.88797651600E+02 0.  0.
        -11    1    5    5    0    0 -0.22173009272E+02 -0.22007088286E+02  0.10321741337E+03  0.10784149803E+03  0.00000000000E+00 0.  1.
         12    1    5    5    0    0 -0.59932579048E+01  0.67250611904E+02  0.44160427579E+03  0.44673582835E+03  0.00000000000E+00 0. -1.
         13    1    3    3    0    0 -0.45000131111E+02 -0.40739320052E+02 -0.37589139903E+03  0.38076114279E+03  0.00000000000E+00 0. -1.
        -14    1    3    3    0    0  0.18457726900E+02  0.10475366419E+02 -0.50141868436E+02  0.54448397169E+02  0.00000000000E+00 0.  1.
          5    1    4    4  501    0  0.94010700537E+02 -0.20212373253E+02  0.17896799297E+02  0.97899538676E+02  0.41800000000E+01 0.  1.
         -5    1    4    4    0  501 -0.39302029150E+02  0.52328032684E+01 -0.44038887601E+01  0.40111075298E+02  0.41800000000E+01 0.  1.
</event>
<event>
11    1  0.6455215E-009  0.1796499E+03  0.7561462E-02  0.1069926E+00
         22   -1    0    0    0    0  0.00000000000E+00  0.00000000000E+00  0.11137829832E+04  0.11137829832E+04  0.00000000000E+00 0.  1.
         22   -1    0    0    0    0 -0.00000000000E+00 -0.00000000000E+00 -0.10074812261E+03  0.10074812261E+03  0.00000000000E+00 0. -1.
         24    2    1    2    0    0 -0.63011826660E+01 -0.11456281917E+02 -0.46777589860E+00  0.80447095870E+02  0.79376099181E+02 0.  0.
         25    2    1    2    0    0  0.42076610870E+02  0.13396219386E+03  0.10962995426E+03  0.21767159141E+03  0.12508350919E+03 0.  0.
        -24    2    1    2    0    0 -0.35775428204E+02 -0.12250591195E+03  0.90387268227E+03  0.91641241856E+03  0.80859850410E+02 0.  0.
        -11    1    3    3    0    0 -0.23510338832E+02  0.38051564354E+01  0.32472998247E+02  0.40270471349E+02  0.00000000000E+00 0.  1.
         12    1    3    3    0    0  0.17209156166E+02 -0.15261438353E+02 -0.32940774146E+02  0.40176624521E+02  0.00000000000E+00 0. -1.
         13    1    5    5    0    0 -0.74233900451E+01  0.55120925205E+01  0.13060540689E+02  0.16002112573E+02  0.00000000000E+00 0. -1.
        -14    1    5    5    0    0 -0.28352038158E+02 -0.12801800447E+03  0.89081214158E+03  0.90041030599E+03  0.00000000000E+00 0.  1.
          5    1    4    4  501    0 -0.11514337946E+01  0.38622251060E+02  0.10593670037E+03  0.11284086565E+03  0.41800000000E+01 0. -1.
         -5    1    4    4    0  501  0.43228044664E+02  0.95339942803E+02  0.36932538926E+01  0.10483072576E+03  0.41800000000E+01 0. -1.
</event>
<event>
11    1  0.6455215E-009  0.2332744E+03  0.7561462E-02  0.1033207E+00
         22   -1    0    0    0    0  0.00000000000E+00  0.00000000000E+00  0.11864574031E+04  0.11864574031E+04  0.00000000000E+00 0. -1.
         22   -1    0    0    0    0 -0.00000000000E+00 -0.00000000000E+00 -0.61146911103E+03  0.61146911103E+03  0.00000000000E+00 0.  1.
         24    2    1    2    0    0 -0.17302161993E+03 -0.10230343699E+03 -0.45467293514E+03  0.50388760679E+03  0.82296829489E+02 0.  0.
         25    2    1    2    0    0  0.16158510158E+03  0.83041396680E+02 -0.36870627603E+02  0.22361831097E+03  0.12506033427E+03 0.  0.
        -24    2    1    2    0    0  0.11436518358E+02  0.19262040311E+02  0.10665318548E+04  0.10704205964E+04  0.88364221652E+02 0.  0.
        -11    1    3    3    0    0 -0.13391875559E+03 -0.11256431428E+03 -0.39256345086E+03  0.42978020068E+03  0.00000000000E+00 0.  1.
         12    1    3    3    0    0 -0.39102864339E+02  0.10260877289E+02 -0.62109484279E+02  0.74107406105E+02  0.00000000000E+00 0. -1.
         11    1    5    5    0    0  0.39457802505E+02  0.15469411101E+02  0.93130933312E+03  0.93227318679E+03  0.00000000000E+00 0. -1.
        -12    1    5    5    0    0 -0.28021284148E+02  0.37926292100E+01  0.13522252171E+03  0.13814740960E+03  0.00000000000E+00 0.  1.
          5    1    4    4  501    0  0.14876900693E+02 -0.27706177307E+02  0.11082635930E+02  0.33604339814E+02  0.41800000000E+01 0. -1.
         -5    1    4    4    0  501  0.14670820088E+03  0.11074757399E+03 -0.47953263534E+02  0.19001397115E+03  0.41800000000E+01 0. -1.
</event>
<event>
11    1  0.6455215E-009  0.1490168E+03  0.7561462E-02  0.1097888E+00
         22   -1    0    0    0    0  0.00000000000E+00  0.00000000000E+00  0.36579166415E+04  0.36579166415E+04  0.00000000000E+00 0.  1.
         22   -1    0    0    0    0 -0.00000000000E+00 -0.00000000000E+00 -0.73169026406E+02  0.73169026406E+02  0.00000000000E+00 0. -1.
         24    2    1    2    0    0  0.63129997437E+02  0.52459566039E+02  0.35469159915E+02  0.12035641922E+03  0.80561800487E+02 0.  0.
         25    2    1    2    0    0 -0.31785904963E+02 -0.79574959203E+02  0.16068886119E+03  0.22093032585E+03  0.12508709318E+03 0.  0.
        -24    2    1    2    0    0 -0.31344092474E+02  0.27115393163E+02  0.33885895940E+04  0.33897989228E+04  0.80495988232E+02 0.  0.
        -11    1    3    3    0    0  0.78452058384E+01 -0.13348304832E+02  0.30571715832E+02  0.34268853285E+02  0.00000000000E+00 0.  1.
         12    1    3    3    0    0  0.55284791599E+02  0.65807870871E+02  0.48974440829E+01  0.86087565939E+02  0.00000000000E+00 0. -1.
         11    1    5    5    0    0  0.18722219610E+02  0.49127617553E+01  0.25604276886E+03  0.25677335575E+03  0.00000000000E+00 0. -1.
        -12    1    5    5    0    0 -0.50066312085E+02  0.22202631408E+02  0.31325468251E+04  0.31330255671E+04  0.00000000000E+00 0.  1.
          5    1    4    4  501    0  0.40842216466E+02 -0.64536433954E+02  0.93164613387E+02  0.12054109482E+03  0.41800000000E+01 0. -1.
         -5    1    4    4    0  501 -0.72628121429E+02 -0.15038525249E+02  0.67524247808E+02  0.10038923103E+03  0.41800000000E+01 0. -1.
</event>
<event>
11    1  0.6455215E-009  0.2320214E+03  0.7561462E-02  0.1033938E+00
         22   -1    0    0    0    0  0.00000000000E+00  0.00000000000E+00  0.30827702881E+03  0.30827702881E+03  0.00000000000E+00 0.  1.
         22   -1    0    0    0    0 -0.00000000000E+00 -0.00000000000E+00 -0.40623162343E+03  0.40623162343E+03  0.00000000000E+00 0.  1.
        -24    2    1    2    0    0  0.16684695613E+03  0.10470051029E+03 -0.25037972136E+03  0.33041795767E+03  0.87669368977E+02 0.  0.
         25    2    1    2    0    0 -0.14356477482E+03 -0.12831367496E+03  0.27587725098E+02  0.23124865002E+03  0.12505843358E+03 0.  0.
         24    2    1    2    0    0 -0.23282181305E+02  0.23613164672E+02  0.12483740165E+03  0.15284204455E+03  0.81710906358E+02 0.  0.
        -13    1    5    5    0    0 -0.24170515839E+02  0.45050502488E+02  0.12057641138E+03  0.13096729589E+03  0.00000000000E+00 0.  1.
         14    1    5    5    0    0  0.88833453462E+00 -0.21437337815E+02  0.42609902704E+01  0.21874748660E+02  0.00000000000E+00 0. -1.
         13    1    3    3    0    0  0.53965987084E+02 -0.50719373678E+00 -0.31104077666E+02  0.62290036562E+02  0.00000000000E+00 0. -1.
        -14    1    3    3    0    0  0.11288096904E+03  0.10520770403E+03 -0.21927564370E+03  0.26812792111E+03  0.00000000000E+00 0.  1.
          5    1    4    4  501    0 -0.39191012279E+02 -0.34938274947E+02 -0.48685791465E+02  0.71724453224E+02  0.41800000000E+01 0. -1.
         -5    1    4    4    0  501 -0.10437376254E+03 -0.93375400015E+02  0.76273516564E+02  0.15952419680E+03  0.41800000000E+01 0. -1.
</event>
<event>
11    1  0.6455215E-009  0.1964760E+03  0.7561462E-02  0.1057044E+00
         22   -1    0    0    0    0  0.00000000000E+00  0.00000000000E+00  0.62306511369E+03  0.62306511369E+03  0.00000000000E+00 0. -1.
         22   -1    0    0    0    0 -0.00000000000E+00 -0.00000000000E+00 -0.73539951958E+03  0.73539951958E+03  0.00000000000E+00 0. -1.
         24    2    1    2    0    0  0.12670710672E+03 -0.74826347128E+02 -0.46619967400E+03  0.49551945120E+03  0.80893246657E+02 0.  0.
         25    2    1    2    0    0 -0.12671759778E+03  0.10720505960E+03 -0.20824034948E+03  0.29421547834E+03  0.12509368549E+03 0.  0.
        -24    2    1    2    0    0  0.10491061339E-01 -0.32378712469E+02  0.56210561760E+03  0.56872970373E+03  0.80264372165E+02 0.  0.
        -11    1    3    3    0    0  0.44348723318E+02 -0.68384656967E+02 -0.17916222645E+03  0.19683082573E+03  0.00000000000E+00 0.  1.
         12    1    3    3    0    0  0.82358383405E+02 -0.64416901612E+01 -0.28703744755E+03  0.29868862547E+03  0.00000000000E+00 0. -1.
         11    1    5    5    0    0 -0.25605096864E+02 -0.32577168671E+02  0.49762466946E+03  0.49934677786E+03  0.00000000000E+00 0. -1.
        -12    1    5    5    0    0  0.25615587925E+02  0.19845620236E+00  0.64480948141E+02  0.69382925874E+02  0.00000000000E+00 0.  1.
          5    1    4    4  501    0 -0.95738839674E+02  0.43882649067E+02 -0.41749301147E+02  0.11336705367E+03  0.41800000000E+01 0.  1.
         -5    1    4    4    0  501 -0.30978758110E+02  0.63322410530E+02 -0.16649104834E+03  0.18084842467E+03  0.41800000000E+01 0.  1.
</event>
<event>
11    1  0.6455215E-009  0.1288963E+03  0.7561462E-02  0.1120632E+00
         22   -1    0    0    0    0  0.00000000000E+00  0.00000000000E+00  0.21698405962E+04  0.21698405962E+04  0.00000000000E+00 0.  1.
         22   -1    0    0    0    0 -0.00000000000E+00 -0.00000000000E+00 -0.23300963558E+03  0.23300963558E+03  0.00000000000E+00 0. -1.
         24    2    1    2    0    0 -0.11635037792E+02 -0.28181739478E+02 -0.19354169445E+03  0.21122415027E+03  0.78915585427E+02 0.  0.
         25    2    1    2    0    0  0.23108759055E+02  0.34717302063E+02  0.11617976354E+03  0.17574091913E+03  0.12509127625E+03 0.  0.
        -24    2    1    2    0    0 -0.11473721262E+02 -0.65355625852E+01  0.20141928916E+04  0.20158851624E+04  0.81520695160E+02 0.  0.
        -13    1    3    3    0    0  0.23122919662E+02  0.34254245915E+01 -0.17994513644E+02  0.29499245221E+02  0.00000000000E+00 0.  1.
         14    1    3    3    0    0 -0.34757957454E+02 -0.31607164069E+02 -0.17554718080E+03  0.18172490505E+03  0.00000000000E+00 0. -1.
         13    1    5    5    0    0  0.69482224078E+01 -0.41931877840E+02  0.97294326350E+03  0.97387122052E+03  0.00000000000E+00 0. -1.
        -14    1    5    5    0    0 -0.18421943670E+02  0.35396315255E+02  0.10412496281E+04  0.10420139419E+04  0.00000000000E+00 0.  1.
          5    1    4    4  501    0  0.55430991730E+02 -0.83760162518E+01  0.10695320730E+02  0.57224249912E+02  0.41800000000E+01 0. -1.
         -5    1    4    4    0  501 -0.32322232676E+02  0.43093318315E+02  0.10548444281E+03  0.11851666922E+03  0.41800000000E+01 0. -1.
</event>
<event>
11    1  0.6455215E-009  0.1371383E+03  0.7561462E-02  0.1110797E+00
         22   -1    0    0    0    0  0.00000000000E+00  0.00000000000E+00  0.38332894085E+03  0.38332894085E+03  0.00000000000E+00 0.  1.
         22   -1    0    0    0    0 -0.00000000000E+00 -0.00000000000E+00 -0.16967094532E+04  0.16967094532E+04  0.00000000000E+00 0.  1.
         24    2    1    2    0    0  0.58139705095E+02 -0.23095688244E+02 -0.13840475179E+04  0.13898774931E+04  0.11071710761E+03 0.  0.
         25    2    1    2    0    0 -0.37263845986E+02 -0.54842716055E+02 -0.28400351089E+03  0.31733364049E+03  0.12508528076E+03 0.  0.
        -24    2    1    2    0    0 -0.20875859109E+02  0.77938404299E+02  0.35467051645E+03  0.37282726044E+03  0.81846163813E+02 0.  0.
        -11    1    3    3    0    0  0.11083115015E+01  0.30008469800E+02 -0.81099471398E+03  0.81155046838E+03  0.00000000000E+00 0.  1.
         12    1    3    3    0    0  0.57031393594E+02 -0.53104158044E+02 -0.57305280389E+03  0.57832702471E+03  0.00000000000E+00 0. -1.
         11    1    5    5    0    0 -0.18265072927E+02 -0.27593953754E+01  0.15303906840E+02  0.23988262055E+02  0.00000000000E+00 0. -1.
        -12    1    5    5    0    0 -0.26107861819E+01  0.80697799674E+02  0.33936660961E+03  0.34883899839E+03  0.00000000000E+00 0.  1.
          5    1    4    4  501    0 -0.13267677122E+02 -0.40975983116E+02 -0.28598053568E+03  0.28923589272E+03  0.41800000000E+01 0.  1.
         -5    1    4    4    0  501 -0.23996168865E+02 -0.13866732939E+02  0.19770247883E+01  0.28097747767E+02  0.41800000000E+01 0.  1.
</event>
<event>
11    1  0.6455215E-009  0.1507385E+03  0.7561462E-02  0.1096127E+00
         22   -1    0    0    0    0  0.00000000000E+00  0.00000000000E+00  0.11612192463E+03  0.11612192463E+03  0.00000000000E+00 0.  1.
         22   -1    0    0    0    0 -0.00000000000E+00 -0.00000000000E+00 -0.36283102799E+03  0.36283102799E+03  0.00000000000E+00 0.  1.
         24    2    1    2    0    0 -0.17409500128E+02 -0.50039343360E+02 -0.16129932228E+03  0.18894804020E+03  0.82926859039E+02 0.  0.
         25    2    1    2    0    0 -0.65390636998E+02 -0.14472462322E+01 -0.82684411617E+02  0.16359146803E+03  0.12508967407E+03 0.  0.
        -24    2    1    2    0    0  0.82800137125E+02  0.51486589592E+02 -0.27253694718E+01  0.12641344439E+03  0.80412683505E+02 0.  0.
        -11    1    3    3    0    0 -0.21655472893E+00 -0.63635043936E+02 -0.15265254948E+03  0.16538520664E+03  0.00000000000E+00 0.  1.
         12    1    3    3    0    0 -0.17192945399E+02  0.13595700576E+02 -0.86467727978E+01  0.23562833561E+02  0.00000000000E+00 0. -1.
         13    1    5    5    0    0 -0.40593313174E+01  0.36088530916E+02 -0.10647130565E+02  0.37844704038E+02  0.00000000000E+00 0. -1.
        -14    1    5    5    0    0  0.86859468443E+02  0.15398058676E+02  0.79217610931E+01  0.88568740354E+02  0.00000000000E+00 0.  1.
          5    1    4    4  501    0  0.37089050290E+02 -0.75770848138E+01 -0.17520438588E+02  0.41921927842E+02  0.41800000000E+01 0. -1.
         -5    1    4    4    0  501 -0.10247968729E+03  0.61298385816E+01 -0.65163973029E+02  0.12166954018E+03  0.41800000000E+01 0. -1.
</event>
<event>
11    1  0.6455215E-009  0.1324408E+03  0.7561462E-02  0.1116306E+00
         22   -1    0    0    0    0  0.00000000000E+00  0.00000000000E+00  0.29453507188E+04  0.29453507188E+04  0.00000000000E+00 0.  1.
         22   -1    0    0    0    0 -0.00000000000E+00 -0.00000000000E+00 -0.64745340207E+03  0.64745340207E+03  0.00000000000E+00 0. -1.
        -24    2    1    2    0    0 -0.10314415692E+02  0.36035756393E+02 -0.35290668078E+03  0.36396273125E+03  0.80751355957E+02 0.  0.
         25    2    1    2    0    0  0.20683347513E+02 -0.58483012083E+02 -0.27145864933E+03  0.30526197502E+03  0.12508801515E+03 0.  0.
         24    2    1    2    0    0 -0.10368931821E+02  0.22447255690E+02  0.29222626468E+04  0.29235794146E+04  0.84179702876E+02 0.  0.
        -13    1    5    5    0    0  0.18858596985E+02 -0.24672115525E+02  0.12952595728E+04  0.12956317844E+04  0.00000000000E+00 0.  1.
         14    1    5    5    0    0 -0.29227528806E+02  0.47119371215E+02  0.16270030740E+04  0.16279476302E+04  0.00000000000E+00 0. -1.
         13    1    3    3    0    0 -0.17577042806E+02  0.42159484037E+02 -0.35138560229E+03  0.35434194788E+03  0.00000000000E+00 0. -1.
        -14    1    3    3    0    0  0.72626271134E+01 -0.61237276444E+01 -0.15210784855E+01  0.96207833678E+01  0.00000000000E+00 0.  1.
          5    1    4    4  501    0 -0.32435701809E+02  0.24388126294E+02 -0.70542638360E+02  0.81489825639E+02  0.41800000000E+01 0.  1.
         -5    1    4    4    0  501  0.53119049322E+02 -0.82871138377E+02 -0.20091601097E+03  0.22377214938E+03  0.41800000000E+01 0.  1.
</event>
<event>
11    1  0.6455215E-009  0.1620860E+03  0.7561462E-02  0.1085132E+00
         22   -1    0    0    0    0  0.00000000000E+00  0.00000000000E+00  0.78537921700E+02  0.78537921700E+02  0.00000000000E+00 0.  1.
         22   -1    0    0    0    0 -0.00000000000E+00 -0.00000000000E+00 -0.27790460903E+04  0.27790460903E+04  0.00000000000E+00 0.  1.
         24    2    1    2    0    0  0.96088992974E+02 -0.81637999028E+01 -0.20753061394E+04  0.20790981070E+04  0.80334452401E+02 0.  0.
         25    2    1    2    0    0 -0.15954980830E+03 -0.59921779188E+01 -0.63242214617E+03  0.66415095385E+03  0.12508665399E+03 0.  0.
        -24    2    1    2    0    0  0.63460815325E+02  0.14155977822E+02  0.72201169830E+01  0.11433495110E+03  0.93769313556E+02 0.  0.
        -11    1    3    3    0    0  0.51872582103E+02  0.35505141578E+02 -0.11368663079E+04  0.11386028200E+04  0.00000000000E+00 0.  1.
         12    1    3    3    0    0  0.44216410872E+02 -0.43668941481E+02 -0.93843983154E+03  0.94049528699E+03  0.00000000000E+00 0. -1.
         13    1    5    5    0    0  0.36787458892E+02  0.54476535114E+02  0.29173006679E+01  0.65799093101E+02  0.00000000000E+00 0. -1.
        -14    1    5    5    0    0  0.26673356434E+02 -0.40320557293E+02  0.43028163151E+01  0.48535858003E+02  0.00000000000E+00 0.  1.
          5    1    4    4  501    0 -0.78198269237E+02 -0.17106557264E+02 -0.51264132661E+03  0.51887012418E+03  0.41800000000E+01 0. -1.
         -5    1    4    4    0  501 -0.81351539062E+02  0.11114379346E+02 -0.11978081956E+03  0.14528082967E+03  0.41800000000E+01 0. -1.
</event>
<event>
11    1  0.6455215E-009  0.1792415E+03  0.7561462E-02  0.1070258E+00
         22   -1    0    0    0    0  0.00000000000E+00  0.00000000000E+00  0.60411188532E+03  0.60411188532E+03  0.00000000000E+00 0. -1.
         22   -1    0    0    0    0 -0.00000000000E+00 -0.00000000000E+00 -0.68895572344E+03  0.68895572344E+03  0.00000000000E+00 0. -1.
         24    2    1    2    0    0  0.67905523950E+02  0.77078068647E+02 -0.59414985513E+03  0.60859715725E+03  0.82609083093E+02 0.  0.
         25    2    1    2    0    0 -0.32761252137E+02  0.59730476372E+02 -0.75670209516E+01  0.14263681577E+03  0.12508785696E+03 0.  0.
        -24    2    1    2    0    0 -0.35144271814E+02 -0.13680854502E+03  0.51687303796E+03  0.54183363575E+03  0.80462746782E+02 0.  0.
        -11    1    3    3    0    0  0.14874677884E+02 -0.17753243064E+02 -0.10676500983E+03  0.10924834555E+03  0.00000000000E+00 0.  1.
         12    1    3    3    0    0  0.53030846067E+02  0.94831311711E+02 -0.48738484530E+03  0.49934881170E+03  0.00000000000E+00 0. -1.
         11    1    5    5    0    0  0.33549513775E+01 -0.12040314661E+03  0.39664895670E+03  0.41453415814E+03  0.00000000000E+00 0. -1.
        -12    1    5    5    0    0 -0.38499223191E+02 -0.16405398408E+02  0.12022408127E+03  0.12729947761E+03  0.00000000000E+00 0.  1.
          5    1    4    4  501    0 -0.43126990481E+02 -0.28869524112E+02 -0.11215298512E+02  0.53260135666E+02  0.41800000000E+01 0.  1.
         -5    1    4    4    0  501  0.10365738344E+02  0.88600000484E+02  0.36482775609E+01  0.89376680104E+02  0.41800000000E+01 0.  1.
</event>
<event>
11    1  0.6455215E-009  0.1395221E+03  0.7561462E-02  0.1108093E+00
         22   -1    0    0    0    0  0.00000000000E+00  0.00000000000E+00  0.14892137939E+04  0.14892137939E+04  0.00000000000E+00 0. -1.
         22   -1    0    0    0    0 -0.00000000000E+00 -0.00000000000E+00 -0.14402536652E+03  0.14402536652E+03  0.00000000000E+00 0.  1.
        -24    2    1    2    0    0 -0.41575638981E+02 -0.47149096366E+02 -0.10966184352E+03  0.14973587083E+03  0.80271664026E+02 0.  0.
         25    2    1    2    0    0  0.30585806742E+02  0.30988387213E+02  0.33132749342E+03  0.35682141084E+03  0.12509132514E+03 0.  0.
         24    2    1    2    0    0  0.10989832239E+02  0.16160709153E+02  0.11235227775E+04  0.11266818787E+04  0.82016336487E+02 0.  0.
        -13    1    5    5    0    0  0.56049227048E+01  0.25919422107E+02  0.11195988155E+03  0.11505757984E+03  0.00000000000E+00 0.  1.
         14    1    5    5    0    0  0.53849095341E+01 -0.97587129540E+01  0.10115628959E+04  0.10116242989E+04  0.00000000000E+00 0. -1.
         11    1    3    3    0    0 -0.47032346630E+02 -0.35599584656E+01 -0.22780433241E+02  0.52379987328E+02  0.00000000000E+00 0. -1.
        -12    1    3    3    0    0  0.54567076491E+01 -0.43589137901E+02 -0.86881410279E+02  0.97355883507E+02  0.00000000000E+00 0.  1.
          5    1    4    4  501    0 -0.12834343848E+02 -0.75782433907E+01 -0.43915783453E+01  0.16090634396E+02  0.41800000000E+01 0.  1.
         -5    1    4    4    0  501  0.43420150590E+02  0.38566630604E+02  0.33571907176E+03  0.34073077645E+03  0.41800000000E+01 0.  1.
</event>
<event>
11    1  0.6455215E-009  0.1534730E+03  0.7561462E-02  0.1093382E+00
         22   -1    0    0    0    0  0.00000000000E+00  0.00000000000E+00  0.11363782226E+04  0.11363782226E+04  0.00000000000E+00 0.  1.
         22   -1    0    0    0    0 -0.00000000000E+00 -0.00000000000E+00 -0.73867216963E+02  0.73867216963E+02  0.00000000000E+00 0. -1.
        -24    2    1    2    0    0 -0.35344113087E+02  0.80798534764E+02  0.10602229333E+02  0.11988379575E+03  0.80511537482E+02 0.  0.
         25    2    1    2    0    0  0.98155160374E+02 -0.56953583253E+02  0.48078276478E+03  0.50958521874E+03  0.12508749779E+03 0.  0.
         24    2    1    2    0    0 -0.62811047287E+02 -0.23844951511E+02  0.57112601148E+03  0.58077642502E+03  0.81255925893E+02 0.  0.
        -11    1    5    5    0    0 -0.59753266105E+02 -0.18793183867E+02  0.57144010142E+03  0.57486296287E+03  0.00000000000E+00 0.  1.
         12    1    5    5    0    0 -0.30577811819E+01 -0.50517676438E+01 -0.31408993816E+00  0.59134621477E+01  0.00000000000E+00 0. -1.
         11    1    3    3    0    0 -0.36935125520E+02  0.96409138509E+02  0.55188907203E+01  0.10338947548E+03  0.00000000000E+00 0. -1.
        -12    1    3    3    0    0  0.15910124329E+01 -0.15610603745E+02  0.50833386127E+01  0.16494320274E+02  0.00000000000E+00 0.  1.
          5    1    4    4  501    0  0.78200074788E+01 -0.17985687563E+02  0.12991444317E+01  0.20094716976E+02  0.41800000000E+01 0.  1.
         -5    1    4    4    0  501  0.90335152895E+02 -0.38967895690E+02  0.47948362034E+03  0.48949050177E+03  0.41800000000E+01 0.  1.
</event>
<event>
11    1  0.6455215E-009  0.1457091E+03  0.7561462E-02  0.1101346E+00
         22   -1    0    0    0    0  0.00000000000E+00  0.00000000000E+00  0.81165338807E+02  0.81165338807E+02  0.00000000000E+00 0.  1.
         22   -1    0    0    0    0 -0.00000000000E+00 -0.00000000000E+00 -0.20172150852E+04  0.20172150852E+04  0.00000000000E+00 0. -1.
        -24    2    1    2    0    0  0.70038954968E+02  0.85417178978E+01 -0.12785063246E+04  0.12829436125E+04  0.79921677491E+02 0.  0.
         25    2    1    2    0    0 -0.93199327399E+02  0.24664207109E+02 -0.69898081218E+03  0.71660063735E+03  0.12509140624E+03 0.  0.
         24    2    1    2    0    0  0.23160372431E+02 -0.33205925007E+02  0.41437390426E+02  0.98836174166E+02  0.80078059991E+02 0.  0.
        -11    1    5    5    0    0 -0.10916601765E+02 -0.48949811038E+02  0.33938406287E+02  0.60556350750E+02  0.00000000000E+00 0.  1.
         12    1    5    5    0    0  0.34076974196E+02  0.15743886032E+02  0.74989841386E+01  0.38279823417E+02  0.00000000000E+00 0. -1.
         11    1    3    3    0    0 -0.58544071070E+01 -0.23017561238E+02 -0.35092660985E+03  0.35172939557E+03  0.00000000000E+00 0. -1.
        -12    1    3    3    0    0  0.75893362075E+02  0.31559279136E+02 -0.92757971479E+03  0.93121421692E+03  0.00000000000E+00 0.  1.
          5    1    4    4  501    0 -0.51728228522E+02  0.18005175850E+02 -0.85218864452E+02  0.10138897002E+03  0.41800000000E+01 0. -1.
         -5    1    4    4    0  501 -0.41471098877E+02  0.66590312595E+01 -0.61376194772E+03  0.61521166733E+03  0.41800000000E+01 0. -1.
</event>
<event>
11    1  0.6455215E-009  0.1474459E+03  0.7561462E-02  0.1099517E+00
         22   -1    0    0    0    0  0.00000000000E+00  0.00000000000E+00  0.16067953091E+03  0.16067953091E+03  0.00000000000E+00 0.  1.
         22   -1    0    0    0    0 -0.00000000000E+00 -0.00000000000E+00 -0.41674743470E+03  0.41674743470E+03  0.00000000000E+00 0. -1.
        -24    2    1    2    0    0 -0.44452819643E+02  0.61947129382E+02 -0.19478298368E+03  0.22436319309E+03  0.81147591905E+02 0.  0.
         25    2    1    2    0    0  0.61828301618E+02 -0.55268972729E+02 -0.16286816245E+03  0.22147372081E+03  0.12508865833E+03 0.  0.
         24    2    1    2    0    0 -0.17375481975E+02 -0.66781566527E+01  0.10158324233E+03  0.13159005170E+03  0.81549257720E+02 0.  0.
        -11    1    5    5    0    0 -0.50286378725E+02 -0.14698283771E+01  0.59750558189E+02  0.78108959055E+02  0.00000000000E+00 0.  1.
         12    1    5    5    0    0  0.32910896750E+02 -0.52083282756E+01  0.41832684143E+02  0.53481092649E+02  0.00000000000E+00 0. -1.
         13    1    3    3    0    0 -0.19243485277E+01  0.62075301064E+02 -0.75712727598E+02  0.97925804770E+02  0.00000000000E+00 0. -1.
        -14    1    3    3    0    0 -0.42528471115E+02 -0.12817168234E+00 -0.11907025608E+03  0.12643738832E+03  0.00000000000E+00 0.  1.
          5    1    4    4  501    0  0.66462008109E+02 -0.16885825217E+02 -0.16869937669E+03  0.18215180951E+03  0.41800000000E+01 0.  1.
         -5    1    4    4    0  501 -0.46337064918E+01 -0.38383147513E+02  0.58312142312E+01  0.39321911299E+02  0.41800000000E+01 0.  1.
</event>
<event>
11    1  0.6455215E-009  0.1342367E+03  0.7561462E-02  0.1114170E+00
         22   -1    0    0    0    0  0.00000000000E+00  0.00000000000E+00  0.15859627171E+03  0.15859627171E+03  0.00000000000E+00 0. -1.
         22   -1    0    0    0    0 -0.00000000000E+00 -0.00000000000E+00 -0.38951765189E+03  0.38951765189E+03  0.00000000000E+00 0.  1.
         24    2    1    2    0    0  0.28843202198E+02  0.20972805775E+02 -0.22967609206E+03  0.24597021844E+03  0.80488832783E+02 0.  0.
         25    2    1    2    0    0  0.19545216826E+02  0.11012636211E+01 -0.10194141542E+03  0.16254780667E+03  0.12508600638E+03 0.  0.
        -24    2    1    2    0    0 -0.48388419024E+02 -0.22074069396E+02  0.10069612731E+03  0.13959589849E+03  0.80737854717E+02 0.  0.
        -13    1    3    3    0    0  0.22462717063E+02 -0.12919844352E+02 -0.19621072829E+03  0.19791449147E+03  0.00000000000E+00 0.  1.
         14    1    3    3    0    0  0.63804851346E+01  0.33892650127E+02 -0.33465363767E+02  0.48055726976E+02  0.00000000000E+00 0. -1.
         13    1    5    5    0    0 -0.29380097383E+02 -0.39398269785E+02  0.10264433069E+03  0.11380365727E+03  0.00000000000E+00 0. -1.
        -14    1    5    5    0    0 -0.19008321641E+02  0.17324200389E+02 -0.19482033840E+01  0.25792241220E+02  0.00000000000E+00 0.  1.
          5    1    4    4  501    0  0.27320019694E+02  0.13839869891E+02 -0.12829988655E+03  0.13197067388E+03  0.41800000000E+01 0. -1.
         -5    1    4    4    0  501 -0.77748028678E+01 -0.12738606270E+02  0.26358471130E+02  0.30577132790E+02  0.41800000000E+01 0. -1.
</event>
<event>
11    1  0.1017160E-008  0.2191373E+03  0.7561462E-02  0.1041759E+00
         22   -1    0    0    0    0  0.00000000000E+00  0.00000000000E+00  0.76668866734E+03  0.76668866734E+03  0.00000000000E+00 0. -1.
         22   -1    0    0    0    0 -0.00000000000E+00 -0.00000000000E+00 -0.76117674843E+03  0.76117674843E+03  0.00000000000E+00 0. -1.
        -24    2    1    2    0    0  0.84028577350E+02  0.37134369341E+02 -0.63803394847E+03  0.64903011058E+03  0.75584402105E+02 0.  0.
         25    2    1    2    0    0  0.55892463951E+02  0.93606322366E+02 -0.34330664896E+02  0.16944887341E+03  0.12509282567E+03 0.  0.
         24    2    1    2    0    0 -0.13992104130E+03 -0.13074069171E+03  0.67787653227E+03  0.70938643179E+03  0.83913588472E+02 0.  0.
        -11    1    5    5    0    0 -0.61020861329E+02 -0.40394786598E+02  0.13647897713E+03  0.15486056793E+03  0.00000000000E+00 0.  1.
         12    1    5    5    0    0 -0.78900179972E+02 -0.90345905108E+02  0.54139755515E+03  0.55452586386E+03  0.00000000000E+00 0. -1.
         13    1    3    3    0    0  0.25373805875E+02  0.24220604769E+02 -0.45593557991E+03  0.45728297667E+03  0.00000000000E+00 0. -1.
        -14    1    3    3    0    0  0.58654771475E+02  0.12913764572E+02 -0.18209836855E+03  0.19174713391E+03  0.00000000000E+00 0.  1.
          5    1    4    4  501    0  0.59297843224E+01 -0.29203166333E+02 -0.19765895006E+02  0.36002087042E+02  0.41800000000E+01 0. -1.
         -5    1    4    4    0  501  0.49962679628E+02  0.12280948870E+03 -0.14564769890E+02  0.13344678637E+03  0.41800000000E+01 0. -1.
</event>
<event>
11    1  0.6455215E-009  0.1281231E+03  0.7561462E-02  0.1121597E+00
         22   -1    0    0    0    0  0.00000000000E+00  0.00000000000E+00  0.86199396692E+03  0.86199396692E+03  0.00000000000E+00 0.  1.
         22   -1    0    0    0    0 -0.00000000000E+00 -0.00000000000E+00 -0.53647830377E+02  0.53647830377E+02  0.00000000000E+00 0. -1.
        -24    2    1    2    0    0 -0.16034836235E+01  0.19787852414E+02  0.13338194131E+02  0.81070889931E+02  0.77462581345E+02 0.  0.
         25    2    1    2    0    0  0.22836959121E+02  0.92423026253E+00  0.22735168832E+03  0.26049647465E+03  0.12508893724E+03 0.  0.
         24    2    1    2    0    0 -0.21233475497E+02 -0.20712082676E+02  0.56765625409E+03  0.57407443272E+03  0.80299319044E+02 0.  0.
        -11    1    5    5    0    0 -0.10363038378E+00  0.81406492242E+01  0.47008861615E+03  0.47015910918E+03  0.00000000000E+00 0.  1.
         12    1    5    5    0    0 -0.21129845113E+02 -0.28852731900E+02  0.97567637941E+02  0.10391532354E+03  0.00000000000E+00 0. -1.
         11    1    3    3    0    0  0.66146628631E+01  0.19384112481E+02 -0.30350082059E+02  0.36614547143E+02  0.00000000000E+00 0. -1.
        -12    1    3    3    0    0 -0.82181464865E+01  0.40373993228E+00  0.43688276190E+02  0.44456342788E+02  0.00000000000E+00 0.  1.
          5    1    4    4  501    0  0.27598693079E+02 -0.58753144511E+02  0.14165767905E+03  0.15587812638E+03  0.41800000000E+01 0. -1.
         -5    1    4    4    0  501 -0.47617339584E+01  0.59677374774E+02  0.85694009270E+02  0.10461834827E+03  0.41800000000E+01 0. -1.
</event>
<event>
11    1  0.6455215E-009  0.2425648E+03  0.7561462E-02  0.1027936E+00
         22   -1    0    0    0    0  0.00000000000E+00  0.00000000000E+00  0.10033836981E+04  0.10033836981E+04  0.00000000000E+00 0.  1.
         22   -1    0    0    0    0 -0.00000000000E+00 -0.00000000000E+00 -0.33641305838E+03  0.33641305838E+03  0.00000000000E+00 0. -1.
        -24    2    1    2    0    0  0.37771782928E+02 -0.42934741424E+01 -0.24497457382E+03  0.26110875775E+03  0.81976216371E+02 0.  0.
         25    2    1    2    0    0 -0.14127500894E+03 -0.17235536883E+03  0.17553060113E+03  0.31003801891E+03  0.12509028708E+03 0.  0.
         24    2    1    2    0    0  0.10350322601E+03  0.17664884298E+03  0.73641461237E+03  0.76864997978E+03  0.81231635384E+02 0.  0.
        -11    1    5    5    0    0  0.75250516732E+02  0.17173318289E+03  0.67985171110E+03  0.70523278105E+03  0.00000000000E+00 0.  1.
         12    1    5    5    0    0  0.28252709276E+02  0.49156600832E+01  0.56562901271E+02  0.63417198737E+02  0.00000000000E+00 0. -1.
         11    1    3    3    0    0  0.41184378491E+02 -0.37286311728E+02 -0.17625193247E+03  0.18480034030E+03  0.00000000000E+00 0. -1.
        -12    1    3    3    0    0 -0.34125955634E+01  0.32992837586E+02 -0.68722641346E+02  0.76308417452E+02  0.00000000000E+00 0.  1.
          5    1    4    4  501    0 -0.58945528865E+02 -0.84981452719E+02  0.15764579585E+03  0.18858974529E+03  0.41800000000E+01 0.  1.
         -5    1    4    4    0  501 -0.82329480072E+02 -0.87373916116E+02  0.17884805284E+02  0.12144827362E+03  0.41800000000E+01 0.  1.
</event>
<event>
11    1  0.6455215E-009  0.1806853E+03  0.7561462E-02  0.1069090E+00
         22   -1    0    0    0    0  0.00000000000E+00  0.00000000000E+00  0.28630438521E+04  0.28630438521E+04  0.00000000000E+00 0. -1.
         22   -1    0    0    0    0 -0.00000000000E+00 -0.00000000000E+00 -0.92286173565E+03  0.92286173565E+03  0.00000000000E+00 0.  1.
         24    2    1    2    0    0  0.85300133452E+02  0.63644961972E+02 -0.90033919920E+03  0.91021995070E+03  0.81011672537E+02 0.  0.
         25    2    1    2    0    0 -0.15420608674E+03 -0.15494652763E+03  0.10535138231E+04  0.10832025041E+04  0.12509334871E+03 0.  0.
        -24    2    1    2    0    0  0.68905953293E+02  0.91301565663E+02  0.17870074926E+04  0.17924831330E+04  0.80721725774E+02 0.  0.
        -13    1    3    3    0    0  0.85484374828E+02  0.19646149668E+02 -0.66989168996E+03  0.67560966972E+03  0.00000000000E+00 0.  1.
         14    1    3    3    0    0 -0.18424137557E+00  0.43998812304E+02 -0.23044750924E+03  0.23461028099E+03  0.00000000000E+00 0. -1.
         13    1    5    5    0    0  0.85365347483E+02  0.89081755063E+02  0.15676609503E+04  0.15725087144E+04  0.00000000000E+00 0. -1.
        -14    1    5    5    0    0 -0.16459394190E+02  0.22198105999E+01  0.21934654229E+03  0.21997441858E+03  0.00000000000E+00 0.  1.
          5    1    4    4  501    0 -0.12838943805E+03 -0.87532048617E+02  0.46570221776E+03  0.49096001402E+03  0.41800000000E+01 0. -1.
         -5    1    4    4    0  501 -0.25816648697E+02 -0.67414479018E+02  0.58781160533E+03  0.59224249011E+03  0.41800000000E+01 0. -1.
</event>
<event>
11    1  0.6455215E-009  0.1585256E+03  0.7561462E-02  0.1088472E+00
         22   -1    0    0    0    0  0.00000000000E+00  0.00000000000E+00  0.26512215580E+03  0.26512215580E+03  0.00000000000E+00 0.  1.
         22   -1    0    0    0    0 -0.00000000000E+00 -0.00000000000E+00 -0.19352496597E+04  0.19352496597E+04  0.00000000000E+00 0. -1.
        -24    2    1    2    0    0 -0.80858609874E+02 -0.34007127490E+02 -0.12068101585E+04  0.12127247204E+04  0.81338116804E+02 0.  0.
         25    2    1    2    0    0  0.11915283654E+03  0.68691571402E+02 -0.70418825976E+03  0.72831707874E+03  0.12509489022E+03 0.  0.
         24    2    1    2    0    0 -0.38294226670E+02 -0.34684443911E+02  0.24087091444E+03  0.25933001631E+03  0.81017291316E+02 0.  0.
        -11    1    5    5    0    0  0.19067142254E+02 -0.26409244317E+02  0.13239284070E+03  0.13634100032E+03  0.00000000000E+00 0.  1.
         12    1    5    5    0    0 -0.57361368924E+02 -0.82751995938E+01  0.10847807374E+03  0.12298901599E+03  0.00000000000E+00 0. -1.
         13    1    3    3    0    0 -0.89472598510E+02 -0.36417666704E+02 -0.11877304360E+04  0.11916522903E+04  0.00000000000E+00 0. -1.
        -14    1    3    3    0    0  0.86139886362E+01  0.24105392139E+01 -0.19079722513E+02  0.21072430109E+02  0.00000000000E+00 0.  1.
          5    1    4    4  501    0  0.80001281192E+02  0.10498897681E+03 -0.48173817683E+03  0.49951179531E+03  0.41800000000E+01 0.  1.
         -5    1    4    4    0  501  0.39151555352E+02 -0.36297405411E+02 -0.22245008294E+03  0.22880528343E+03  0.41800000000E+01 0.  1.
</event>
<event>
11    1  0.6455215E-009  0.1645347E+03  0.7561462E-02  0.1082888E+00
         22   -1    0    0    0    0  0.00000000000E+00  0.00000000000E+00  0.17668077539E+03  0.17668077539E+03  0.00000000000E+00 0.  1.
         22   -1    0    0    0    0 -0.00000000000E+00 -0.00000000000E+00 -0.80603828751E+03  0.80603828751E+03  0.00000000000E+00 0.  1.
        -24    2    1    2    0    0  0.54403395814E+02 -0.63431246232E+01 -0.54860972655E+03  0.55743450169E+03  0.82223031437E+02 0.  0.
         25    2    1    2    0    0 -0.90665008855E+02  0.10312719411E+03 -0.18002485130E+03  0.25867440226E+03  0.12509251497E+03 0.  0.
         24    2    1    2    0    0  0.36261613042E+02 -0.96784069487E+02  0.99277065736E+02  0.16661015896E+03  0.84976164897E+02 0.  0.
        -13    1    5    5    0    0  0.60462968198E+02 -0.41523711002E+02  0.58064235705E+02  0.93549155884E+02  0.00000000000E+00 0.  1.
         14    1    5    5    0    0 -0.24201355156E+02 -0.55260358485E+02  0.41212830031E+02  0.73061003076E+02  0.00000000000E+00 0. -1.
         13    1    3    3    0    0  0.57050721226E+02  0.91284805779E+01 -0.19260868983E+03  0.20108759621E+03  0.00000000000E+00 0. -1.
        -14    1    3    3    0    0 -0.26473254120E+01 -0.15471605201E+02 -0.35600103672E+03  0.35634690548E+03  0.00000000000E+00 0.  1.
          5    1    4    4  501    0  0.28951421827E+02  0.22952662713E+02 -0.16312414280E+02  0.40602669999E+02  0.41800000000E+01 0. -1.
         -5    1    4    4    0  501 -0.11961643068E+03  0.80174531397E+02 -0.16371243702E+03  0.21807173226E+03  0.41800000000E+01 0. -1.
</event>
<event>
11    1  0.6455215E-009  0.1479953E+03  0.7561462E-02  0.1098945E+00
         22   -1    0    0    0    0  0.00000000000E+00  0.00000000000E+00  0.70497648833E+03  0.70497648833E+03  0.00000000000E+00 0. -1.
         22   -1    0    0    0    0 -0.00000000000E+00 -0.00000000000E+00 -0.20328128164E+04  0.20328128164E+04  0.00000000000E+00 0.  1.
         24    2    1    2    0    0 -0.26013389163E+02 -0.27508549416E+02 -0.19941360840E+04  0.19961856542E+04  0.82128118851E+02 0.  0.
         25    2    1    2    0    0  0.92315501781E+02 -0.12739582946E+02  0.16146154035E+03  0.22450359644E+03  0.12509031522E+03 0.  0.
        -24    2    1    2    0    0 -0.66302112618E+02  0.40248132362E+02  0.50483821550E+03  0.51710005414E+03  0.80715301254E+02 0.  0.
        -13    1    3    3    0    0 -0.53237172819E+02 -0.82146882812E+01 -0.14713966938E+04  0.14723823920E+04  0.00000000000E+00 0.  1.
         14    1    3    3    0    0  0.27223783656E+02 -0.19293861135E+02 -0.52273939013E+03  0.52380326218E+03  0.00000000000E+00 0. -1.
         11    1    5    5    0    0 -0.44533710562E+02  0.64571512472E+02  0.32570700166E+03  0.33501907786E+03  0.00000000000E+00 0. -1.
        -12    1    5    5    0    0 -0.21768402056E+02 -0.24323380111E+02  0.17913121385E+03  0.18208097628E+03  0.00000000000E+00 0.  1.
          5    1    4    4  501    0  0.53683834544E+02  0.47917557415E+02  0.37799028018E+02  0.81389712612E+02  0.41800000000E+01 0. -1.
         -5    1    4    4    0  501  0.38631667237E+02 -0.60657140361E+02  0.12366251233E+03  0.14311388383E+03  0.41800000000E+01 0. -1.
</event>
<event>
11    1  0.6455215E-009  0.1838971E+03  0.7561462E-02  0.1066533E+00
         22   -1    0    0    0    0  0.00000000000E+00  0.00000000000E+00  0.49743863528E+03  0.49743863528E+03  0.00000000000E+00 0.  1.
         22   -1    0    0    0    0 -0.00000000000E+00 -0.00000000000E+00 -0.31269833675E+03  0.31269833675E+03  0.00000000000E+00 0.  1.
        -24    2    1    2    0    0  0.30763972316E+02  0.69034448120E+01 -0.22861608653E+03  0.24540488144E+03  0.83451550438E+02 0.  0.
         25    2    1    2    0    0  0.31866335079E+02 -0.12819767092E+03  0.85910179310E+02  0.20118893998E+03  0.12508526900E+03 0.  0.
         24    2    1    2    0    0 -0.62630307395E+02  0.12129422611E+03  0.32744620575E+03  0.36354315061E+03  0.79421407741E+02 0.  0.
        -13    1    5    5    0    0 -0.33029840950E+02  0.11599776156E+03  0.20865370000E+03  0.24100377093E+03  0.00000000000E+00 0.  1.
         14    1    5    5    0    0 -0.29600466445E+02  0.52964645469E+01  0.11879250575E+03  0.12253937968E+03  0.00000000000E+00 0. -1.
         13    1    3    3    0    0  0.13929711659E+02  0.19830052721E+02 -0.10756069900E+02  0.26513409768E+02  0.00000000000E+00 0. -1.
        -14    1    3    3    0    0  0.16834260657E+02 -0.12926607909E+02 -0.21786001663E+03  0.21889147167E+03  0.00000000000E+00 0.  1.
          5    1    4    4  501    0 -0.42400476680E+02 -0.82404169856E+02  0.30084947742E+02  0.97523454168E+02  0.41800000000E+01 0. -1.
         -5    1    4    4    0  501  0.74266811758E+02 -0.45793501061E+02  0.55825231568E+02  0.10366548581E+03  0.41800000000E+01 0. -1.
</event>
<event>
11    1  0.6455215E-009  0.1474041E+03  0.7561462E-02  0.1099561E+00
         22   -1    0    0    0    0  0.00000000000E+00  0.00000000000E+00  0.50287334088E+03  0.50287334088E+03  0.00000000000E+00 0. -1.
         22   -1    0    0    0    0 -0.00000000000E+00 -0.00000000000E+00 -0.28206734132E+03  0.28206734132E+03  0.00000000000E+00 0.  1.
         24    2    1    2    0    0  0.80704922207E+01  0.31100340567E+02 -0.23197040817E+03  0.24784367834E+03  0.81140955120E+02 0.  0.
         25    2    1    2    0    0 -0.33625022474E+02 -0.96785810139E+02  0.17032076528E+03  0.23485114736E+03  0.12509101947E+03 0.  0.
        -24    2    1    2    0    0  0.25554530253E+02  0.65685469572E+02  0.28245564245E+03  0.30224585649E+03  0.81263478163E+02 0.  0.
        -13    1    3    3    0    0 -0.34798960365E+02  0.26524403957E+02 -0.12872733949E+03  0.13596043387E+03  0.00000000000E+00 0.  1.
         14    1    3    3    0    0  0.42869452586E+02  0.45759366099E+01 -0.10324306869E+03  0.11188324447E+03  0.00000000000E+00 0. -1.
         11    1    5    5    0    0  0.40108445851E+02  0.76636266957E+02  0.25523782839E+03  0.26949611108E+03  0.00000000000E+00 0. -1.
        -12    1    5    5    0    0 -0.14553915598E+02 -0.10950797385E+02  0.27217814058E+02  0.32749745414E+02  0.00000000000E+00 0.  1.
          5    1    4    4  501    0 -0.78678030260E+02 -0.70957066177E+02  0.89816761331E+02  0.13895920517E+03  0.41800000000E+01 0. -1.
         -5    1    4    4    0  501  0.45053007786E+02 -0.25828743962E+02  0.80504003951E+02  0.95891942193E+02  0.41800000000E+01 0. -1.
</event>
<event>
11    1  0.6455215E-009  0.1298691E+03  0.7561462E-02  0.1119430E+00
         22   -1    0    0    0    0  0.00000000000E+00  0.00000000000E+00  0.93214823669E+02  0.93214823669E+02  0.00000000000E+00 0. -1.
         22   -1    0    0    0    0 -0.00000000000E+00 -0.00000000000E+00 -0.24237333756E+04  0.24237333756E+04  0.00000000000E+00 0.  1.
        -24    2    1    2    0    0  0.24623156402E+02 -0.18811018954E+02 -0.22263915503E+04  0.22280395817E+04  0.79880463185E+02 0.  0.
         25    2    1    2    0    0  0.29398380737E+01 -0.10137644544E+02 -0.13994838256E+03  0.18800004460E+03  0.12508817890E+03 0.  0.
         24    2    1    2    0    0 -0.27562994476E+02  0.28948663499E+02  0.35821380907E+02  0.10090857293E+03  0.85449546392E+02 0.  0.
        -11    1    5    5    0    0  0.67934269733E+01  0.51298906859E+01 -0.25392481403E+02  0.26781421551E+02  0.00000000000E+00 0.  1.
         12    1    5    5    0    0 -0.34356421449E+02  0.23818772813E+02  0.61213862310E+02  0.74127151382E+02  0.00000000000E+00 0. -1.
         13    1    3    3    0    0  0.47869869049E+02 -0.12378534058E+02 -0.85011237457E+03  0.85154906017E+03  0.00000000000E+00 0. -1.
        -14    1    3    3    0    0 -0.23246712646E+02 -0.64324848965E+01 -0.13762791757E+04  0.13764905216E+04  0.00000000000E+00 0.  1.
          5    1    4    4  501    0  0.56240340480E+02 -0.15157244812E+02 -0.11459497950E+03  0.12861648298E+03  0.41800000000E+01 0. -1.
         -5    1    4    4    0  501 -0.53300502406E+02  0.50196002673E+01 -0.25353403067E+02  0.59383561620E+02  0.41800000000E+01 0. -1.
</event>
<event>
11    1  0.6455215E-009  0.1530968E+03  0.7561462E-02  0.1093756E+00
         22   -1    0    0    0    0  0.00000000000E+00  0.00000000000E+00  0.10161044011E+03  0.10161044011E+03  0.00000000000E+00 0.  1.
         22   -1    0    0    0    0 -0.00000000000E+00 -0.00000000000E+00 -0.53763832467E+03  0.53763832467E+03  0.00000000000E+00 0.  1.
         24    2    1    2    0    0 -0.74589889431E+02  0.59327549011E+02 -0.18874083112E+03  0.22622698856E+03  0.80449607482E+02 0.  0.
         25    2    1    2    0    0  0.59845168132E+02 -0.55382397570E+02 -0.28328442456E+03  0.32021652227E+03  0.12505959310E+03 0.  0.
        -24    2    1    2    0    0  0.14744721299E+02 -0.39451514407E+01  0.35997371118E+02  0.92805253954E+02  0.84166700113E+02 0.  0.
        -11    1    3    3    0    0 -0.79570626984E+02  0.61753500295E+02 -0.19399970994E+03  0.21858835041E+03  0.00000000000E+00 0.  1.
         12    1    3    3    0    0  0.49807375528E+01 -0.24259512842E+01  0.52588788271E+01  0.76386381457E+01  0.00000000000E+00 0. -1.
         13    1    5    5    0    0 -0.32513425158E+02 -0.14346261668E+02  0.64800700699E+01  0.36123805828E+02  0.00000000000E+00 0. -1.
        -14    1    5    5    0    0  0.47258146457E+02  0.10401110228E+02  0.29517301048E+02  0.56681448126E+02  0.00000000000E+00 0.  1.
          5    1    4    4  501    0  0.51039663300E+02 -0.89350702354E+02 -0.14740891856E+03  0.17982062427E+03  0.41800000000E+01 0. -1.
         -5    1    4    4    0  501  0.88055048322E+01  0.33968304784E+02 -0.13587550600E+03  0.14039589800E+03  0.41800000000E+01 0. -1.
</event>
<event>
11    1  0.6455215E-009  0.1547418E+03  0.7561462E-02  0.1092130E+00
         22   -1    0    0    0    0  0.00000000000E+00  0.00000000000E+00  0.14740175685E+04  0.14740175685E+04  0.00000000000E+00 0. -1.
         22   -1    0    0    0    0 -0.00000000000E+00 -0.00000000000E+00 -0.16316036442E+03  0.16316036442E+03  0.00000000000E+00 0. -1.
        -24    2    1    2    0    0 -0.34546493704E+02 -0.81349905131E+01 -0.10554688270E+03  0.13736275778E+03  0.80428505403E+02 0.  0.
         25    2    1    2    0    0  0.54166478823E+01 -0.79500319381E+02  0.10280300861E+03  0.18046007415E+03  0.12509092264E+03 0.  0.
         24    2    1    2    0    0  0.29129845821E+02  0.87635309894E+02  0.13136010782E+04  0.13193551010E+04  0.81373180357E+02 0.  0.
        -11    1    5    5    0    0  0.20587707442E+02  0.29565785530E+02  0.14967252323E+03  0.15394756764E+03  0.00000000000E+00 0.  1.
         12    1    5    5    0    0  0.85421383791E+01  0.58069524364E+02  0.11639285549E+04  0.11654075334E+04  0.00000000000E+00 0. -1.
         11    1    3    3    0    0 -0.51621607561E+02  0.11103351803E+02 -0.37916348832E+02  0.65005571278E+02  0.00000000000E+00 0. -1.
        -12    1    3    3    0    0  0.17075113858E+02 -0.19238342316E+02 -0.67630533864E+02  0.72357186506E+02  0.00000000000E+00 0.  1.
          5    1    4    4  501    0 -0.35740602467E+02 -0.11964893228E+02 -0.13067038702E+02  0.40109465655E+02  0.41800000000E+01 0.  1.
         -5    1    4    4    0  501  0.41157250349E+02 -0.67535426153E+02  0.11587004731E+03  0.14035060850E+03  0.41800000000E+01 0.  1.
</event>
<event>
11    1  0.6455215E-009  0.1388000E+03  0.7561462E-02  0.1108906E+00
         22   -1    0    0    0    0  0.00000000000E+00  0.00000000000E+00  0.10891398104E+04  0.10891398104E+04  0.00000000000E+00 0.  1.
         22   -1    0    0    0    0 -0.00000000000E+00 -0.00000000000E+00 -0.24746822528E+03  0.24746822528E+03  0.00000000000E+00 0.  1.
         24    2    1    2    0    0  0.24843218541E+02 -0.54302029872E+02 -0.22130990299E+03  0.24270482080E+03  0.79760020837E+02 0.  0.
         25    2    1    2    0    0 -0.29121689430E+02  0.72132162816E+02  0.41994439194E+03  0.44503021425E+03  0.12508987798E+03 0.  0.
        -24    2    1    2    0    0  0.42784708891E+01 -0.17830132944E+02  0.64303709620E+03  0.64887300066E+03  0.84871932557E+02 0.  0.
        -13    1    3    3    0    0  0.11615725086E+02 -0.62113526543E+02 -0.21802244757E+03  0.22699516051E+03  0.00000000000E+00 0.  1.
         14    1    3    3    0    0  0.13227493456E+02  0.78114966703E+01 -0.32874554130E+01  0.15709660290E+02  0.00000000000E+00 0. -1.
         13    1    5    5    0    0  0.10827490010E+02 -0.21207553309E+02  0.46064439474E+02  0.51854869022E+02  0.00000000000E+00 0. -1.
        -14    1    5    5    0    0 -0.65490191206E+01  0.33774203657E+01  0.59697265673E+03  0.59701813163E+03  0.00000000000E+00 0.  1.
          5    1    4    4  501    0 -0.22069653642E+02  0.17733347950E+02  0.36882224917E+03  0.36993089236E+03  0.41800000000E+01 0. -1.
         -5    1    4    4    0  501 -0.70520357883E+01  0.54398814866E+02  0.51122142764E+02  0.75099321890E+02  0.41800000000E+01 0. -1.
</event>
<event>
11    1  0.6455215E-009  0.3008007E+03  0.7561462E-02  0.9998529E-01
         22   -1    0    0    0    0  0.00000000000E+00  0.00000000000E+00  0.30048269512E+04  0.30048269512E+04  0.00000000000E+00 0.  1.
         22   -1    0    0    0    0 -0.00000000000E+00 -0.00000000000E+00 -0.28148162008E+03  0.28148162008E+03  0.00000000000E+00 0.  1.
         24    2    1    2    0    0  0.43115974956E+02  0.12316091219E+03 -0.22700898349E+03  0.27102047885E+03  0.69938714490E+02 0.  0.
         25    2    1    2    0    0 -0.29845343716E+03 -0.11895426004E+03  0.13998166282E+04  0.14416513299E+04  0.12508954513E+03 0.  0.
        -24    2    1    2    0    0  0.25533746220E+03 -0.42066521544E+01  0.15505376864E+04  0.15736367625E+04  0.83370425391E+02 0.  0.
        -11    1    3    3    0    0  0.43707049939E+02  0.11103009668E+03 -0.22945966934E+03  0.25863048629E+03  0.00000000000E+00 0.  1.
         12    1    3    3    0    0 -0.59107498335E+00  0.12130815512E+02  0.24506858522E+01  0.12389992565E+02  0.00000000000E+00 0. -1.
         11    1    5    5    0    0  0.60168279941E+02 -0.25324090665E+02  0.56335448140E+03  0.56712415148E+03  0.00000000000E+00 0. -1.
        -12    1    5    5    0    0  0.19516918226E+03  0.21117438510E+02  0.98718320495E+03  0.10065126110E+04  0.00000000000E+00 0.  1.
          5    1    4    4  501    0 -0.15470445429E+03 -0.74765057903E+02  0.48516872837E+03  0.51471297774E+03  0.41800000000E+01 0. -1.
         -5    1    4    4    0  501 -0.14374898287E+03 -0.44189202135E+02  0.91464789985E+03  0.92693835219E+03  0.41800000000E+01 0. -1.
</event>
<event>
11    1  0.6455215E-009  0.1348859E+03  0.7561462E-02  0.1113407E+00
         22   -1    0    0    0    0  0.00000000000E+00  0.00000000000E+00  0.34940440717E+03  0.34940440717E+03  0.00000000000E+00 0. -1.
         22   -1    0    0    0    0 -0.00000000000E+00 -0.00000000000E+00 -0.65713770672E+03  0.65713770672E+03  0.00000000000E+00 0. -1.
        -24    2    1    2    0    0  0.66155002786E+00  0.71769075466E+01 -0.56835873306E+03  0.57383554797E+03  0.78763195787E+02 0.  0.
         25    2    1    2    0    0 -0.38734798727E+02 -0.39557819652E+02 -0.17848172120E+02  0.13795169455E+03  0.12508759752E+03 0.  0.
         24    2    1    2    0    0  0.38073248699E+02  0.32380912106E+02  0.27847360563E+03  0.29475487138E+03  0.82672785324E+02 0.  0.
        -13    1    5    5    0    0  0.25882855320E+02  0.78191457717E+01  0.17197772019E+02  0.32044104021E+02  0.00000000000E+00 0.  1.
         14    1    5    5    0    0  0.12190393379E+02  0.24561766334E+02  0.26127583361E+03  0.26271076736E+03  0.00000000000E+00 0. -1.
         13    1    3    3    0    0  0.86261697102E+01 -0.10454577034E+02 -0.53573554720E+03  0.53590697468E+03  0.00000000000E+00 0. -1.
        -14    1    3    3    0    0 -0.79646196824E+01  0.17631484580E+02 -0.32623185868E+02  0.37928573284E+02  0.00000000000E+00 0.  1.
          5    1    4    4  501    0 -0.62663450417E+02 -0.57655602951E+01 -0.53845669649E+02  0.82926342278E+02  0.41800000000E+01 0.  1.
         -5    1    4    4    0  501  0.23928651690E+02 -0.33792259357E+02  0.35997497530E+02  0.55025352271E+02  0.41800000000E+01 0.  1.
</event>
<event>
11    1  0.6455215E-009  0.2030257E+03  0.7561462E-02  0.1052404E+00
         22   -1    0    0    0    0  0.00000000000E+00  0.00000000000E+00  0.13300993909E+03  0.13300993909E+03  0.00000000000E+00 0. -1.
         22   -1    0    0    0    0 -0.00000000000E+00 -0.00000000000E+00 -0.56036656054E+03  0.56036656054E+03  0.00000000000E+00 0. -1.
         24    2    1    2    0    0  0.39254834849E+02 -0.17469773515E+02 -0.20153201170E+03  0.22103240665E+03  0.79962728859E+02 0.  0.
         25    2    1    2    0    0  0.77782933611E+01 -0.14368505562E+03 -0.20811499667E+03  0.28225098613E+03  0.12509144764E+03 0.  0.
        -24    2    1    2    0    0 -0.47033128210E+02  0.16115482913E+03 -0.17709613077E+02  0.19009310684E+03  0.87400027298E+02 0.  0.
        -11    1    3    3    0    0 -0.19955142467E+02 -0.20545641919E+02 -0.41974551095E+02  0.50815293489E+02  0.00000000000E+00 0.  1.
         12    1    3    3    0    0  0.59209977317E+02  0.30758684036E+01 -0.15955746060E+03  0.17021711317E+03  0.00000000000E+00 0. -1.
         13    1    5    5    0    0 -0.66551196458E+02  0.15462265445E+03 -0.19353012061E+02  0.16944546643E+03  0.00000000000E+00 0. -1.
        -14    1    5    5    0    0  0.19518068248E+02  0.65321746826E+01  0.16433989841E+01  0.20647640408E+02  0.00000000000E+00 0.  1.
          5    1    4    4  501    0  0.48161154330E+01 -0.10748855092E+03 -0.21905724188E+03  0.24409123533E+03  0.41800000000E+01 0. -1.
         -5    1    4    4    0  501  0.29621779281E+01 -0.36196504701E+02  0.10942245205E+02  0.38159750795E+02  0.41800000000E+01 0. -1.
</event>
<event>
11    1  0.6455215E-009  0.1318042E+03  0.7561462E-02  0.1117072E+00
         22   -1    0    0    0    0  0.00000000000E+00  0.00000000000E+00  0.18668018570E+03  0.18668018570E+03  0.00000000000E+00 0.  1.
         22   -1    0    0    0    0 -0.00000000000E+00 -0.00000000000E+00 -0.51215944135E+03  0.51215944135E+03  0.00000000000E+00 0.  1.
        -24    2    1    2    0    0 -0.48958460044E+02 -0.56180591654E+01 -0.38259862103E+03  0.39391297183E+03  0.79732246654E+02 0.  0.
         25    2    1    2    0    0 -0.76298950215E+01 -0.27531298207E+01 -0.72623828843E+02  0.14486847434E+03  0.12508740672E+03 0.  0.
         24    2    1    2    0    0  0.56588355066E+02  0.83711889861E+01  0.12974319423E+03  0.16005818088E+03  0.74249620087E+02 0.  0.
        -11    1    5    5    0    0  0.34535470732E+02 -0.21847125136E+02  0.11086152983E+03  0.11815360516E+03  0.00000000000E+00 0.  1.
         12    1    5    5    0    0  0.22052884334E+02  0.30218314122E+02  0.18881664399E+02  0.41904575721E+02  0.00000000000E+00 0. -1.
         11    1    3    3    0    0 -0.43584722800E+02  0.42132742799E+00 -0.79158807148E+02  0.90365493013E+02  0.00000000000E+00 0. -1.
        -12    1    3    3    0    0 -0.53737372447E+01 -0.60393865934E+01 -0.30343981389E+03  0.30354747881E+03  0.00000000000E+00 0.  1.
          5    1    4    4  501    0 -0.39380187474E+02  0.43757848442E+02 -0.88337482320E+01  0.59674583983E+02  0.41800000000E+01 0.  1.
         -5    1    4    4    0  501  0.31750292453E+02 -0.46510978263E+02 -0.63790080611E+02  0.85193890357E+02  0.41800000000E+01 0.  1.
</event>
<event>
11    1  0.6455215E-009  0.1775962E+03  0.7561462E-02  0.1071604E+00
         22   -1    0    0    0    0  0.00000000000E+00  0.00000000000E+00  0.31797681845E+03  0.31797681845E+03  0.00000000000E+00 0.  1.
         22   -1    0    0    0    0 -0.00000000000E+00 -0.00000000000E+00 -0.39280329313E+03  0.39280329313E+03  0.00000000000E+00 0.  1.
         24    2    1    2    0    0  0.12433011600E+03 -0.10814554911E+02 -0.17221099082E+03  0.22743511270E+03  0.80592634803E+02 0.  0.
         25    2    1    2    0    0 -0.12870086661E+03 -0.28396135287E+02 -0.13983011153E+03  0.22928205163E+03  0.12509014966E+03 0.  0.
        -24    2    1    2    0    0  0.43707506146E+01  0.39210690198E+02  0.23721462766E+03  0.25406294725E+03  0.81979387050E+02 0.  0.
        -11    1    3    3    0    0  0.11464825704E+03 -0.17736211106E+02 -0.17931747822E+03  0.21357329894E+03  0.00000000000E+00 0.  1.
         12    1    3    3    0    0  0.96818589613E+01  0.69216561952E+01  0.71064873962E+01  0.13861813754E+02  0.00000000000E+00 0. -1.
         13    1    5    5    0    0  0.34435010137E+02  0.48515857960E+02  0.15304575467E+03  0.16420280576E+03  0.00000000000E+00 0. -1.
        -14    1    5    5    0    0 -0.30064259523E+02 -0.93051677618E+01  0.84168872992E+02  0.89860141489E+02  0.00000000000E+00 0.  1.
          5    1    4    4  501    0 -0.58023017926E+02 -0.45303371249E+02 -0.13800513676E+03  0.15646710910E+03  0.41800000000E+01 0. -1.
         -5    1    4    4    0  501 -0.70677848688E+02  0.16907235962E+02 -0.18249747626E+01  0.72814942532E+02  0.41800000000E+01 0. -1.
</event>
<event>
11    1  0.6455215E-009  0.1471232E+03  0.7561462E-02  0.1099855E+00
         22   -1    0    0    0    0  0.00000000000E+00  0.00000000000E+00  0.23813080781E+03  0.23813080781E+03  0.00000000000E+00 0.  1.
         22   -1    0    0    0    0 -0.00000000000E+00 -0.00000000000E+00 -0.40377956303E+03  0.40377956303E+03  0.00000000000E+00 0.  1.
         24    2    1    2    0    0  0.43330551561E+01 -0.20495808717E+02 -0.25623952370E+03  0.27806824340E+03  0.10594527334E+03 0.  0.
         25    2    1    2    0    0  0.32934581898E+02 -0.50285126323E+02 -0.79049661974E+02  0.15971382999E+03  0.12508548205E+03 0.  0.
        -24    2    1    2    0    0 -0.37267637054E+02  0.70780935041E+02  0.16964043046E+03  0.20412829744E+03  0.80570891981E+02 0.  0.
        -11    1    3    3    0    0 -0.24676385913E+02 -0.55620600393E+02 -0.16954248925E+03  0.18013114908E+03  0.00000000000E+00 0.  1.
         12    1    3    3    0    0  0.29009441069E+02  0.35124791676E+02 -0.86697034449E+02  0.97937094319E+02  0.00000000000E+00 0. -1.
         13    1    5    5    0    0  0.84935439219E+01  0.27674078759E+02  0.70317758482E+01  0.29789944530E+02  0.00000000000E+00 0. -1.
        -14    1    5    5    0    0 -0.45761180976E+02  0.43106856282E+02  0.16260865461E+03  0.17433835291E+03  0.00000000000E+00 0.  1.
          5    1    4    4  501    0  0.31272004201E+02 -0.27707125305E+02 -0.11194614922E+03  0.11956184912E+03  0.41800000000E+01 0. -1.
         -5    1    4    4    0  501  0.16625776973E+01 -0.22578001018E+02  0.32896487250E+02  0.40151980872E+02  0.41800000000E+01 0. -1.
</event>
<event>
11    1  0.6455215E-009  0.1481802E+03  0.7561462E-02  0.1098753E+00
         22   -1    0    0    0    0  0.00000000000E+00  0.00000000000E+00  0.16558388561E+03  0.16558388561E+03  0.00000000000E+00 0.  1.
         22   -1    0    0    0    0 -0.00000000000E+00 -0.00000000000E+00 -0.47998108336E+03  0.47998108336E+03  0.00000000000E+00 0. -1.
        -24    2    1    2    0    0  0.74017594034E+02 -0.14088188764E+02 -0.34766732995E+03  0.36494975107E+03  0.81478016688E+02 0.  0.
         25    2    1    2    0    0 -0.10931403991E+03  0.54511244545E+02 -0.11206680839E+02  0.17519697557E+03  0.12508938984E+03 0.  0.
         24    2    1    2    0    0  0.35296445873E+02 -0.40423055781E+02  0.44476813036E+02  0.10541824233E+03  0.79088282241E+02 0.  0.
        -11    1    5    5    0    0  0.57305778739E+02 -0.17660121892E+02  0.42871535013E+02  0.73714318124E+02  0.00000000000E+00 0.  1.
         12    1    5    5    0    0 -0.22009332866E+02 -0.22762933889E+02  0.16052780225E+01  0.31703924204E+02  0.00000000000E+00 0. -1.
         11    1    3    3    0    0  0.84111001603E+02 -0.20566972500E+02 -0.33967288776E+03  0.35053577796E+03  0.00000000000E+00 0. -1.
        -12    1    3    3    0    0 -0.10093407568E+02  0.64787837359E+01 -0.79944421902E+01  0.14413973115E+02  0.00000000000E+00 0.  1.
          5    1    4    4  501    0  0.17280168054E+01  0.13601485741E+01 -0.46754191784E+02  0.46992157809E+02  0.41800000000E+01 0.  1.
         -5    1    4    4    0  501 -0.11104205671E+03  0.53151095971E+02  0.35547510945E+02  0.12820481776E+03  0.41800000000E+01 0.  1.
</event>
<event>
11    1  0.6455215E-009  0.1576027E+03  0.7561462E-02  0.1089354E+00
         22   -1    0    0    0    0  0.00000000000E+00  0.00000000000E+00  0.51927406531E+03  0.51927406531E+03  0.00000000000E+00 0. -1.
         22   -1    0    0    0    0 -0.00000000000E+00 -0.00000000000E+00 -0.61799696958E+03  0.61799696958E+03  0.00000000000E+00 0. -1.
         24    2    1    2    0    0 -0.71463202836E+02 -0.55501860468E+02 -0.43890967839E+03  0.45526053442E+03  0.80206000616E+02 0.  0.
         25    2    1    2    0    0  0.13831162633E+03  0.32974714370E+02 -0.11018611208E+03  0.21909823307E+03  0.12508244751E+03 0.  0.
        -24    2    1    2    0    0 -0.66848423494E+02  0.22527146097E+02  0.45037288620E+03  0.46291226740E+03  0.80472645364E+02 0.  0.
        -11    1    3    3    0    0  0.14676639778E+02 -0.20729226222E+02 -0.60489743376E+02  0.65605743869E+02  0.00000000000E+00 0.  1.
         12    1    3    3    0    0 -0.86139842614E+02 -0.34772634246E+02 -0.37841993502E+03  0.38965479055E+03  0.00000000000E+00 0. -1.
         13    1    5    5    0    0 -0.49930761306E+02  0.38832745993E+01  0.42207779419E+03  0.42503861600E+03  0.00000000000E+00 0. -1.
        -14    1    5    5    0    0 -0.16917662188E+02  0.18643871498E+02  0.28295092009E+02  0.37873651397E+02  0.00000000000E+00 0.  1.
          5    1    4    4  501    0  0.12499162472E+03  0.58429549877E+02 -0.40890343501E+02  0.14396670150E+03  0.41800000000E+01 0.  1.
         -5    1    4    4    0  501  0.13320001610E+02 -0.25454835507E+02 -0.69295768580E+02  0.75131531574E+02  0.41800000000E+01 0.  1.
</event>
<event>
11    1  0.6455215E-009  0.1385808E+03  0.7561462E-02  0.1109154E+00
         22   -1    0    0    0    0  0.00000000000E+00  0.00000000000E+00  0.69408838922E+03  0.69408838922E+03  0.00000000000E+00 0. -1.
         22   -1    0    0    0    0 -0.00000000000E+00 -0.00000000000E+00 -0.42100964076E+03  0.42100964076E+03  0.00000000000E+00 0. -1.
         24    2    1    2    0    0 -0.13955582173E+02 -0.59057468312E+02 -0.39040791474E+03  0.40597060044E+03  0.93334054325E+02 0.  0.
         25    2    1    2    0    0 -0.29832188566E+02  0.32976270131E+02  0.23886811133E+03  0.27328026009E+03  0.12508689810E+03 0.  0.
        -24    2    1    2    0    0  0.43787770739E+02  0.26081198180E+02  0.42461855186E+03  0.43584716945E+03  0.84049049748E+02 0.  0.
        -11    1    3    3    0    0 -0.38987065139E+01  0.22583145998E+02 -0.40601175200E+02  0.46622460502E+02  0.00000000000E+00 0.  1.
         12    1    3    3    0    0 -0.10056875659E+02 -0.81640614309E+02 -0.34980673954E+03  0.35934813994E+03  0.00000000000E+00 0. -1.
         13    1    5    5    0    0  0.43314602267E+02 -0.16758373766E+02  0.31045306237E+03  0.31390779187E+03  0.00000000000E+00 0. -1.
        -14    1    5    5    0    0  0.47316847167E+00  0.42839571946E+02  0.11416548949E+03  0.12193937757E+03  0.00000000000E+00 0.  1.
          5    1    4    4  501    0 -0.70566394548E+01 -0.36278673980E+02  0.19332686023E+02  0.41918534027E+02  0.41800000000E+01 0. -1.
         -5    1    4    4    0  501 -0.22775549111E+02  0.69254944111E+02  0.21953542531E+03  0.23136172606E+03  0.41800000000E+01 0. -1.
</event>
<event>
11    1  0.6455215E-009  0.6789733E+03  0.7561462E-02  0.9063877E-01
         22   -1    0    0    0    0  0.00000000000E+00  0.00000000000E+00  0.11305411098E+04  0.11305411098E+04  0.00000000000E+00 0.  1.
         22   -1    0    0    0    0 -0.00000000000E+00 -0.00000000000E+00 -0.12347843033E+04  0.12347843033E+04  0.00000000000E+00 0. -1.
         24    2    1    2    0    0  0.41358180139E+02 -0.26594687006E+02 -0.77087355192E+03  0.77674734036E+03  0.81686114330E+02 0.  0.
         25    2    1    2    0    0 -0.14473420432E+03 -0.63907746276E+03  0.45444227869E+02  0.66864073741E+03  0.12508902657E+03 0.  0.
        -24    2    1    2    0    0  0.10337602418E+03  0.66567214977E+03  0.62118613055E+03  0.91993733541E+03  0.81280249419E+02 0.  0.
        -11    1    3    3    0    0  0.74920101461E+00  0.27288300969E+02 -0.26256544977E+03  0.26398073431E+03  0.00000000000E+00 0.  1.
         12    1    3    3    0    0  0.40608979125E+02 -0.53882987974E+02 -0.50830810215E+03  0.51276660606E+03  0.00000000000E+00 0. -1.
         11    1    5    5    0    0  0.56351246833E+02  0.34788633826E+03  0.37971245700E+03  0.51805590178E+03  0.00000000000E+00 0. -1.
        -12    1    5    5    0    0  0.47024777352E+02  0.31778581151E+03  0.24147367355E+03  0.40188143363E+03  0.00000000000E+00 0.  1.
          5    1    4    4  501    0 -0.15402281287E+03 -0.59068956800E+03  0.68115413566E+02  0.61424292800E+03  0.41800000000E+01 0.  1.
         -5    1    4    4    0  501  0.92886085469E+01 -0.48387894755E+02 -0.22671185697E+02  0.54397809409E+02  0.41800000000E+01 0.  1.
</event>
<event>
11    1  0.6455215E-009  0.1320617E+03  0.7561462E-02  0.1116761E+00
         22   -1    0    0    0    0  0.00000000000E+00  0.00000000000E+00  0.42321730442E+03  0.42321730442E+03  0.00000000000E+00 0. -1.
         22   -1    0    0    0    0 -0.00000000000E+00 -0.00000000000E+00 -0.48844289746E+03  0.48844289746E+03  0.00000000000E+00 0.  1.
         24    2    1    2    0    0  0.35652188016E+01 -0.32082376349E+02 -0.42427164215E+03  0.43318620541E+03  0.81251908110E+02 0.  0.
         25    2    1    2    0    0 -0.36519943273E+02  0.26709724099E+01  0.25738396532E+02  0.13285982205E+03  0.12509367254E+03 0.  0.
        -24    2    1    2    0    0  0.32954724472E+02  0.29411403939E+02  0.33330765258E+03  0.34561417441E+03  0.80025756727E+02 0.  0.
        -11    1    3    3    0    0  0.40087598256E+02 -0.22755222461E+01 -0.20721531876E+03  0.21106961379E+03  0.00000000000E+00 0.  1.
         12    1    3    3    0    0 -0.36522379455E+02 -0.29806854102E+02 -0.21705632339E+03  0.22211659163E+03  0.00000000000E+00 0. -1.
         13    1    5    5    0    0  0.16549912854E+02  0.13241376078E+02  0.31623013437E+03  0.31693963390E+03  0.00000000000E+00 0. -1.
        -14    1    5    5    0    0  0.16404811618E+02  0.16170027861E+02  0.17077518215E+02  0.28674540513E+02  0.00000000000E+00 0.  1.
          5    1    4    4  501    0 -0.63619984306E+02  0.45721467878E+02  0.81758712789E+01  0.78881381195E+02  0.41800000000E+01 0. -1.
         -5    1    4    4    0  501  0.27100041033E+02 -0.43050495468E+02  0.17562525253E+02  0.53978440857E+02  0.41800000000E+01 0. -1.
</event>
<event>
11    1  0.6455215E-009  0.1516160E+03  0.7561462E-02  0.1095239E+00
         22   -1    0    0    0    0  0.00000000000E+00  0.00000000000E+00  0.92052166845E+03  0.92052166845E+03  0.00000000000E+00 0. -1.
         22   -1    0    0    0    0 -0.00000000000E+00 -0.00000000000E+00 -0.82933760190E+03  0.82933760190E+03  0.00000000000E+00 0. -1.
         24    2    1    2    0    0 -0.76099696617E+02  0.34576878108E+02 -0.79557864881E+03  0.80408033922E+03  0.81320853101E+02 0.  0.
         25    2    1    2    0    0  0.69457908920E+02  0.57089152917E+02  0.22177784371E+03  0.27003249752E+03  0.12509422553E+03 0.  0.
        -24    2    1    2    0    0  0.66417876975E+01 -0.91666031025E+02  0.66498487165E+03  0.67574643362E+03  0.77340729548E+02 0.  0.
        -11    1    3    3    0    0 -0.77765341412E+01 -0.24782417991E+02 -0.16169635258E+03  0.16376920700E+03  0.00000000000E+00 0.  1.
         12    1    3    3    0    0 -0.68323162476E+02  0.59359296099E+02 -0.63388229623E+03  0.64031113222E+03  0.00000000000E+00 0. -1.
         11    1    5    5    0    0  0.64832849972E+01 -0.37542226716E+02  0.51298613093E+03  0.51439889415E+03  0.00000000000E+00 0. -1.
        -12    1    5    5    0    0  0.15850270032E+00 -0.54123804309E+02  0.15199874072E+03  0.16134753948E+03  0.00000000000E+00 0.  1.
          5    1    4    4  501    0 -0.21279335755E+02  0.14290412069E+02 -0.66179965421E+00  0.25979537834E+02  0.41800000000E+01 0.  1.
         -5    1    4    4    0  501  0.90737244675E+02  0.42798740848E+02  0.22243964337E+03  0.24405295968E+03  0.41800000000E+01 0.  1.
</event>
<event>
11    1  0.6455215E-009  0.1765504E+03  0.7561462E-02  0.1072468E+00
         22   -1    0    0    0    0  0.00000000000E+00  0.00000000000E+00  0.18557557875E+04  0.18557557875E+04  0.00000000000E+00 0.  1.
         22   -1    0    0    0    0 -0.00000000000E+00 -0.00000000000E+00 -0.21411120293E+04  0.21411120293E+04  0.00000000000E+00 0.  1.
         24    2    1    2    0    0 -0.11120222565E+03 -0.56022392074E+02 -0.21208338819E+04  0.21260056020E+04  0.80368040853E+02 0.  0.
         25    2    1    2    0    0  0.11603842565E+03  0.73863244731E+02  0.51091027503E+03  0.54369162539E+03  0.12510227508E+03 0.  0.
        -24    2    1    2    0    0 -0.48362000027E+01 -0.17840852657E+02  0.13245673650E+04  0.13271705894E+04  0.81002370963E+02 0.  0.
        -11    1    3    3    0    0 -0.10281237843E+03 -0.48498004596E+02 -0.12649722302E+04  0.12700697558E+04  0.00000000000E+00 0.  1.
         12    1    3    3    0    0 -0.83898472213E+01 -0.75243874780E+01 -0.85586165169E+03  0.85593584618E+03  0.00000000000E+00 0. -1.
         11    1    5    5    0    0 -0.36142299396E+02 -0.24157008007E+02  0.46986296101E+03  0.47186971610E+03  0.00000000000E+00 0. -1.
        -12    1    5    5    0    0  0.31306099393E+02  0.63161553495E+01  0.85470440401E+03  0.85530087333E+03  0.00000000000E+00 0.  1.
          5    1    4    4  501    0  0.10654256407E+03  0.23248604134E+02  0.45354285465E+03  0.46648730846E+03  0.41800000000E+01 0. -1.
         -5    1    4    4    0  501  0.94958615781E+01  0.50614640597E+02  0.57367420383E+02  0.77204316922E+02  0.41800000000E+01 0. -1.
</event>
<event>
11    1  0.6455215E-009  0.2300928E+03  0.7561462E-02  0.1035073E+00
         22   -1    0    0    0    0  0.00000000000E+00  0.00000000000E+00  0.47710876149E+03  0.47710876149E+03  0.00000000000E+00 0.  1.
         22   -1    0    0    0    0 -0.00000000000E+00 -0.00000000000E+00 -0.40865481487E+03  0.40865481487E+03  0.00000000000E+00 0.  1.
         24    2    1    2    0    0  0.18554931853E+02  0.31099525678E+02 -0.23763691797E+03  0.25258657415E+03  0.77570655954E+02 0.  0.
         25    2    1    2    0    0  0.31670253644E+02  0.16190040007E+03 -0.53740486882E+02  0.21389543553E+03  0.12509385638E+03 0.  0.
        -24    2    1    2    0    0 -0.50225185497E+02 -0.19299992574E+03  0.35983135146E+03  0.41928156667E+03  0.80912854727E+02 0.  0.
        -13    1    3    3    0    0  0.15031027213E+02  0.24375315786E+02 -0.24209493189E+03  0.24378278004E+03  0.00000000000E+00 0.  1.
         14    1    3    3    0    0  0.35239046403E+01  0.67242098922E+01  0.44580139192E+01  0.88037941078E+01  0.00000000000E+00 0. -1.
         13    1    5    5    0    0 -0.18007958007E+02 -0.47065446816E+02  0.33939422324E+02  0.60756293693E+02  0.00000000000E+00 0. -1.
        -14    1    5    5    0    0 -0.32217227490E+02 -0.14593447893E+03  0.32589192914E+03  0.35852527298E+03  0.00000000000E+00 0.  1.
          5    1    4    4  501    0  0.37641667218E+01  0.59299977333E+02 -0.84266225652E+02  0.10319363085E+03  0.41800000000E+01 0.  1.
         -5    1    4    4    0  501  0.27906086922E+02  0.10260042273E+03  0.30525738770E+02  0.11070180468E+03  0.41800000000E+01 0.  1.
</event>
<event>
11    1  0.6455215E-009  0.2906396E+03  0.7561462E-02  0.1004232E+00
         22   -1    0    0    0    0  0.00000000000E+00  0.00000000000E+00  0.15944850217E+04  0.15944850217E+04  0.00000000000E+00 0.  1.
         22   -1    0    0    0    0 -0.00000000000E+00 -0.00000000000E+00 -0.21543591134E+03  0.21543591134E+03  0.00000000000E+00 0.  1.
        -24    2    1    2    0    0  0.25806781822E+03  0.13296924070E+03  0.89470421321E+02  0.31385589841E+03  0.78871737044E+02 0.  0.
         25    2    1    2    0    0 -0.19961648163E+03 -0.12992279178E+03  0.77579097319E+02  0.27999125771E+03  0.12509962626E+03 0.  0.
         24    2    1    2    0    0 -0.58451336589E+02 -0.30464489266E+01  0.12119995917E+04  0.12160737769E+04  0.80415054543E+02 0.  0.
        -11    1    5    5    0    0 -0.73521207880E+02 -0.15930433576E+02  0.77994726017E+03  0.78356676510E+03  0.00000000000E+00 0.  1.
         12    1    5    5    0    0  0.15069871291E+02  0.12883984649E+02  0.43205233150E+03  0.43250701178E+03  0.00000000000E+00 0. -1.
         11    1    3    3    0    0  0.99188185491E+02  0.39305452005E+02 -0.46527541279E+01  0.10679355233E+03  0.00000000000E+00 0. -1.
        -12    1    3    3    0    0  0.15887963273E+03  0.93663788699E+02  0.94123175449E+02  0.20706234608E+03  0.00000000000E+00 0.  1.
          5    1    4    4  501    0  0.89596255115E+01  0.55390233714E+01 -0.11151749605E+02  0.15899358115E+02  0.41800000000E+01 0. -1.
         -5    1    4    4    0  501 -0.20857610714E+03 -0.13546181515E+03  0.88730846924E+02  0.26409189959E+03  0.41800000000E+01 0. -1.
</event>
<event>
11    1  0.6455215E-009  0.1559564E+03  0.7561462E-02  0.1090943E+00
         22   -1    0    0    0    0  0.00000000000E+00  0.00000000000E+00  0.21439787272E+04  0.21439787272E+04  0.00000000000E+00 0.  1.
         22   -1    0    0    0    0 -0.00000000000E+00 -0.00000000000E+00 -0.51085799905E+02  0.51085799905E+02  0.00000000000E+00 0. -1.
         24    2    1    2    0    0 -0.28064051463E+02 -0.43604608684E+02  0.27228548774E+02  0.10216655075E+03  0.83711751504E+02 0.  0.
         25    2    1    2    0    0  0.10602881424E+03  0.77247203611E+02  0.73129551239E+03  0.75342561271E+03  0.12509111690E+03 0.  0.
        -24    2    1    2    0    0 -0.77964762775E+02 -0.33642594927E+02  0.13343688661E+04  0.13394723636E+04  0.80222276562E+02 0.  0.
        -11    1    3    3    0    0 -0.31087049235E+02  0.96039526136E+01  0.35588883751E+02  0.48220422878E+02  0.00000000000E+00 0.  1.
         12    1    3    3    0    0  0.30229977720E+01 -0.53208561298E+02 -0.83603349770E+01  0.53946127867E+02  0.00000000000E+00 0. -1.
         13    1    5    5    0    0 -0.57996984759E+01 -0.10046050888E+02  0.21668332523E+02  0.24577963202E+02  0.00000000000E+00 0. -1.
        -14    1    5    5    0    0 -0.72165064299E+02 -0.23596544038E+02  0.13127005336E+04  0.13148944004E+04  0.00000000000E+00 0.  1.
          5    1    4    4  501    0  0.79250319732E+02  0.27708687861E+02  0.17361769141E+03  0.19289624084E+03  0.41800000000E+01 0. -1.
         -5    1    4    4    0  501  0.26778494506E+02  0.49538515750E+02  0.55767782098E+03  0.56052937186E+03  0.41800000000E+01 0. -1.
</event>
<event>
11    1  0.6455215E-009  0.1391567E+03  0.7561462E-02  0.1108504E+00
         22   -1    0    0    0    0  0.00000000000E+00  0.00000000000E+00  0.10760336732E+04  0.10760336732E+04  0.00000000000E+00 0.  1.
         22   -1    0    0    0    0 -0.00000000000E+00 -0.00000000000E+00 -0.17241998451E+04  0.17241998451E+04  0.00000000000E+00 0. -1.
        -24    2    1    2    0    0  0.60153611073E+02 -0.96896374118E+01 -0.17085896742E+04  0.17116219835E+04  0.81601432494E+02 0.  0.
         25    2    1    2    0    0 -0.71217364992E+02  0.29992055576E+01  0.45922724598E+03  0.48126807750E+03  0.12509352765E+03 0.  0.
         24    2    1    2    0    0  0.11063753919E+02  0.66904318542E+01  0.60119625635E+03  0.60734345722E+03  0.85217180491E+02 0.  0.
        -13    1    5    5    0    0  0.15836469830E+02  0.44933205544E+02  0.32757858822E+03  0.33102495101E+03  0.00000000000E+00 0.  1.
         14    1    5    5    0    0 -0.47727159115E+01 -0.38242773690E+02  0.27361766813E+03  0.27631850620E+03  0.00000000000E+00 0. -1.
         13    1    3    3    0    0 -0.92310849420E+01  0.57241965529E+00 -0.88576777801E+03  0.88581606282E+03  0.00000000000E+00 0. -1.
        -14    1    3    3    0    0  0.69384696015E+02 -0.10262057067E+02 -0.82282189617E+03  0.82580592071E+03  0.00000000000E+00 0.  1.
          5    1    4    4  501    0 -0.24946387855E+02 -0.59991648816E+02  0.18685422734E+03  0.19787191531E+03  0.41800000000E+01 0.  1.
         -5    1    4    4    0  501 -0.46270977136E+02  0.62990854373E+02  0.27237301864E+03  0.28339616219E+03  0.41800000000E+01 0.  1.
</event>
<event>
11    1  0.6455215E-009  0.1369633E+03  0.7561462E-02  0.1110998E+00
         22   -1    0    0    0    0  0.00000000000E+00  0.00000000000E+00  0.14131343312E+04  0.14131343312E+04  0.00000000000E+00 0.  1.
         22   -1    0    0    0    0 -0.00000000000E+00 -0.00000000000E+00 -0.17106732175E+03  0.17106732175E+03  0.00000000000E+00 0.  1.
         24    2    1    2    0    0 -0.25852319708E+01 -0.62382603927E+02 -0.10236556604E+03  0.14418999522E+03  0.80086034450E+02 0.  0.
         25    2    1    2    0    0  0.39082910450E+02  0.21265697585E+02  0.49869033625E+02  0.14182853777E+03  0.12509480337E+03 0.  0.
        -24    2    1    2    0    0 -0.36497678480E+02  0.41116906342E+02  0.12945635418E+04  0.12981831199E+04  0.79761948904E+02 0.  0.
        -11    1    3    3    0    0 -0.14837509398E+02 -0.19030661137E+02 -0.95644016181E+02  0.98641246848E+02  0.00000000000E+00 0.  1.
         12    1    3    3    0    0  0.12252277427E+02 -0.43351942790E+02 -0.67215498596E+01  0.45548748373E+02  0.00000000000E+00 0. -1.
         13    1    5    5    0    0 -0.45720872826E+02  0.48888012860E+01  0.10260389640E+04  0.10270687680E+04  0.00000000000E+00 0. -1.
        -14    1    5    5    0    0  0.92231943459E+01  0.36228105056E+02  0.26852457782E+03  0.27111435189E+03  0.00000000000E+00 0.  1.
          5    1    4    4  501    0  0.23182631412E+02 -0.45505483872E+02  0.52034456896E+02  0.73029039197E+02  0.41800000000E+01 0.  1.
         -5    1    4    4    0  501  0.15900279038E+02  0.66771181457E+02 -0.21654232706E+01  0.68799498578E+02  0.41800000000E+01 0.  1.
</event>
<event>
11    1  0.6455215E-009  0.1308394E+03  0.7561462E-02  0.1118242E+00
         22   -1    0    0    0    0  0.00000000000E+00  0.00000000000E+00  0.45700846595E+03  0.45700846595E+03  0.00000000000E+00 0. -1.
         22   -1    0    0    0    0 -0.00000000000E+00 -0.00000000000E+00 -0.17822297717E+04  0.17822297717E+04  0.00000000000E+00 0.  1.
         24    2    1    2    0    0  0.50501461249E+01 -0.38892145167E+02 -0.17058324293E+04  0.17081467927E+04  0.79768951594E+02 0.  0.
         25    2    1    2    0    0 -0.10373066529E+02 -0.43726677523E+01 -0.14257467415E+02  0.12640021162E+03  0.12508803855E+03 0.  0.
        -24    2    1    2    0    0  0.53229204037E+01  0.43264812920E+02  0.39486859091E+03  0.40469123337E+03  0.77159657592E+02 0.  0.
        -11    1    3    3    0    0  0.99382369526E+01 -0.24165853636E+02 -0.16497657038E+04  0.16499726163E+04  0.00000000000E+00 0.  1.
         12    1    3    3    0    0 -0.48880908278E+01 -0.14726291532E+02 -0.56066725474E+02  0.58174176398E+02  0.00000000000E+00 0. -1.
         11    1    5    5    0    0  0.26088808685E+02  0.14486919633E+02  0.32460971414E+03  0.32597847060E+03  0.00000000000E+00 0. -1.
        -12    1    5    5    0    0 -0.20765888281E+02  0.28777893286E+02  0.70258876771E+02  0.78712762772E+02  0.00000000000E+00 0.  1.
          5    1    4    4  501    0 -0.19822175917E+02  0.32719817416E+02 -0.57061587532E+02  0.68825883804E+02  0.41800000000E+01 0. -1.
         -5    1    4    4    0  501  0.94491093885E+01 -0.37092485168E+02  0.42804120117E+02  0.57574327813E+02  0.41800000000E+01 0. -1.
</event>
<event>
11    1  0.6455215E-009  0.1692957E+03  0.7561462E-02  0.1078646E+00
         22   -1    0    0    0    0  0.00000000000E+00  0.00000000000E+00  0.99432853260E+02  0.99432853260E+02  0.00000000000E+00 0. -1.
         22   -1    0    0    0    0 -0.00000000000E+00 -0.00000000000E+00 -0.18897300055E+04  0.18897300055E+04  0.00000000000E+00 0. -1.
         24    2    1    2    0    0 -0.38003123219E+02 -0.10533003602E+03 -0.15282294931E+04  0.15350484150E+04  0.91376139639E+02 0.  0.
         25    2    1    2    0    0 -0.13285285163E+02  0.14289321739E+03 -0.29044668194E+03  0.34727527505E+03  0.12508345708E+03 0.  0.
        -24    2    1    2    0    0  0.51288408382E+02 -0.37563181370E+02  0.28379022791E+02  0.10683916873E+03  0.81041628884E+02 0.  0.
        -13    1    3    3    0    0 -0.28232654808E+02 -0.51114340873E+01 -0.12677539225E+03  0.12998157422E+03  0.00000000000E+00 0.  1.
         14    1    3    3    0    0 -0.97704684110E+01 -0.10021860193E+03 -0.14014541008E+04  0.14050668408E+04  0.00000000000E+00 0. -1.
         11    1    5    5    0    0  0.70640348911E+02 -0.43236307880E+02  0.22144079893E+02  0.85730959913E+02  0.00000000000E+00 0. -1.
        -12    1    5    5    0    0 -0.19351940530E+02  0.56731265090E+01  0.62349428981E+01  0.21108208820E+02  0.00000000000E+00 0.  1.
          5    1    4    4  501    0 -0.15382369840E+02 -0.16280419018E+02 -0.10238795935E+02  0.24979485333E+02  0.41800000000E+01 0. -1.
         -5    1    4    4    0  501  0.20970846770E+01  0.15917363641E+03 -0.28020788601E+03  0.32229578972E+03  0.41800000000E+01 0. -1.
</event>
<event>
11    1  0.6455215E-009  0.1381969E+03  0.7561462E-02  0.1109589E+00
         22   -1    0    0    0    0  0.00000000000E+00  0.00000000000E+00  0.21270367573E+04  0.21270367573E+04  0.00000000000E+00 0. -1.
         22   -1    0    0    0    0 -0.00000000000E+00 -0.00000000000E+00 -0.28530968511E+03  0.28530968511E+03  0.00000000000E+00 0. -1.
         24    2    1    2    0    0  0.26633164594E+02  0.25154678286E+02 -0.18940933601E+03  0.20857428763E+03  0.79279591295E+02 0.  0.
         25    2    1    2    0    0 -0.10725384707E+02 -0.81456734303E+02 -0.19347792674E+02  0.15090501250E+03  0.12509097599E+03 0.  0.
        -24    2    1    2    0    0 -0.15907779887E+02  0.56302056017E+02  0.20504842009E+04  0.20528671423E+04  0.79718673443E+02 0.  0.
        -11    1    3    3    0    0 -0.84952585414E+01 -0.18056736538E+02 -0.13582469434E+02  0.24139151352E+02  0.00000000000E+00 0.  1.
         12    1    3    3    0    0  0.35128423135E+02  0.43211414824E+02 -0.17582686658E+03  0.18443513628E+03  0.00000000000E+00 0. -1.
         11    1    5    5    0    0 -0.38302099185E+02  0.38035058286E+02  0.17847485201E+04  0.17855646156E+04  0.00000000000E+00 0. -1.
        -12    1    5    5    0    0  0.22394319299E+02  0.18266997730E+02  0.26573568078E+03  0.26730252670E+03  0.00000000000E+00 0.  1.
          5    1    4    4  501    0  0.11621371418E+02 -0.10001378661E+03 -0.46445254964E+02  0.11096147031E+03  0.41800000000E+01 0.  1.
         -5    1    4    4    0  501 -0.22346756125E+02  0.18557052305E+02  0.27097462290E+02  0.39943542183E+02  0.41800000000E+01 0.  1.
</event>
<event>
11    1  0.6455215E-009  0.1451283E+03  0.7561462E-02  0.1101963E+00
         22   -1    0    0    0    0  0.00000000000E+00  0.00000000000E+00  0.33644062563E+03  0.33644062563E+03  0.00000000000E+00 0.  1.
         22   -1    0    0    0    0 -0.00000000000E+00 -0.00000000000E+00 -0.15501630171E+04  0.15501630171E+04  0.00000000000E+00 0.  1.
        -24    2    1    2    0    0 -0.19851018392E+02 -0.37864553353E+02 -0.14481598276E+04  0.14509846385E+04  0.79760562965E+02 0.  0.
         25    2    1    2    0    0 -0.18423082476E+02  0.97984253656E+02 -0.19068754929E+02  0.16108987098E+03  0.12508399253E+03 0.  0.
         24    2    1    2    0    0  0.38274100869E+02 -0.60119700302E+02  0.25350619103E+03  0.27452913333E+03  0.77598782162E+02 0.  0.
        -13    1    5    5    0    0  0.41258147626E+02 -0.65154023398E+02  0.25657983672E+03  0.26791882003E+03  0.00000000000E+00 0.  1.
         14    1    5    5    0    0 -0.29840467570E+01  0.50343230955E+01 -0.30736456950E+01  0.66103133009E+01  0.00000000000E+00 0. -1.
         13    1    3    3    0    0  0.25834730315E+02 -0.36110922722E+02 -0.77961840233E+03  0.78088173579E+03  0.00000000000E+00 0. -1.
        -14    1    3    3    0    0 -0.45685748708E+02 -0.17536306311E+01 -0.66854142528E+03  0.67010290267E+03  0.00000000000E+00 0.  1.
          5    1    4    4  501    0 -0.36794183499E+02 -0.12381439077E+02  0.18211381206E+02  0.43084089621E+02  0.41800000000E+01 0.  1.
         -5    1    4    4    0  501  0.18371101023E+02  0.11036569273E+03 -0.37280136135E+02  0.11800578136E+03  0.41800000000E+01 0.  1.
</event>
<event>
11    1  0.6455215E-009  0.1258506E+03  0.7561462E-02  0.1124475E+00
         22   -1    0    0    0    0  0.00000000000E+00  0.00000000000E+00  0.96863845379E+03  0.96863845379E+03  0.00000000000E+00 0.  1.
         22   -1    0    0    0    0 -0.00000000000E+00 -0.00000000000E+00 -0.15836657100E+03  0.15836657100E+03  0.00000000000E+00 0.  1.
        -24    2    1    2    0    0  0.47555124261E+02 -0.20398813522E+02 -0.10803164048E+03  0.14388429111E+03  0.79713565014E+02 0.  0.
         25    2    1    2    0    0 -0.34613157620E+02  0.29747799657E+02  0.12758094514E+03  0.18441093626E+03  0.12508994198E+03 0.  0.
         24    2    1    2    0    0 -0.12941966641E+02 -0.93489861347E+01  0.79072257813E+03  0.79870979741E+03  0.11153585470E+03 0.  0.
        -11    1    5    5    0    0  0.28927659111E+02 -0.46688825839E+02  0.45933274982E+03  0.46260483242E+03  0.00000000000E+00 0.  1.
         12    1    5    5    0    0 -0.41869625753E+02  0.37339839704E+02  0.33138982831E+03  0.33610496500E+03  0.00000000000E+00 0. -1.
         11    1    3    3    0    0  0.44193193008E+02  0.23372315946E+02 -0.46336054012E+02  0.68164018091E+02  0.00000000000E+00 0. -1.
        -12    1    3    3    0    0  0.33619312531E+01 -0.43771129467E+02 -0.61695586472E+02  0.75720273023E+02  0.00000000000E+00 0.  1.
          5    1    4    4  501    0 -0.87647819243E+01  0.77647916543E+02  0.68877270886E+02  0.10424764357E+03  0.41800000000E+01 0. -1.
         -5    1    4    4    0  501 -0.25848375696E+02 -0.47900116887E+02  0.58703674256E+02  0.80163292691E+02  0.41800000000E+01 0. -1.
</event>
<event>
11    1  0.6455215E-009  0.1451915E+03  0.7561462E-02  0.1101896E+00
         22   -1    0    0    0    0  0.00000000000E+00  0.00000000000E+00  0.13486393596E+04  0.13486393596E+04  0.00000000000E+00 0.  1.
         22   -1    0    0    0    0 -0.00000000000E+00 -0.00000000000E+00 -0.18252835659E+03  0.18252835659E+03  0.00000000000E+00 0. -1.
         24    2    1    2    0    0 -0.70627188057E+02  0.27940687038E+02 -0.14441057839E+03  0.18148372291E+03  0.79454671657E+02 0.  0.
         25    2    1    2    0    0  0.35258253544E+02 -0.29003716226E+02  0.23166852057E+03  0.26721120057E+03  0.12508861775E+03 0.  0.
        -24    2    1    2    0    0  0.35368934512E+02  0.10630291878E+01  0.10788530608E+04  0.10824727927E+04  0.81063731261E+02 0.  0.
        -11    1    3    3    0    0 -0.90475234682E+01 -0.24772532495E+02 -0.20451429075E+02  0.33373597324E+02  0.00000000000E+00 0.  1.
         12    1    3    3    0    0 -0.61579664588E+02  0.52713219534E+02 -0.12395914931E+03  0.14811012559E+03  0.00000000000E+00 0. -1.
         11    1    5    5    0    0 -0.20317401756E+02 -0.12623073791E+02  0.15428414278E+03  0.15612730549E+03  0.00000000000E+00 0. -1.
        -12    1    5    5    0    0  0.55686336268E+02  0.13686102978E+02  0.92456891800E+03  0.92634548717E+03  0.00000000000E+00 0.  1.
          5    1    4    4  501    0 -0.14774991198E+02  0.18601906473E+02  0.17805458130E+03  0.17968093280E+03  0.41800000000E+01 0. -1.
         -5    1    4    4    0  501  0.50033244742E+02 -0.47605622699E+02  0.53613939264E+02  0.87530267767E+02  0.41800000000E+01 0. -1.
</event>
<event>
11    1  0.6455215E-009  0.1478364E+03  0.7561462E-02  0.1099110E+00
         22   -1    0    0    0    0  0.00000000000E+00  0.00000000000E+00  0.20088167713E+03  0.20088167713E+03  0.00000000000E+00 0.  1.
         22   -1    0    0    0    0 -0.00000000000E+00 -0.00000000000E+00 -0.73227632360E+03  0.73227632360E+03  0.00000000000E+00 0.  1.
        -24    2    1    2    0    0 -0.63298702145E+02 -0.43378598679E+02 -0.61899165541E+03  0.62876043081E+03  0.79376201480E+02 0.  0.
         25    2    1    2    0    0  0.12419233326E+03  0.28393335999E+02  0.13858704133E+02  0.17908430286E+03  0.12509678925E+03 0.  0.
         24    2    1    2    0    0 -0.60893631116E+02  0.14985262680E+02  0.73738304813E+02  0.12531326706E+03  0.79583194812E+02 0.  0.
        -13    1    5    5    0    0 -0.63416915135E+02  0.23133787422E+02  0.86648130439E+02  0.10983977310E+03  0.00000000000E+00 0.  1.
         14    1    5    5    0    0  0.25232840191E+01 -0.81485247423E+01 -0.12909825625E+02  0.15473493962E+02  0.00000000000E+00 0. -1.
         13    1    3    3    0    0  0.63120444758E+01 -0.40137662371E+02 -0.24013025934E+03  0.24354345669E+03  0.00000000000E+00 0. -1.
        -14    1    3    3    0    0 -0.69610746621E+02 -0.32409363079E+01 -0.37886139607E+03  0.38521697411E+03  0.00000000000E+00 0.  1.
          5    1    4    4  501    0  0.94682246568E+02 -0.66912665642E+01 -0.44366554875E+02  0.10485878339E+03  0.41800000000E+01 0. -1.
         -5    1    4    4    0  501  0.29510086693E+02  0.35084602563E+02  0.58225259008E+02  0.74225519467E+02  0.41800000000E+01 0. -1.
</event>
<event>
11    1  0.6455215E-009  0.1581546E+03  0.7561462E-02  0.1088826E+00
         22   -1    0    0    0    0  0.00000000000E+00  0.00000000000E+00  0.84800863695E+03  0.84800863695E+03  0.00000000000E+00 0. -1.
         22   -1    0    0    0    0 -0.00000000000E+00 -0.00000000000E+00 -0.90904834453E+03  0.90904834453E+03  0.00000000000E+00 0. -1.
         24    2    1    2    0    0 -0.24593193142E+02  0.50074332389E+02 -0.68850103306E+03  0.69535483876E+03  0.79827409799E+02 0.  0.
         25    2    1    2    0    0 -0.27212365757E+02 -0.13100979685E+03 -0.17252656715E+03  0.25162919045E+03  0.12509098048E+03 0.  0.
        -24    2    1    2    0    0  0.51805558898E+02  0.80935464457E+02  0.79998789262E+03  0.81007295226E+03  0.83685090123E+02 0.  0.
        -13    1    3    3    0    0  0.24115703694E+02  0.14941502353E+02 -0.10478674918E+03  0.10855910124E+03  0.00000000000E+00 0.  1.
         14    1    3    3    0    0 -0.48708896836E+02  0.35132830036E+02 -0.58371428387E+03  0.58679573752E+03  0.00000000000E+00 0. -1.
         11    1    5    5    0    0 -0.34344134156E+01  0.29748413645E+02  0.49571568683E+03  0.49661937687E+03  0.00000000000E+00 0. -1.
        -12    1    5    5    0    0  0.55239972314E+02  0.51187050812E+02  0.30427220579E+03  0.31345357539E+03  0.00000000000E+00 0.  1.
          5    1    4    4  501    0  0.11042501820E+01  0.24543395134E+02 -0.20904518782E+02  0.32527971327E+02  0.41800000000E+01 0. -1.
         -5    1    4    4    0  501 -0.28316615939E+02 -0.15555319198E+03 -0.15162204836E+03  0.21910121913E+03  0.41800000000E+01 0. -1.
</event>
<event>
11    1  0.6455215E-009  0.1333750E+03  0.7561462E-02  0.1115190E+00
         22   -1    0    0    0    0  0.00000000000E+00  0.00000000000E+00  0.12420739306E+04  0.12420739306E+04  0.00000000000E+00 0. -1.
         22   -1    0    0    0    0 -0.00000000000E+00 -0.00000000000E+00 -0.69691141275E+02  0.69691141275E+02  0.00000000000E+00 0. -1.
        -24    2    1    2    0    0 -0.30610623541E+02  0.17740151107E+02 -0.11001676251E+02  0.87365283582E+02  0.79119736223E+02 0.  0.
         25    2    1    2    0    0  0.55669489888E+02  0.20721324932E+02  0.24477346794E+03  0.28122917516E+03  0.12508929987E+03 0.  0.
         24    2    1    2    0    0 -0.25058866347E+02 -0.38461476039E+02  0.93861099763E+03  0.94317061313E+03  0.80454761662E+02 0.  0.
        -13    1    5    5    0    0  0.14686451113E+01 -0.59020835228E+02  0.58711134696E+03  0.59007232577E+03  0.00000000000E+00 0.  1.
         14    1    5    5    0    0 -0.26527511458E+02  0.20559359189E+02  0.35149965067E+03  0.35309828736E+03  0.00000000000E+00 0. -1.
         13    1    3    3    0    0 -0.50970458916E+02 -0.91312462613E+01  0.37738078195E+00  0.51783296116E+02  0.00000000000E+00 0. -1.
        -14    1    3    3    0    0  0.20359835375E+02  0.26871397368E+02 -0.11379057033E+02  0.35581987465E+02  0.00000000000E+00 0.  1.
          5    1    4    4  501    0  0.40384910876E+02  0.73082901131E+02  0.15463900124E+03  0.17579176479E+03  0.41800000000E+01 0. -1.
         -5    1    4    4    0  501  0.15284579012E+02 -0.52361576199E+02  0.90134466704E+02  0.10543741037E+03  0.41800000000E+01 0. -1.
</event>
<event>
11    1  0.6455215E-009  0.1918312E+03  0.7561462E-02  0.1060455E+00
         22   -1    0    0    0    0  0.00000000000E+00  0.00000000000E+00  0.20324953077E+04  0.20324953077E+04  0.00000000000E+00 0. -1.
         22   -1    0    0    0    0 -0.00000000000E+00 -0.00000000000E+00 -0.31858397235E+03  0.31858397235E+03  0.00000000000E+00 0. -1.
        -24    2    1    2    0    0 -0.62200687686E+02  0.14167841750E+03 -0.25767731934E+03  0.31118314282E+03  0.80595582653E+02 0.  0.
         25    2    1    2    0    0  0.28964706998E+02 -0.79333943476E+02  0.14290192201E+03  0.20786805960E+03  0.12512130933E+03 0.  0.
         24    2    1    2    0    0  0.33235980688E+02 -0.62344474023E+02  0.18286867327E+04  0.18320280776E+04  0.85089641693E+02 0.  0.
        -13    1    5    5    0    0 -0.18892088460E+02 -0.38218938266E+02  0.41710891519E+03  0.41928205946E+03  0.00000000000E+00 0.  1.
         14    1    5    5    0    0  0.52128069148E+02 -0.24125535757E+02  0.14115778175E+04  0.14127460182E+04  0.00000000000E+00 0. -1.
         13    1    3    3    0    0 -0.38854108869E+02  0.14250430730E+03 -0.24030631962E+03  0.28207135024E+03  0.00000000000E+00 0. -1.
        -14    1    3    3    0    0 -0.23346578816E+02 -0.82588980256E+00 -0.17370999717E+02  0.29111792586E+02  0.00000000000E+00 0.  1.
          5    1    4    4  501    0  0.36125985553E+02 -0.44876559995E+02 -0.28859196675E+01  0.57834188863E+02  0.41800000000E+01 0. -1.
         -5    1    4    4    0  501 -0.71612785548E+01 -0.34457383481E+02  0.14578784168E+03  0.15003387073E+03  0.41800000000E+01 0. -1.
</event>
<event>
11    1  0.6455215E-009  0.1324345E+03  0.7561462E-02  0.1116313E+00
         22   -1    0    0    0    0  0.00000000000E+00  0.00000000000E+00  0.66575292859E+03  0.66575292859E+03  0.00000000000E+00 0.  1.
         22   -1    0    0    0    0 -0.00000000000E+00 -0.00000000000E+00 -0.36435029486E+03  0.36435029486E+03  0.00000000000E+00 0. -1.
         24    2    1    2    0    0 -0.15214588637E+02 -0.21559171345E+02 -0.28717096828E+03  0.29910942578E+03  0.79391447880E+02 0.  0.
         25    2    1    2    0    0  0.51019525121E+02  0.43975879443E+02  0.70673895908E+01  0.14224950511E+03  0.12509238103E+03 0.  0.
        -24    2    1    2    0    0 -0.35804936484E+02 -0.22416708098E+02  0.58150621242E+03  0.58874429255E+03  0.81767136734E+02 0.  0.
        -11    1    3    3    0    0  0.88883213778E+01  0.33802611062E+01  0.33862553634E+00  0.95154132498E+01  0.00000000000E+00 0.  1.
         12    1    3    3    0    0 -0.24102910015E+02 -0.24939432451E+02 -0.28750959381E+03  0.28959401253E+03  0.00000000000E+00 0. -1.
         13    1    5    5    0    0 -0.44895056498E+02  0.19533882017E+02  0.32654847288E+03  0.33019849150E+03  0.00000000000E+00 0. -1.
        -14    1    5    5    0    0  0.90901200138E+01 -0.41950590115E+02  0.25495773954E+03  0.25854580106E+03  0.00000000000E+00 0.  1.
          5    1    4    4  501    0 -0.27669285861E+02  0.42727340682E+02 -0.25365478669E+02  0.57027142046E+02  0.41800000000E+01 0. -1.
         -5    1    4    4    0  501  0.78688810982E+02  0.12485387607E+01  0.32432868259E+02  0.85222363065E+02  0.41800000000E+01 0. -1.
</event>
<event>
11    1  0.6455215E-009  0.1761956E+03  0.7561462E-02  0.1072762E+00
         22   -1    0    0    0    0  0.00000000000E+00  0.00000000000E+00  0.17032026426E+04  0.17032026426E+04  0.00000000000E+00 0.  1.
         22   -1    0    0    0    0 -0.00000000000E+00 -0.00000000000E+00 -0.80637441793E+03  0.80637441793E+03  0.00000000000E+00 0.  1.
         24    2    1    2    0    0 -0.27352199258E+02 -0.12142918756E+03 -0.78605809382E+03  0.79994299668E+03  0.80797776503E+02 0.  0.
         25    2    1    2    0    0  0.59106754183E+02  0.76146988881E+02  0.61103650783E+03  0.63111907753E+03  0.12511476262E+03 0.  0.
        -24    2    1    2    0    0 -0.31754554925E+02  0.45282198683E+02  0.10718498106E+04  0.10785149863E+04  0.10617782170E+03 0.  0.
        -13    1    3    3    0    0  0.11709995672E+02 -0.74966265256E+02 -0.58562270354E+03  0.59051758300E+03  0.00000000000E+00 0.  1.
         14    1    3    3    0    0 -0.39062194930E+02 -0.46462922307E+02 -0.20043539028E+03  0.20942541368E+03  0.00000000000E+00 0. -1.
         13    1    5    5    0    0  0.21074143603E+02 -0.15243593547E+02  0.99203194598E+02  0.10255613337E+03  0.00000000000E+00 0. -1.
        -14    1    5    5    0    0 -0.52828698528E+02  0.60525792231E+02  0.97264661603E+03  0.97595885292E+03  0.00000000000E+00 0.  1.
          5    1    4    4  501    0  0.87078931905E+01  0.31700156687E+02  0.50116543889E+03  0.50225988977E+03  0.41800000000E+01 0.  1.
         -5    1    4    4    0  501  0.50398860993E+02  0.44446832194E+02  0.10987106894E+03  0.12885918777E+03  0.41800000000E+01 0.  1.
</event>
<event>
11    1  0.6455215E-009  0.1357764E+03  0.7561462E-02  0.1112369E+00
         22   -1    0    0    0    0  0.00000000000E+00  0.00000000000E+00  0.47976195317E+03  0.47976195317E+03  0.00000000000E+00 0.  1.
         22   -1    0    0    0    0 -0.00000000000E+00 -0.00000000000E+00 -0.37785419364E+03  0.37785419364E+03  0.00000000000E+00 0. -1.
        -24    2    1    2    0    0 -0.10045511638E+02  0.55786262957E+02 -0.29270638704E+03  0.30800365779E+03  0.77305916700E+02 0.  0.
         25    2    1    2    0    0  0.62454837841E+01 -0.23902064713E+02 -0.17212359818E+02  0.12865597987E+03  0.12508309663E+03 0.  0.
         24    2    1    2    0    0  0.38000278540E+01 -0.31884198244E+02  0.41182650639E+03  0.42095650915E+03  0.81069531400E+02 0.  0.
        -13    1    5    5    0    0 -0.20882149325E+02 -0.49049098962E+02  0.31781362641E+03  0.32225359486E+03  0.00000000000E+00 0.  1.
         14    1    5    5    0    0  0.24682177179E+02  0.17164900718E+02  0.94012879981E+02  0.98702914290E+02  0.00000000000E+00 0. -1.
         13    1    3    3    0    0  0.10105058859E+02  0.13744130308E+02 -0.22586969192E+03  0.22651298210E+03  0.00000000000E+00 0. -1.
        -14    1    3    3    0    0 -0.20150570497E+02  0.42042132650E+02 -0.66836695124E+02  0.81490675688E+02  0.00000000000E+00 0.  1.
          5    1    4    4  501    0  0.32530820977E+02  0.42337356592E+02  0.52667544309E+01  0.53813726677E+02  0.41800000000E+01 0.  1.
         -5    1    4    4    0  501 -0.26285337193E+02 -0.66239421305E+02 -0.22479114249E+02  0.74842253197E+02  0.41800000000E+01 0.  1.
</event>
<event>
11    1  0.6455215E-009  0.1606661E+03  0.7561462E-02  0.1086452E+00
         22   -1    0    0    0    0  0.00000000000E+00  0.00000000000E+00  0.67705258938E+03  0.67705258938E+03  0.00000000000E+00 0. -1.
         22   -1    0    0    0    0 -0.00000000000E+00 -0.00000000000E+00 -0.78933611042E+03  0.78933611042E+03  0.00000000000E+00 0. -1.
         24    2    1    2    0    0  0.15175101558E+02  0.30377369352E+02 -0.74971497258E+03  0.75462066653E+03  0.78909707628E+02 0.  0.
         25    2    1    2    0    0 -0.96710209871E+02 -0.75999816754E+02  0.25179051491E+03  0.30688090881E+03  0.12509433223E+03 0.  0.
        -24    2    1    2    0    0  0.81535108314E+02  0.45622447401E+02  0.38564093664E+03  0.40488712446E+03  0.80531173759E+02 0.  0.
        -13    1    3    3    0    0 -0.67711219931E+01  0.70835447254E+01 -0.92853645314E+01  0.13499729383E+02  0.00000000000E+00 0.  1.
         14    1    3    3    0    0  0.21946223551E+02  0.23293824627E+02 -0.74042960805E+03  0.74112093715E+03  0.00000000000E+00 0. -1.
         13    1    5    5    0    0  0.46447794322E+02 -0.14131812478E+01  0.28185920677E+03  0.28566415092E+03  0.00000000000E+00 0. -1.
        -14    1    5    5    0    0  0.35087313991E+02  0.47035628649E+02  0.10378172987E+03  0.11922297354E+03  0.00000000000E+00 0.  1.
          5    1    4    4  501    0 -0.71745066676E+02 -0.36598734572E+02  0.24696696051E+03  0.25980179743E+03  0.41800000000E+01 0.  1.
         -5    1    4    4    0  501 -0.24965143195E+02 -0.39401082181E+02  0.48235544019E+01  0.47079111386E+02  0.41800000000E+01 0.  1.
</event>
<event>
11    1  0.6455215E-009  0.1523641E+03  0.7561462E-02  0.1094487E+00
         22   -1    0    0    0    0  0.00000000000E+00  0.00000000000E+00  0.20863930802E+04  0.20863930802E+04  0.00000000000E+00 0. -1.
         22   -1    0    0    0    0 -0.00000000000E+00 -0.00000000000E+00 -0.18240799589E+03  0.18240799589E+03  0.00000000000E+00 0. -1.
        -24    2    1    2    0    0  0.88187445423E+02 -0.30292639801E+02 -0.13330839022E+03  0.18135389458E+03  0.80146357500E+02 0.  0.
         25    2    1    2    0    0 -0.46523550697E+02 -0.33302510622E+02  0.17803941090E+03  0.22498715736E+03  0.12509073171E+03 0.  0.
         24    2    1    2    0    0 -0.41663894727E+02  0.63595150423E+02  0.18592540636E+04  0.18624600241E+04  0.78431148984E+02 0.  0.
        -13    1    5    5    0    0 -0.24660716858E+02  0.42095175240E+02  0.40219514453E+03  0.40514329443E+03  0.00000000000E+00 0.  1.
         14    1    5    5    0    0 -0.17003177868E+02  0.21499975183E+02  0.14570589191E+04  0.14573167297E+04  0.00000000000E+00 0. -1.
         13    1    3    3    0    0  0.27466872848E+02 -0.37481571706E+02 -0.10324057190E+03  0.11321622237E+03  0.00000000000E+00 0. -1.
        -14    1    3    3    0    0  0.60720572575E+02  0.71889319052E+01 -0.30067818320E+02  0.68137672211E+02  0.00000000000E+00 0.  1.
          5    1    4    4  501    0 -0.15148437057E+02 -0.29331927469E+02  0.18850063381E+03  0.19141525138E+03  0.41800000000E+01 0.  1.
         -5    1    4    4    0  501 -0.31375113640E+02 -0.39705831531E+01 -0.10461222906E+02  0.33571905980E+02  0.41800000000E+01 0.  1.
</event>
<event>
11    1  0.6455215E-009  0.1507438E+03  0.7561462E-02  0.1096121E+00
         22   -1    0    0    0    0  0.00000000000E+00  0.00000000000E+00  0.70118430787E+02  0.70118430787E+02  0.00000000000E+00 0.  1.
         22   -1    0    0    0    0 -0.00000000000E+00 -0.00000000000E+00 -0.11824008771E+04  0.11824008771E+04  0.00000000000E+00 0. -1.
        -24    2    1    2    0    0 -0.40130689337E+02  0.88679157604E+01 -0.86103313928E+03  0.86550437835E+03  0.77657258876E+02 0.  0.
         25    2    1    2    0    0  0.11194339793E+03  0.13432922037E+02 -0.21118277935E+03  0.27010514383E+03  0.12508738824E+03 0.  0.
         24    2    1    2    0    0 -0.71812708593E+02 -0.22300837797E+02 -0.40066527707E+02  0.11690978572E+03  0.80051101633E+02 0.  0.
        -11    1    5    5    0    0 -0.26196649596E+02 -0.10601551395E+02  0.24220604066E+02  0.37219551359E+02  0.00000000000E+00 0.  1.
         12    1    5    5    0    0 -0.45616058997E+02 -0.11699286403E+02 -0.64287131774E+02  0.79690234361E+02  0.00000000000E+00 0. -1.
         13    1    3    3    0    0 -0.49251847572E+02 -0.73581884275E+01 -0.29562882540E+03  0.29979374549E+03  0.00000000000E+00 0. -1.
        -14    1    3    3    0    0  0.91211582343E+01  0.16226104188E+02 -0.56540431388E+03  0.56571063287E+03  0.00000000000E+00 0.  1.
          5    1    4    4  501    0  0.57437905020E+01  0.48889313927E+02 -0.32277067239E+02  0.59012181921E+02  0.41800000000E+01 0. -1.
         -5    1    4    4    0  501  0.10619960743E+03 -0.35456391890E+02 -0.17890571211E+03  0.21109296191E+03  0.41800000000E+01 0. -1.
</event>
<event>
11    1  0.6455215E-009  0.3043874E+03  0.7561462E-02  0.9983513E-01
         22   -1    0    0    0    0  0.00000000000E+00  0.00000000000E+00  0.42292549311E+03  0.42292549311E+03  0.00000000000E+00 0. -1.
         22   -1    0    0    0    0 -0.00000000000E+00 -0.00000000000E+00 -0.14760246747E+04  0.14760246747E+04  0.00000000000E+00 0. -1.
        -24    2    1    2    0    0 -0.91459022041E+02  0.14988505736E+03 -0.11921303364E+04  0.12078376172E+04  0.82865477301E+02 0.  0.
         25    2    1    2    0    0  0.27884294287E+03  0.69925923979E+02 -0.75448118440E+02  0.32246308262E+03  0.12508796683E+03 0.  0.
         24    2    1    2    0    0 -0.18738392083E+03 -0.21981098134E+03  0.21447927330E+03  0.36864946797E+03  0.80445448959E+02 0.  0.
        -11    1    5    5    0    0 -0.53195830701E+01 -0.34594597070E+02  0.50689530814E+02  0.61599615621E+02  0.00000000000E+00 0.  1.
         12    1    5    5    0    0 -0.18206433776E+03 -0.18521638427E+03  0.16378974249E+03  0.30704985235E+03  0.00000000000E+00 0. -1.
         13    1    3    3    0    0 -0.99907683669E+02  0.15282586534E+03 -0.11662215134E+04  0.11804278499E+04  0.00000000000E+00 0. -1.
        -14    1    3    3    0    0  0.84486616288E+01 -0.29408079862E+01 -0.25908822993E+02  0.27409767307E+02  0.00000000000E+00 0.  1.
          5    1    4    4  501    0 -0.34986919268E+01  0.22802639737E+01  0.16792517609E+02  0.17801727350E+02  0.41800000000E+01 0.  1.
         -5    1    4    4    0  501  0.28234163480E+03  0.67645660005E+02 -0.92240636049E+02  0.30466135527E+03  0.41800000000E+01 0.  1.
</event>
<event>
11    1  0.6455215E-009  0.2070943E+03  0.7561462E-02  0.1049617E+00
         22   -1    0    0    0    0  0.00000000000E+00  0.00000000000E+00  0.15188121660E+03  0.15188121660E+03  0.00000000000E+00 0.  1.
         22   -1    0    0    0    0 -0.00000000000E+00 -0.00000000000E+00 -0.16240575039E+04  0.16240575039E+04  0.00000000000E+00 0.  1.
        -24    2    1    2    0    0  0.19358302441E+02 -0.14736681457E+02 -0.11422379893E+04  0.11452863131E+04  0.79882421140E+02 0.  0.
         25    2    1    2    0    0 -0.68923980040E+02 -0.14388031130E+03 -0.38653132748E+03  0.43647802053E+03  0.12511808933E+03 0.  0.
         24    2    1    2    0    0  0.49565677599E+02  0.15861699276E+03  0.56593029469E+02  0.19417438685E+03  0.82974783732E+02 0.  0.
        -11    1    5    5    0    0  0.29920706876E+02  0.14603977128E+03  0.19481566990E+02  0.15034092905E+03  0.00000000000E+00 0.  1.
         12    1    5    5    0    0  0.19644970723E+02  0.12577221476E+02  0.37111462480E+02  0.43833457794E+02  0.00000000000E+00 0. -1.
         11    1    3    3    0    0  0.49091218889E+01  0.11748802970E+02 -0.29394207832E+02  0.32033627690E+02  0.00000000000E+00 0. -1.
        -12    1    3    3    0    0  0.14449180552E+02 -0.26485484426E+02 -0.11128437815E+04  0.11132526854E+04  0.00000000000E+00 0.  1.
          5    1    4    4  501    0 -0.35308163686E+02  0.14513688880E+02 -0.50477115775E+02  0.63424957270E+02  0.41800000000E+01 0.  1.
         -5    1    4    4    0  501 -0.33615816354E+02 -0.15839400018E+03 -0.33605421171E+03  0.37305306326E+03  0.41800000000E+01 0.  1.
</event>
<event>
11    1  0.7547580E-009  0.2449417E+03  0.7561462E-02  0.1026629E+00
         22   -1    0    0    0    0  0.00000000000E+00  0.00000000000E+00  0.83147195331E+03  0.83147195331E+03  0.00000000000E+00 0. -1.
         22   -1    0    0    0    0 -0.00000000000E+00 -0.00000000000E+00 -0.71706334924E+03  0.71706334924E+03  0.00000000000E+00 0. -1.
        -24    2    1    2    0    0 -0.95790862544E+01 -0.40997341397E+02 -0.46775991505E+03  0.47634964872E+03  0.79605959682E+02 0.  0.
         25    2    1    2    0    0 -0.15930234925E+03  0.16485970612E+03 -0.15349888122E+03  0.30293368146E+03  0.12510374755E+03 0.  0.
         24    2    1    2    0    0  0.16888143551E+03 -0.12386236472E+03  0.73566740033E+03  0.76925197237E+03  0.81726669053E+02 0.  0.
        -13    1    5    5    0    0  0.52442708394E+02  0.70389974597E+00  0.13429205411E+03  0.14417034694E+03  0.00000000000E+00 0.  1.
         14    1    5    5    0    0  0.11643872711E+03 -0.12456626447E+03  0.60137534621E+03  0.62508162543E+03  0.00000000000E+00 0. -1.
         11    1    3    3    0    0  0.30132655542E+01 -0.57306794628E+02 -0.42530118069E+03  0.42915526652E+03  0.00000000000E+00 0. -1.
        -12    1    3    3    0    0 -0.12592351809E+02  0.16309453231E+02 -0.42458734356E+02  0.47194382207E+02  0.00000000000E+00 0.  1.
          5    1    4    4  501    0 -0.17058471457E+03  0.16742323968E+03 -0.12048226665E+03  0.26769971051E+03  0.41800000000E+01 0. -1.
         -5    1    4    4    0  501  0.11282365317E+02 -0.25635335641E+01 -0.33016614568E+02  0.35233970952E+02  0.41800000000E+01 0. -1.
</event>
<event>
11    1  0.6455215E-009  0.1554797E+03  0.7561462E-02  0.1091407E+00
         22   -1    0    0    0    0  0.00000000000E+00  0.00000000000E+00  0.16844500585E+03  0.16844500585E+03  0.00000000000E+00 0.  1.
         22   -1    0    0    0    0 -0.00000000000E+00 -0.00000000000E+00 -0.47066019759E+04  0.47066019759E+04  0.00000000000E+00 0.  1.
         24    2    1    2    0    0 -0.16975750344E+02 -0.11067025233E+02 -0.31825561215E+04  0.31836793090E+04  0.82096414174E+02 0.  0.
         25    2    1    2    0    0  0.54242560209E+02  0.95283247657E+02 -0.14961173013E+04  0.15053351976E+04  0.12508367383E+03 0.  0.
        -24    2    1    2    0    0 -0.37266809865E+02 -0.84216222424E+02  0.14051645270E+03  0.18603247509E+03  0.79887552672E+02 0.  0.
        -13    1    3    3    0    0 -0.21148954773E+02  0.32196236944E+02 -0.18902904916E+04  0.18906829503E+04  0.00000000000E+00 0.  1.
         14    1    3    3    0    0  0.41732044288E+01 -0.43263262177E+02 -0.12922656299E+04  0.12929963587E+04  0.00000000000E+00 0. -1.
         13    1    5    5    0    0 -0.15716495316E+02  0.34351336506E+01 -0.31225212737E+01  0.16387754798E+02  0.00000000000E+00 0. -1.
        -14    1    5    5    0    0 -0.21550314549E+02 -0.87651356074E+02  0.14363897397E+03  0.16964472029E+03  0.00000000000E+00 0.  1.
          5    1    4    4  501    0  0.54358224096E+01  0.11276642208E+03 -0.93104261844E+03  0.93787186965E+03  0.41800000000E+01 0.  1.
         -5    1    4    4    0  501  0.48806737800E+02 -0.17483174422E+02 -0.56507468283E+03  0.56746332799E+03  0.41800000000E+01 0.  1.
</event>
<event>
11    1  0.6455215E-009  0.1301967E+03  0.7561462E-02  0.1119028E+00
         22   -1    0    0    0    0  0.00000000000E+00  0.00000000000E+00  0.89063613987E+02  0.89063613987E+02  0.00000000000E+00 0. -1.
         22   -1    0    0    0    0 -0.00000000000E+00 -0.00000000000E+00 -0.42664401596E+03  0.42664401596E+03  0.00000000000E+00 0. -1.
        -24    2    1    2    0    0 -0.71108688805E+01 -0.44516678631E+02 -0.20276136526E+03  0.22254852813E+03  0.79896038671E+02 0.  0.
         25    2    1    2    0    0 -0.53622340112E+01  0.16894082966E+02 -0.15845346090E+03  0.20265258911E+03  0.12508560671E+03 0.  0.
         24    2    1    2    0    0  0.12473102892E+02  0.27622595665E+02  0.23634424194E+02  0.90506512712E+02  0.81940568397E+02 0.  0.
        -13    1    5    5    0    0  0.23166029859E+02  0.45906518372E+02 -0.84006633623E+01  0.52102250559E+02  0.00000000000E+00 0.  1.
         14    1    5    5    0    0 -0.10692926967E+02 -0.18283922707E+02  0.32035087557E+02  0.38404262152E+02  0.00000000000E+00 0. -1.
         13    1    3    3    0    0  0.21241338879E+02 -0.32347308695E+02 -0.18024557937E+03  0.18435295425E+03  0.00000000000E+00 0. -1.
        -14    1    3    3    0    0 -0.28352207760E+02 -0.12169369936E+02 -0.22515785890E+02  0.38195573876E+02  0.00000000000E+00 0.  1.
          5    1    4    4  501    0 -0.27051253418E+01 -0.48279014480E+02 -0.11316686057E+03  0.12313566370E+03  0.41800000000E+01 0. -1.
         -5    1    4    4    0  501 -0.26571086693E+01  0.65173097446E+02 -0.45286600330E+02  0.79516925410E+02  0.41800000000E+01 0. -1.
</event>
<event>
11    1  0.6455215E-009  0.1607063E+03  0.7561462E-02  0.1086415E+00
         22   -1    0    0    0    0  0.00000000000E+00  0.00000000000E+00  0.21633393613E+04  0.21633393613E+04  0.00000000000E+00 0. -1.
         22   -1    0    0    0    0 -0.00000000000E+00 -0.00000000000E+00 -0.40582113964E+02  0.40582113964E+02  0.00000000000E+00 0. -1.
         24    2    1    2    0    0  0.82924812938E+02  0.27473480600E+02  0.17660748402E+03  0.21329704511E+03  0.81695222043E+02 0.  0.
         25    2    1    2    0    0 -0.13968111785E+03  0.24780156207E+02  0.42429905217E+03  0.46454467256E+03  0.12508875371E+03 0.  0.
        -24    2    1    2    0    0  0.56756304917E+02 -0.52253636807E+02  0.15218507111E+04  0.15260797576E+04  0.83295370851E+02 0.  0.
        -11    1    3    3    0    0  0.42307990565E+01 -0.24162070042E+02  0.48263919104E+02  0.54139737500E+02  0.00000000000E+00 0.  1.
         12    1    3    3    0    0  0.78694013881E+02  0.51635550642E+02  0.12834356492E+03  0.15915730761E+03  0.00000000000E+00 0. -1.
         13    1    5    5    0    0  0.59639161967E+02 -0.37621691138E+02  0.60313155815E+03  0.60723957193E+03  0.00000000000E+00 0. -1.
        -14    1    5    5    0    0 -0.28828570508E+01 -0.14631945669E+02  0.91871915300E+03  0.91884018566E+03  0.00000000000E+00 0.  1.
          5    1    4    4  501    0 -0.10880247751E+03 -0.34939834580E+02  0.20037590007E+03  0.23070922149E+03  0.41800000000E+01 0. -1.
         -5    1    4    4    0  501 -0.30878640341E+02  0.59719990788E+02  0.22392315210E+03  0.23383545107E+03  0.41800000000E+01 0. -1.
</event>
<event>
11    1  0.6455215E-009  0.1433013E+03  0.7561462E-02  0.1103927E+00
         22   -1    0    0    0    0  0.00000000000E+00  0.00000000000E+00  0.67810340127E+02  0.67810340127E+02  0.00000000000E+00 0. -1.
         22   -1    0    0    0    0 -0.00000000000E+00 -0.00000000000E+00 -0.66404580149E+03  0.66404580149E+03  0.00000000000E+00 0.  1.
        -24    2    1    2    0    0  0.74616736684E+02  0.88754161628E+02 -0.12588866303E+03  0.19194847821E+03  0.86898240532E+02 0.  0.
         25    2    1    2    0    0 -0.20574329907E+02 -0.50879277751E+02 -0.39014020979E+03  0.41336316069E+03  0.12509082847E+03 0.  0.
         24    2    1    2    0    0 -0.54042406778E+02 -0.37874883878E+02 -0.80206588540E+02  0.12654450271E+03  0.72286414785E+02 0.  0.
        -13    1    5    5    0    0 -0.38860471780E+02 -0.45566652869E+02 -0.89089107970E+02  0.10734675253E+03  0.00000000000E+00 0.  1.
         14    1    5    5    0    0 -0.15181934998E+02  0.76917689912E+01  0.88825194301E+01  0.19197750178E+02  0.00000000000E+00 0. -1.
         13    1    3    3    0    0  0.76647150222E+02  0.75697300117E+02 -0.57141016663E+02  0.12194245638E+03  0.00000000000E+00 0. -1.
        -14    1    3    3    0    0 -0.20304135382E+01  0.13056861511E+02 -0.68747646366E+02  0.70006021830E+02  0.00000000000E+00 0.  1.
          5    1    4    4  501    0  0.48765071609E+01 -0.46869107434E+02 -0.38353117196E+03  0.38643773861E+03  0.41800000000E+01 0.  1.
         -5    1    4    4    0  501 -0.25450837068E+02 -0.40101703166E+01 -0.66090378270E+01  0.26925422084E+02  0.41800000000E+01 0.  1.
</event>
<event>
11    1  0.6455215E-009  0.1388233E+03  0.7561462E-02  0.1108880E+00
         22   -1    0    0    0    0  0.00000000000E+00  0.00000000000E+00  0.36108651990E+03  0.36108651990E+03  0.00000000000E+00 0. -1.
         22   -1    0    0    0    0 -0.00000000000E+00 -0.00000000000E+00 -0.44052728463E+03  0.44052728463E+03  0.00000000000E+00 0. -1.
         24    2    1    2    0    0 -0.18715537331E+02 -0.34410072178E+02 -0.38682489679E+03  0.39640951705E+03  0.77283116040E+02 0.  0.
         25    2    1    2    0    0 -0.22286004046E+02 -0.22341823649E+02  0.77275154574E+02  0.15037930511E+03  0.12508662131E+03 0.  0.
        -24    2    1    2    0    0  0.41001541377E+02  0.56751895827E+02  0.23010897749E+03  0.25482498236E+03  0.84164874131E+02 0.  0.
        -13    1    3    3    0    0 -0.16690435045E+02  0.26739066200E+01 -0.14597744490E+02  0.22334156416E+02  0.00000000000E+00 0.  1.
         14    1    3    3    0    0 -0.20251022864E+01 -0.37083978798E+02 -0.37222715230E+03  0.37407536064E+03  0.00000000000E+00 0. -1.
         11    1    5    5    0    0  0.13642836719E+02  0.66926096392E+02  0.20580191114E+03  0.21684016234E+03  0.00000000000E+00 0. -1.
        -12    1    5    5    0    0  0.27358704659E+02 -0.10174200565E+02  0.24307066347E+02  0.37984820023E+02  0.00000000000E+00 0.  1.
          5    1    4    4  501    0  0.86388283707E+01 -0.29668414902E+01  0.10429661224E+03  0.10477923090E+03  0.41800000000E+01 0.  1.
         -5    1    4    4    0  501 -0.30924832417E+02 -0.19374982158E+02 -0.27021457665E+02  0.45600074210E+02  0.41800000000E+01 0.  1.
</event>
<event>
11    1  0.6455215E-009  0.1856237E+03  0.7561462E-02  0.1065183E+00
         22   -1    0    0    0    0  0.00000000000E+00  0.00000000000E+00  0.33070362530E+03  0.33070362530E+03  0.00000000000E+00 0.  1.
         22   -1    0    0    0    0 -0.00000000000E+00 -0.00000000000E+00 -0.17009079291E+04  0.17009079291E+04  0.00000000000E+00 0.  1.
        -24    2    1    2    0    0 -0.65586668917E+02 -0.60153415345E+02 -0.47600457676E+03  0.49099253253E+03  0.81075676929E+02 0.  0.
         25    2    1    2    0    0  0.19872413548E+03  0.87335598496E+02 -0.11842248193E+04  0.12104357816E+04  0.12509024771E+03 0.  0.
         24    2    1    2    0    0 -0.13313746657E+03 -0.27182183151E+02  0.29002509222E+03  0.33018324025E+03  0.80261833654E+02 0.  0.
        -11    1    5    5    0    0 -0.93736785870E+02 -0.49180734701E+02  0.15403366427E+03  0.18690023922E+03  0.00000000000E+00 0.  1.
         12    1    5    5    0    0 -0.39400680695E+02  0.21998551550E+02  0.13599142795E+03  0.14328300103E+03  0.00000000000E+00 0. -1.
         11    1    3    3    0    0  0.79942082399E+01 -0.23529097886E+02 -0.23599299621E+03  0.23729774561E+03  0.00000000000E+00 0. -1.
        -12    1    3    3    0    0 -0.73580877157E+02 -0.36624317459E+02 -0.24001158055E+03  0.25369478692E+03  0.00000000000E+00 0.  1.
          5    1    4    4  501    0  0.15526564191E+03  0.11963975763E+03 -0.90886204911E+03  0.92976813662E+03  0.41800000000E+01 0.  1.
         -5    1    4    4    0  501  0.43458493576E+02 -0.32304159135E+02 -0.27536277017E+03  0.28066764502E+03  0.41800000000E+01 0.  1.
</event>
<event>
11    1  0.6455215E-009  0.1363953E+03  0.7561462E-02  0.1111652E+00
         22   -1    0    0    0    0  0.00000000000E+00  0.00000000000E+00  0.11740461290E+03  0.11740461290E+03  0.00000000000E+00 0. -1.
         22   -1    0    0    0    0 -0.00000000000E+00 -0.00000000000E+00 -0.15123774184E+04  0.15123774184E+04  0.00000000000E+00 0. -1.
         24    2    1    2    0    0 -0.66987709353E+01 -0.52489593720E+02 -0.12809797529E+04  0.12846039508E+04  0.80611115607E+02 0.  0.
         25    2    1    2    0    0  0.54691857467E+02  0.22533226155E+02 -0.18026075104E+03  0.22724851912E+03  0.12509598525E+03 0.  0.
        -24    2    1    2    0    0 -0.47993086531E+02  0.29956367564E+02  0.66267698528E+02  0.11792956133E+03  0.79468567722E+02 0.  0.
        -11    1    3    3    0    0  0.28132950756E+02 -0.35733957069E+02 -0.36699403978E+03  0.36980130318E+03  0.00000000000E+00 0.  1.
         12    1    3    3    0    0 -0.34831721692E+02 -0.16755636650E+02 -0.91398571317E+03  0.91480264761E+03  0.00000000000E+00 0. -1.
         13    1    5    5    0    0 -0.65231848196E+02  0.24914482870E+02  0.70762673428E+02  0.99414694218E+02  0.00000000000E+00 0. -1.
        -14    1    5    5    0    0  0.17238761664E+02  0.50418846938E+01 -0.44949749003E+01  0.18514867116E+02  0.00000000000E+00 0.  1.
          5    1    4    4  501    0 -0.29746821538E+01  0.65648894451E+02 -0.94713023214E+02  0.11535447647E+03  0.41800000000E+01 0.  1.
         -5    1    4    4    0  501  0.57666539621E+02 -0.43115668295E+02 -0.85547727824E+02  0.11189404265E+03  0.41800000000E+01 0.  1.
</event>
<event>
11    1  0.6455215E-009  0.1489049E+03  0.7561462E-02  0.1098003E+00
         22   -1    0    0    0    0  0.00000000000E+00  0.00000000000E+00  0.82325916436E+03  0.82325916436E+03  0.00000000000E+00 0. -1.
         22   -1    0    0    0    0 -0.00000000000E+00 -0.00000000000E+00 -0.48348611179E+03  0.48348611179E+03  0.00000000000E+00 0. -1.
         24    2    1    2    0    0 -0.79990389111E-01  0.36590611292E+01 -0.43960183142E+03  0.44661674889E+03  0.78761380617E+02 0.  0.
         25    2    1    2    0    0 -0.57194014779E+02 -0.60187416660E+02  0.12354255329E+03  0.19443179312E+03  0.12508908527E+03 0.  0.
        -24    2    1    2    0    0  0.57274005168E+02  0.56528355531E+02  0.65583233070E+03  0.66569673413E+03  0.80995859086E+02 0.  0.
        -11    1    3    3    0    0 -0.99775222174E+01 -0.34717932921E+02 -0.27224645813E+03  0.27463251770E+03  0.00000000000E+00 0.  1.
         12    1    3    3    0    0  0.98975318283E+01  0.38376994050E+02 -0.16735537329E+03  0.17198423119E+03  0.00000000000E+00 0. -1.
         13    1    5    5    0    0  0.67894728134E+01 -0.95818198856E+01  0.30161466257E+03  0.30184319255E+03  0.00000000000E+00 0. -1.
        -14    1    5    5    0    0  0.50484532355E+02  0.66110175416E+02  0.35421766814E+03  0.36385354158E+03  0.00000000000E+00 0.  1.
          5    1    4    4  501    0 -0.50083900719E+02 -0.80008513009E+02  0.31011976778E+02  0.99443322394E+02  0.41800000000E+01 0.  1.
         -5    1    4    4    0  501 -0.71101140601E+01  0.19821096349E+02  0.92530576509E+02  0.94988470729E+02  0.41800000000E+01 0.  1.
</event>
<event>
11    1  0.6455215E-009  0.1704802E+03  0.7561462E-02  0.1077615E+00
         22   -1    0    0    0    0  0.00000000000E+00  0.00000000000E+00  0.60909625045E+02  0.60909625045E+02  0.00000000000E+00 0.  1.
         22   -1    0    0    0    0 -0.00000000000E+00 -0.00000000000E+00 -0.16074113639E+04  0.16074113639E+04  0.00000000000E+00 0.  1.
        -24    2    1    2    0    0  0.59893565861E+02 -0.11794043625E+03 -0.10816810058E+04  0.10928657854E+04  0.82611384822E+02 0.  0.
         25    2    1    2    0    0 -0.22183727730E+02  0.78817174022E+02 -0.45388717237E+03  0.47786755374E+03  0.12505826236E+03 0.  0.
         24    2    1    2    0    0 -0.37709838131E+02  0.39123262231E+02 -0.10933560725E+02  0.97587649815E+02  0.80319020829E+02 0.  0.
        -13    1    5    5    0    0 -0.45043076565E+02  0.32676585115E+01  0.20261992490E+02  0.49498532082E+02  0.00000000000E+00 0.  1.
         14    1    5    5    0    0  0.73332384339E+01  0.35855603720E+02 -0.31195553215E+02  0.48089117734E+02  0.00000000000E+00 0. -1.
         13    1    3    3    0    0  0.62781859376E+02 -0.39080976159E+02 -0.63216535691E+03  0.63647617633E+03  0.00000000000E+00 0. -1.
        -14    1    3    3    0    0 -0.28882935148E+01 -0.78859460095E+02 -0.44951564887E+03  0.45638960907E+03  0.00000000000E+00 0.  1.
          5    1    4    4  501    0  0.35150076920E+00  0.11038420750E+03 -0.33378200676E+03  0.35158597421E+03  0.41800000000E+01 0. -1.
         -5    1    4    4    0  501 -0.22535228499E+02 -0.31567033479E+02 -0.12010516560E+03  0.12628157954E+03  0.41800000000E+01 0. -1.
</event>
<event>
11    1  0.6455215E-009  0.1481439E+03  0.7561462E-02  0.1098791E+00
         22   -1    0    0    0    0  0.00000000000E+00  0.00000000000E+00  0.14277271467E+04  0.14277271467E+04  0.00000000000E+00 0. -1.
         22   -1    0    0    0    0 -0.00000000000E+00 -0.00000000000E+00 -0.65986495902E+03  0.65986495902E+03  0.00000000000E+00 0. -1.
        -24    2    1    2    0    0 -0.42359972657E+02 -0.28058341923E+02 -0.64438826468E+03  0.65056388441E+03  0.73590041484E+02 0.  0.
         25    2    1    2    0    0 -0.41062268003E+02 -0.27039949406E+02  0.60600101486E+03  0.62072738044E+03  0.12509189464E+03 0.  0.
         24    2    1    2    0    0  0.83422240661E+02  0.55098291329E+02  0.80624943748E+03  0.81630084085E+03  0.79459520440E+02 0.  0.
        -11    1    5    5    0    0  0.65527017324E+02  0.24626639732E+02  0.27130231383E+03  0.28018780644E+03  0.00000000000E+00 0.  1.
         12    1    5    5    0    0  0.17895223336E+02  0.30471651597E+02  0.53494712364E+03  0.53611303441E+03  0.00000000000E+00 0. -1.
         11    1    3    3    0    0 -0.58994886566E+02 -0.29466964168E+02 -0.38241174807E+03  0.38805598008E+03  0.00000000000E+00 0. -1.
        -12    1    3    3    0    0  0.16634913909E+02  0.14086222443E+01 -0.26197651661E+03  0.26250790433E+03  0.00000000000E+00 0.  1.
          5    1    4    4  501    0 -0.38365392487E+02 -0.66645766998E+02  0.22865742175E+03  0.24127836729E+03  0.41800000000E+01 0.  1.
         -5    1    4    4    0  501 -0.26968755166E+01  0.39605817593E+02  0.37734359311E+03  0.37944901315E+03  0.41800000000E+01 0.  1.
</event>
<event>
11    1  0.6455215E-009  0.1428042E+03  0.7561462E-02  0.1104467E+00
         22   -1    0    0    0    0  0.00000000000E+00  0.00000000000E+00  0.15937025675E+04  0.15937025675E+04  0.00000000000E+00 0. -1.
         22   -1    0    0    0    0 -0.00000000000E+00 -0.00000000000E+00 -0.11901090539E+03  0.11901090539E+03  0.00000000000E+00 0. -1.
         24    2    1    2    0    0 -0.17917186019E+02  0.58488584054E+02 -0.57050051172E+02  0.11639683472E+03  0.80941798687E+02 0.  0.
         25    2    1    2    0    0  0.76774524293E+02 -0.20889522740E+02  0.15171554917E+03  0.21212181820E+03  0.12508940065E+03 0.  0.
        -24    2    1    2    0    0 -0.58857338274E+02 -0.37599061315E+02  0.13800261641E+04  0.13841948200E+04  0.81518159500E+02 0.  0.
        -13    1    3    3    0    0 -0.88424881477E+01 -0.23880784186E+01  0.17481864965E+02  0.19735960018E+02  0.00000000000E+00 0.  1.
         14    1    3    3    0    0 -0.90746978713E+01  0.60876662473E+02 -0.74531916137E+02  0.96660874703E+02  0.00000000000E+00 0. -1.
         13    1    5    5    0    0 -0.48805747650E+02 -0.27433025265E+02  0.13475343129E+04  0.13486968882E+04  0.00000000000E+00 0. -1.
        -14    1    5    5    0    0 -0.10051590624E+02 -0.10166036049E+02  0.32491851233E+02  0.35497931764E+02  0.00000000000E+00 0.  1.
          5    1    4    4  501    0  0.38291814915E+02  0.47515566852E+02  0.32328954281E+02  0.69185445490E+02  0.41800000000E+01 0.  1.
         -5    1    4    4    0  501  0.38482709378E+02 -0.68405089591E+02  0.11938659489E+03  0.14293637271E+03  0.41800000000E+01 0.  1.
</event>
<event>
11    1  0.6455215E-009  0.1408832E+03  0.7561462E-02  0.1106576E+00
         22   -1    0    0    0    0  0.00000000000E+00  0.00000000000E+00  0.12305956609E+04  0.12305956609E+04  0.00000000000E+00 0. -1.
         22   -1    0    0    0    0 -0.00000000000E+00 -0.00000000000E+00 -0.11179599304E+03  0.11179599304E+03  0.00000000000E+00 0. -1.
        -24    2    1    2    0    0 -0.67956216921E+01 -0.73209378424E+02 -0.27923646687E+02  0.11330754080E+03  0.81566385205E+02 0.  0.
         25    2    1    2    0    0  0.29948144160E+02  0.37421170797E+02  0.74966633593E+02  0.15350887681E+03  0.12509094190E+03 0.  0.
         24    2    1    2    0    0 -0.23152522468E+02  0.35788207627E+02  0.10717566810E+04  0.10755752363E+04  0.79892870222E+02 0.  0.
        -11    1    5    5    0    0 -0.11578685343E+01 -0.25086501242E+02  0.36385250903E+03  0.36471813985E+03  0.00000000000E+00 0.  1.
         12    1    5    5    0    0 -0.21994653933E+02  0.60874708869E+02  0.70790417194E+03  0.71085709649E+03  0.00000000000E+00 0. -1.
         13    1    3    3    0    0  0.91237352576E+01 -0.74537271657E+02  0.64833859733E+01  0.75372950750E+02  0.00000000000E+00 0. -1.
        -14    1    3    3    0    0 -0.15919356950E+02  0.13278932327E+01 -0.34407032660E+02  0.37934590054E+02  0.00000000000E+00 0.  1.
          5    1    4    4  501    0 -0.41750065038E+02  0.39953198626E+02  0.14838875366E+02  0.59807947910E+02  0.41800000000E+01 0.  1.
         -5    1    4    4    0  501  0.71698209197E+02 -0.25320278296E+01  0.60127758227E+02  0.93700928898E+02  0.41800000000E+01 0.  1.
</event>
<event>
11    1  0.6455215E-009  0.1371711E+03  0.7561462E-02  0.1110759E+00
         22   -1    0    0    0    0  0.00000000000E+00  0.00000000000E+00  0.21770746847E+04  0.21770746847E+04  0.00000000000E+00 0.  1.
         22   -1    0    0    0    0 -0.00000000000E+00 -0.00000000000E+00 -0.84878906500E+02  0.84878906500E+02  0.00000000000E+00 0. -1.
         24    2    1    2    0    0  0.46575536979E+02 -0.28806579352E+02 -0.21146334381E+02  0.10094799697E+03  0.82123266951E+02 0.  0.
         25    2    1    2    0    0 -0.35967660852E+02 -0.28420016655E+02  0.17419659796E+03  0.21930638933E+03  0.12509783245E+03 0.  0.
        -24    2    1    2    0    0 -0.10607876127E+02  0.57226596007E+02  0.19391455147E+04  0.19416992050E+04  0.80765494762E+02 0.  0.
        -11    1    3    3    0    0  0.95712376091E+01  0.24405563024E+02  0.11203975586E+02  0.28509106700E+02  0.00000000000E+00 0.  1.
         12    1    3    3    0    0  0.37004299370E+02 -0.53212142376E+02 -0.32350309966E+02  0.72438890266E+02  0.00000000000E+00 0. -1.
         11    1    5    5    0    0 -0.44537308075E+02  0.19123543188E+02  0.91052674567E+03  0.91181590044E+03  0.00000000000E+00 0. -1.
        -12    1    5    5    0    0  0.33929431949E+02  0.38103052819E+02  0.10286187690E+04  0.10298833045E+04  0.00000000000E+00 0.  1.
          5    1    4    4  501    0  0.45728431713E+02 -0.22572751510E+02  0.69959841507E+02  0.86674508370E+02  0.41800000000E+01 0.  1.
         -5    1    4    4    0  501 -0.81696092565E+02 -0.58472651458E+01  0.10423675645E+03  0.13263188096E+03  0.41800000000E+01 0.  1.
</event>
<event>
11    1  0.6455215E-009  0.2112040E+03  0.7561462E-02  0.1046872E+00
         22   -1    0    0    0    0  0.00000000000E+00  0.00000000000E+00  0.29187441965E+03  0.29187441965E+03  0.00000000000E+00 0.  1.
         22   -1    0    0    0    0 -0.00000000000E+00 -0.00000000000E+00 -0.36718620328E+03  0.36718620328E+03  0.00000000000E+00 0. -1.
         24    2    1    2    0    0  0.91290225610E+02 -0.21012208747E+02 -0.18957017722E+03  0.22574647606E+03  0.79051888990E+02 0.  0.
         25    2    1    2    0    0  0.99748090015E+01  0.17196430964E+03  0.98942502057E+02  0.23475019560E+03  0.12508722962E+03 0.  0.
        -24    2    1    2    0    0 -0.10126503461E+03 -0.15095210089E+03  0.15315891527E+02  0.19856395127E+03  0.78434190327E+02 0.  0.
        -13    1    3    3    0    0 -0.38841201022E+01  0.11627212676E+02 -0.13651100778E+01  0.12334585080E+02  0.00000000000E+00 0.  1.
         14    1    3    3    0    0  0.95174345712E+02 -0.32639421423E+02 -0.18820506714E+03  0.21341189098E+03  0.00000000000E+00 0. -1.
         13    1    5    5    0    0 -0.11163589128E+03 -0.12163615267E+03  0.30269798297E+01  0.16512749155E+03  0.00000000000E+00 0. -1.
        -14    1    5    5    0    0  0.10370856665E+02 -0.29315948225E+02  0.12288911698E+02  0.33436459726E+02  0.00000000000E+00 0.  1.
          5    1    4    4  501    0 -0.29296828527E+02  0.53477923196E+01 -0.10125155167E+02  0.31731596423E+02  0.41800000000E+01 0.  1.
         -5    1    4    4    0  501  0.39271637528E+02  0.16661651732E+03  0.10906765722E+03  0.20301859917E+03  0.41800000000E+01 0.  1.
</event>
<event>
11    1  0.6455215E-009  0.1751479E+03  0.7561462E-02  0.1073637E+00
         22   -1    0    0    0    0  0.00000000000E+00  0.00000000000E+00  0.32551761602E+03  0.32551761602E+03  0.00000000000E+00 0. -1.
         22   -1    0    0    0    0 -0.00000000000E+00 -0.00000000000E+00 -0.97026212784E+03  0.97026212784E+03  0.00000000000E+00 0.  1.
         24    2    1    2    0    0  0.87628461094E+01 -0.12176983405E+03 -0.64953203486E+03  0.66585951728E+03  0.81070046817E+02 0.  0.
         25    2    1    2    0    0 -0.12430004517E+02  0.12356517880E+03 -0.28167649744E+03  0.33228496379E+03  0.12509512192E+03 0.  0.
        -24    2    1    2    0    0  0.36671584071E+01 -0.17953447470E+01  0.28646402048E+03  0.29763526278E+03  0.80674923656E+02 0.  0.
        -11    1    3    3    0    0  0.11867890650E+02 -0.12672566150E+03 -0.49129819552E+03  0.50751764209E+03  0.00000000000E+00 0.  1.
         12    1    3    3    0    0 -0.31050445408E+01  0.49558274522E+01 -0.15823383935E+03  0.15834187520E+03  0.00000000000E+00 0. -1.
         13    1    5    5    0    0 -0.10254212887E+02  0.36943245584E+02  0.16461475360E+03  0.16902061820E+03  0.00000000000E+00 0. -1.
        -14    1    5    5    0    0  0.13921371294E+02 -0.38738590331E+02  0.12184926688E+03  0.12861464458E+03  0.00000000000E+00 0.  1.
          5    1    4    4  501    0 -0.49946119723E+02  0.12853452715E+03 -0.22763046813E+03  0.26617445776E+03  0.41800000000E+01 0. -1.
         -5    1    4    4    0  501  0.37516115206E+02 -0.49693483526E+01 -0.54046029308E+02  0.66110506027E+02  0.41800000000E+01 0. -1.
</event>
<event>
11    1  0.6455215E-009  0.1440372E+03  0.7561462E-02  0.1103132E+00
         22   -1    0    0    0    0  0.00000000000E+00  0.00000000000E+00  0.16270633828E+04  0.16270633828E+04  0.00000000000E+00 0. -1.
         22   -1    0    0    0    0 -0.00000000000E+00 -0.00000000000E+00 -0.10585629517E+03  0.10585629517E+03  0.00000000000E+00 0.  1.
        -24    2    1    2    0    0  0.59058242605E+02  0.41035047593E+02 -0.45147640904E+02  0.11691131399E+03  0.80362893861E+02 0.  0.
         25    2    1    2    0    0 -0.46491189386E+02 -0.52374623890E+02  0.19275643060E+03  0.24022382904E+03  0.12509162476E+03 0.  0.
         24    2    1    2    0    0 -0.12567053219E+02  0.11339576297E+02  0.13735982979E+04  0.13757845349E+04  0.75659008914E+02 0.  0.
        -13    1    5    5    0    0 -0.33493868204E+02  0.12553007869E+02  0.32254973811E+03  0.32452696462E+03  0.00000000000E+00 0.  1.
         14    1    5    5    0    0  0.20926814985E+02 -0.12134315721E+01  0.10510485598E+04  0.10512575703E+04  0.00000000000E+00 0. -1.
         11    1    3    3    0    0  0.12080535487E+02 -0.61776874913E+01  0.19721621351E+02  0.23938368973E+02  0.00000000000E+00 0. -1.
        -12    1    3    3    0    0  0.46977707117E+02  0.47212735084E+02 -0.64869262254E+02  0.92972945019E+02  0.00000000000E+00 0.  1.
          5    1    4    4  501    0 -0.35171778481E+02 -0.90928623756E+02  0.10349067019E+03  0.14224225756E+03  0.41800000000E+01 0.  1.
         -5    1    4    4    0  501 -0.11319410905E+02  0.38553999866E+02  0.89265760411E+02  0.97981571485E+02  0.41800000000E+01 0.  1.
</event>
<event>
11    1  0.6455215E-009  0.1742251E+03  0.7561462E-02  0.1074412E+00
         22   -1    0    0    0    0  0.00000000000E+00  0.00000000000E+00  0.12000896322E+03  0.12000896322E+03  0.00000000000E+00 0.  1.
         22   -1    0    0    0    0 -0.00000000000E+00 -0.00000000000E+00 -0.14494642622E+04  0.14494642622E+04  0.00000000000E+00 0.  1.
         24    2    1    2    0    0  0.42047263604E+02 -0.48897321329E+02 -0.12133935283E+04  0.12176376255E+04  0.78476825001E+02 0.  0.
         25    2    1    2    0    0 -0.72949657961E+02  0.14215530420E+03 -0.74021285419E+02  0.21599800780E+03  0.12508479352E+03 0.  0.
        -24    2    1    2    0    0  0.30902394357E+02 -0.93257982874E+02 -0.42040485249E+02  0.13583759212E+03  0.83859642768E+02 0.  0.
        -13    1    3    3    0    0  0.11369410203E+01 -0.22268057753E+02 -0.91547960624E+03  0.91575109526E+03  0.00000000000E+00 0.  1.
         14    1    3    3    0    0  0.40910322583E+02 -0.26629263576E+02 -0.29791392210E+03  0.30188653027E+03  0.00000000000E+00 0. -1.
         13    1    5    5    0    0  0.50111982916E+02 -0.87147104033E+02 -0.52190625932E+02  0.11326822153E+03  0.00000000000E+00 0. -1.
        -14    1    5    5    0    0 -0.19209588559E+02 -0.61108788413E+01  0.10150140683E+02  0.22569370587E+02  0.00000000000E+00 0.  1.
          5    1    4    4  501    0 -0.10832964868E+03  0.99874141379E+02 -0.58336811656E+02  0.15852700998E+03  0.41800000000E+01 0.  1.
         -5    1    4    4    0  501  0.35379990721E+02  0.42281162824E+02 -0.15684473764E+02  0.57470997820E+02  0.41800000000E+01 0.  1.
</event>
<event>
11    1  0.6455215E-009  0.1398397E+03  0.7561462E-02  0.1107738E+00
         22   -1    0    0    0    0  0.00000000000E+00  0.00000000000E+00  0.61693520129E+03  0.61693520129E+03  0.00000000000E+00 0. -1.
         22   -1    0    0    0    0 -0.00000000000E+00 -0.00000000000E+00 -0.59293360578E+03  0.59293360578E+03  0.00000000000E+00 0. -1.
         24    2    1    2    0    0 -0.51156621709E+01  0.32225831779E+02 -0.51162780357E+03  0.51942151610E+03  0.83492680939E+02 0.  0.
         25    2    1    2    0    0 -0.17251971872E+02 -0.88762272232E+02  0.92262936910E+01  0.15462272896E+03  0.12508673915E+03 0.  0.
        -24    2    1    2    0    0  0.22367634042E+02  0.56536440453E+02  0.52640310538E+03  0.53582456200E+03  0.79442128246E+02 0.  0.
        -13    1    3    3    0    0 -0.29360172022E+00  0.19343758321E+02 -0.20819075087E+02  0.28420082256E+02  0.00000000000E+00 0.  1.
         14    1    3    3    0    0 -0.48220604507E+01  0.12882073457E+02 -0.49080872848E+03  0.49100143384E+03  0.00000000000E+00 0. -1.
         11    1    5    5    0    0  0.30086885468E+02  0.71303450539E+02  0.48595144482E+03  0.49207541033E+03  0.00000000000E+00 0. -1.
        -12    1    5    5    0    0 -0.77192514257E+01 -0.14767010085E+02  0.40451660564E+02  0.43749151670E+02  0.00000000000E+00 0.  1.
          5    1    4    4  501    0  0.31787998010E+02 -0.15980067888E+02 -0.40173625667E+02  0.53825941575E+02  0.41800000000E+01 0.  1.
         -5    1    4    4    0  501 -0.49039969882E+02 -0.72782204344E+02  0.49399919358E+02  0.10079678739E+03  0.41800000000E+01 0.  1.
</event>
<event>
11    1  0.6455215E-009  0.1404186E+03  0.7561462E-02  0.1107092E+00
         22   -1    0    0    0    0  0.00000000000E+00  0.00000000000E+00  0.70266057775E+03  0.70266057775E+03  0.00000000000E+00 0. -1.
         22   -1    0    0    0    0 -0.00000000000E+00 -0.00000000000E+00 -0.36849029691E+03  0.36849029691E+03  0.00000000000E+00 0.  1.
         24    2    1    2    0    0  0.11250377499E+02 -0.60431737460E+02 -0.28171850015E+03  0.29872919660E+03  0.78072105715E+02 0.  0.
         25    2    1    2    0    0 -0.30157094344E+02  0.80310476946E+02  0.10187992648E+01  0.15168406118E+03  0.12509114044E+03 0.  0.
        -24    2    1    2    0    0  0.18906716844E+02 -0.19878739486E+02  0.61486998173E+03  0.62073761687E+03  0.80606862886E+02 0.  0.
        -11    1    3    3    0    0 -0.13262723843E+02 -0.28232807340E+02 -0.23439840312E+03  0.23646480211E+03  0.00000000000E+00 0.  1.
         12    1    3    3    0    0  0.24513101343E+02 -0.32198930120E+02 -0.47320097033E+02  0.62264394493E+02  0.00000000000E+00 0. -1.
         13    1    5    5    0    0  0.28874201144E+02  0.23817461675E+02  0.36166062896E+03  0.36359235623E+03  0.00000000000E+00 0. -1.
        -14    1    5    5    0    0 -0.99674843002E+01 -0.43696201161E+02  0.25320935277E+03  0.25714526064E+03  0.00000000000E+00 0.  1.
          5    1    4    4  501    0 -0.30351197993E+02  0.52984930427E+02  0.60520407224E+02  0.86074329289E+02  0.41800000000E+01 0. -1.
         -5    1    4    4    0  501  0.19410364918E+00  0.27325546519E+02 -0.59501607959E+02  0.65609731889E+02  0.41800000000E+01 0. -1.
</event>
<event>
11    1  0.6455215E-009  0.1977176E+03  0.7561462E-02  0.1056150E+00
         22   -1    0    0    0    0  0.00000000000E+00  0.00000000000E+00  0.18339436244E+04  0.18339436244E+04  0.00000000000E+00 0. -1.
         22   -1    0    0    0    0 -0.00000000000E+00 -0.00000000000E+00 -0.19762611744E+03  0.19762611744E+03  0.00000000000E+00 0.  1.
        -24    2    1    2    0    0 -0.88320542476E+02  0.13133466009E+03 -0.10739294642E+03  0.20779957719E+03  0.81228739836E+02 0.  0.
         25    2    1    2    0    0  0.60886317732E+02 -0.11709421716E+03  0.17392000227E+03  0.25162210807E+03  0.12508924294E+03 0.  0.
         24    2    1    2    0    0  0.27434224744E+02 -0.14240442929E+02  0.15697904511E+04  0.15721480566E+04  0.80324495191E+02 0.  0.
        -13    1    5    5    0    0 -0.16522365105E+02  0.21232133599E+02  0.34078666215E+03  0.34184695573E+03  0.00000000000E+00 0.  1.
         14    1    5    5    0    0  0.43956589849E+02 -0.35472576528E+02  0.12290037890E+04  0.12303011009E+04  0.00000000000E+00 0. -1.
         11    1    3    3    0    0 -0.60005708187E+02  0.20421791808E+02 -0.36129726866E+02  0.72959521374E+02  0.00000000000E+00 0. -1.
        -12    1    3    3    0    0 -0.28314834289E+02  0.11091286828E+03 -0.71263219554E+02  0.13484005582E+03  0.00000000000E+00 0.  1.
          5    1    4    4  501    0  0.85785497318E+02 -0.40698404934E+02  0.12651013150E+03  0.15823336401E+03  0.41800000000E+01 0.  1.
         -5    1    4    4    0  501 -0.24899179586E+02 -0.76395812226E+02  0.47409870769E+02  0.93388744055E+02  0.41800000000E+01 0.  1.
</event>
<event>
11    1  0.6455215E-009  0.2688715E+03  0.7561462E-02  0.1014300E+00
         22   -1    0    0    0    0  0.00000000000E+00  0.00000000000E+00  0.25865447760E+03  0.25865447760E+03  0.00000000000E+00 0.  1.
         22   -1    0    0    0    0 -0.00000000000E+00 -0.00000000000E+00 -0.10251780346E+04  0.10251780346E+04  0.00000000000E+00 0.  1.
        -24    2    1    2    0    0  0.91620068334E+02  0.21814597947E+03 -0.78402004142E+03  0.82270985235E+03  0.78626779923E+02 0.  0.
         25    2    1    2    0    0 -0.50954568834E+02 -0.24320367940E+03 -0.11274132581E+03  0.30017093112E+03  0.12509030172E+03 0.  0.
         24    2    1    2    0    0 -0.40665499500E+02  0.25057699929E+02  0.13023781023E+03  0.16095172874E+03  0.81621079361E+02 0.  0.
        -11    1    5    5    0    0 -0.81753111906E+01  0.34963935578E+02  0.12032441024E+03  0.12556781516E+03  0.00000000000E+00 0.  1.
         12    1    5    5    0    0 -0.32490188309E+02 -0.99062356492E+01  0.99133999914E+01  0.35383913584E+02  0.00000000000E+00 0. -1.
         13    1    3    3    0    0  0.45675341765E+02  0.27922821211E+02 -0.15902169563E+03  0.16779100235E+03  0.00000000000E+00 0. -1.
        -14    1    3    3    0    0  0.45944726570E+02  0.19022315826E+03 -0.62499834579E+03  0.65491884999E+03  0.00000000000E+00 0.  1.
          5    1    4    4  501    0 -0.49139210815E+02 -0.15060777289E+03 -0.57214060982E+01  0.15857985427E+03  0.41800000000E+01 0.  1.
         -5    1    4    4    0  501 -0.18153580190E+01 -0.92595906514E+02 -0.10701991971E+03  0.14159107685E+03  0.41800000000E+01 0.  1.
</event>
<event>
11    1  0.6455215E-009  0.1474760E+03  0.7561462E-02  0.1099486E+00
         22   -1    0    0    0    0  0.00000000000E+00  0.00000000000E+00  0.10755496586E+03  0.10755496586E+03  0.00000000000E+00 0. -1.
         22   -1    0    0    0    0 -0.00000000000E+00 -0.00000000000E+00 -0.10819814263E+04  0.10819814263E+04  0.00000000000E+00 0.  1.
        -24    2    1    2    0    0 -0.42101615977E+02  0.62718159785E+02 -0.67639856709E+03  0.68496432935E+03  0.77168628898E+02 0.  0.
         25    2    1    2    0    0  0.92423252147E+02 -0.40159172346E+02 -0.35162249915E+03  0.38657651214E+03  0.12509277026E+03 0.  0.
         24    2    1    2    0    0 -0.50321636169E+02 -0.22558987439E+02  0.53594605801E+02  0.11799555068E+03  0.89495213433E+02 0.  0.
        -11    1    5    5    0    0  0.13450726941E+02 -0.21060395386E+02 -0.10918241966E+02  0.27270319336E+02  0.00000000000E+00 0.  1.
         12    1    5    5    0    0 -0.63772363111E+02 -0.14985920527E+01  0.64512847766E+02  0.90725231340E+02  0.00000000000E+00 0. -1.
         13    1    3    3    0    0 -0.49451620000E+02  0.65324679502E+01 -0.37289173261E+03  0.37621321096E+03  0.00000000000E+00 0. -1.
        -14    1    3    3    0    0  0.73500040222E+01  0.56185691835E+02 -0.30350683448E+03  0.30875111838E+03  0.00000000000E+00 0.  1.
          5    1    4    4  501    0  0.43010332157E+02  0.42339453028E+02 -0.17878539758E+03  0.18874376478E+03  0.41800000000E+01 0.  1.
         -5    1    4    4    0  501  0.49412919989E+02 -0.82498625374E+02 -0.17283710157E+03  0.19783274736E+03  0.41800000000E+01 0.  1.
</event>
<event>
11    1  0.6455215E-009  0.1710211E+03  0.7561462E-02  0.1077147E+00
         22   -1    0    0    0    0  0.00000000000E+00  0.00000000000E+00  0.56174008808E+03  0.56174008808E+03  0.00000000000E+00 0.  1.
         22   -1    0    0    0    0 -0.00000000000E+00 -0.00000000000E+00 -0.48401316633E+03  0.48401316633E+03  0.00000000000E+00 0. -1.
        -24    2    1    2    0    0 -0.11611704162E+03 -0.33536873815E+02 -0.39305207171E+03  0.41886441623E+03  0.79684244660E+02 0.  0.
         25    2    1    2    0    0  0.93949631208E+02 -0.60207056523E+01  0.98717297199E+01  0.15687371770E+03  0.12509648339E+03 0.  0.
         24    2    1    2    0    0  0.22167410414E+02  0.39557579467E+02  0.46090726374E+03  0.47001512048E+03  0.80140573565E+02 0.  0.
        -13    1    5    5    0    0  0.17087061395E+01  0.58322387712E+02  0.38056455028E+03  0.38501142517E+03  0.00000000000E+00 0.  1.
         14    1    5    5    0    0  0.20458704274E+02 -0.18764808245E+02  0.80342713464E+02  0.85003695307E+02  0.00000000000E+00 0. -1.
         11    1    3    3    0    0 -0.11458714344E+03 -0.38013818043E+01 -0.32312924442E+03  0.34286611460E+03  0.00000000000E+00 0. -1.
        -12    1    3    3    0    0 -0.15298981849E+01 -0.29735492010E+02 -0.69922827290E+02  0.75998301624E+02  0.00000000000E+00 0.  1.
          5    1    4    4  501    0  0.93225552809E+02 -0.53646569035E+02 -0.18000273465E+01  0.10765533226E+03  0.41800000000E+01 0.  1.
         -5    1    4    4    0  501  0.72407839936E+00  0.47625863383E+02  0.11671757066E+02  0.49218385442E+02  0.41800000000E+01 0.  1.
</event>
<event>
11    1  0.6455215E-009  0.1318283E+03  0.7561462E-02  0.1117043E+00
         22   -1    0    0    0    0  0.00000000000E+00  0.00000000000E+00  0.36230492172E+02  0.36230492172E+02  0.00000000000E+00 0.  1.
         22   -1    0    0    0    0 -0.00000000000E+00 -0.00000000000E+00 -0.34096514814E+04  0.34096514814E+04  0.00000000000E+00 0.  1.
         24    2    1    2    0    0  0.36381741255E+02 -0.87736743655E+00 -0.19870812428E+04  0.19890848314E+04  0.81499693209E+02 0.  0.
         25    2    1    2    0    0 -0.59200162001E+02  0.16566636769E+02 -0.13573211077E+04  0.13644585794E+04  0.12509001936E+03 0.  0.
        -24    2    1    2    0    0  0.22818420746E+02 -0.15689269332E+02 -0.29018638668E+02  0.92338562718E+02  0.83171481153E+02 0.  0.
        -13    1    3    3    0    0  0.40228408965E+02 -0.32934892677E+02 -0.15200388376E+04  0.15209277102E+04  0.00000000000E+00 0.  1.
         14    1    3    3    0    0 -0.38466677099E+01  0.32057525240E+02 -0.46704240527E+03  0.46815712117E+03  0.00000000000E+00 0. -1.
         13    1    5    5    0    0  0.40653995073E+02 -0.17284352391E+02 -0.48685949579E+02  0.65740534219E+02  0.00000000000E+00 0. -1.
        -14    1    5    5    0    0 -0.17835574328E+02  0.15950830588E+01  0.19667310911E+02  0.26598028499E+02  0.00000000000E+00 0.  1.
          5    1    4    4  501    0 -0.31207238178E+02 -0.48975689292E+02 -0.86875464187E+03  0.87070351442E+03  0.41800000000E+01 0. -1.
         -5    1    4    4    0  501 -0.27992923823E+02  0.65542326061E+02 -0.48856646584E+03  0.49375506502E+03  0.41800000000E+01 0. -1.
</event>
<event>
11    1  0.6455215E-009  0.1271854E+03  0.7561462E-02  0.1122776E+00
         22   -1    0    0    0    0  0.00000000000E+00  0.00000000000E+00  0.23044936749E+03  0.23044936749E+03  0.00000000000E+00 0.  1.
         22   -1    0    0    0    0 -0.00000000000E+00 -0.00000000000E+00 -0.84251771051E+03  0.84251771051E+03  0.00000000000E+00 0. -1.
         24    2    1    2    0    0 -0.29243191463E+01 -0.72510922544E+00 -0.74592120952E+03  0.75056794940E+03  0.83334977256E+02 0.  0.
         25    2    1    2    0    0 -0.53970673952E+01  0.22192205825E+02 -0.36438365294E+02  0.13227685997E+03  0.12509113031E+03 0.  0.
        -24    2    1    2    0    0  0.83213865415E+01 -0.21467096600E+02  0.17029123179E+03  0.19012226863E+03  0.81346737443E+02 0.  0.
        -13    1    3    3    0    0 -0.12892631900E+02  0.37345343024E+02 -0.25163928526E+03  0.25472185711E+03  0.00000000000E+00 0.  1.
         14    1    3    3    0    0  0.99683127540E+01 -0.38070452249E+02 -0.49428192425E+03  0.49584609229E+03  0.00000000000E+00 0. -1.
         11    1    5    5    0    0  0.12001941190E+02  0.57124675418E+01 -0.38467686098E+01  0.13837503621E+02  0.00000000000E+00 0. -1.
        -12    1    5    5    0    0 -0.36805546482E+01 -0.27179564142E+02  0.17413800040E+03  0.17628476501E+03  0.00000000000E+00 0.  1.
          5    1    4    4  501    0 -0.49320234672E+02  0.34568603047E+02  0.16177736639E+02  0.62503323332E+02  0.41800000000E+01 0. -1.
         -5    1    4    4    0  501  0.43923167277E+02 -0.12376397221E+02 -0.52616101934E+02  0.69773536635E+02  0.41800000000E+01 0. -1.
</event>
<event>
11    1  0.6455215E-009  0.1582350E+03  0.7561462E-02  0.1088749E+00
         22   -1    0    0    0    0  0.00000000000E+00  0.00000000000E+00  0.14533139892E+04  0.14533139892E+04  0.00000000000E+00 0. -1.
         22   -1    0    0    0    0 -0.00000000000E+00 -0.00000000000E+00 -0.23141754405E+03  0.23141754405E+03  0.00000000000E+00 0.  1.
        -24    2    1    2    0    0 -0.14571521483E+02  0.99242306716E+02 -0.18946699058E+03  0.22906958987E+03  0.80707941370E+02 0.  0.
         25    2    1    2    0    0  0.21333178612E+01 -0.57342060850E+02  0.21141415257E+03  0.25226312632E+03  0.12509227797E+03 0.  0.
         24    2    1    2    0    0  0.12438203621E+02 -0.41900245866E+02  0.11999492831E+04  0.12033988170E+04  0.79875473355E+02 0.  0.
        -11    1    5    5    0    0  0.13591633474E+02  0.74343735562E+01  0.48969076794E+02  0.51361200266E+02  0.00000000000E+00 0.  1.
         12    1    5    5    0    0 -0.11534298527E+01 -0.49334619422E+02  0.11509802063E+04  0.11520376168E+04  0.00000000000E+00 0. -1.
         13    1    3    3    0    0 -0.31677174565E+02  0.84358179203E+01 -0.28369086763E+02  0.43352179832E+02  0.00000000000E+00 0. -1.
        -14    1    3    3    0    0  0.17105653082E+02  0.90806488796E+02 -0.16109790382E+03  0.18571741004E+03  0.00000000000E+00 0.  1.
          5    1    4    4  501    0 -0.19690361031E+02 -0.26398753678E+02  0.21157913547E+03  0.21416770877E+03  0.41800000000E+01 0.  1.
         -5    1    4    4    0  501  0.21823678892E+02 -0.30943307172E+02 -0.16498290093E+00  0.38095417552E+02  0.41800000000E+01 0.  1.
</event>
<event>
11    1  0.6455215E-009  0.1541850E+03  0.7561462E-02  0.1092678E+00
         22   -1    0    0    0    0  0.00000000000E+00  0.00000000000E+00  0.21024933605E+03  0.21024933605E+03  0.00000000000E+00 0. -1.
         22   -1    0    0    0    0 -0.00000000000E+00 -0.00000000000E+00 -0.43717892061E+03  0.43717892061E+03  0.00000000000E+00 0. -1.
        -24    2    1    2    0    0 -0.19512598133E+02 -0.30375715059E+02 -0.33458019649E+03  0.34585802316E+03  0.79815028329E+02 0.  0.
         25    2    1    2    0    0  0.99986313908E+02 -0.23146471627E+01  0.40827105552E+02  0.16527840022E+03  0.12508987358E+03 0.  0.
         24    2    1    2    0    0 -0.80473715775E+02  0.32690362222E+02  0.66823506382E+02  0.13629183328E+03  0.81027181247E+02 0.  0.
        -11    1    5    5    0    0  0.76284401705E+01  0.28216561151E+02  0.25869223845E+02  0.39033116260E+02  0.00000000000E+00 0.  1.
         12    1    5    5    0    0 -0.88102155946E+02  0.44738010706E+01  0.40954282536E+02  0.97258717020E+02  0.00000000000E+00 0. -1.
         13    1    3    3    0    0 -0.24826783858E+02  0.20903166440E+02 -0.18014779978E+03  0.18304792085E+03  0.00000000000E+00 0. -1.
        -14    1    3    3    0    0  0.53141857243E+01 -0.51278881499E+02 -0.15443239671E+03  0.16281010230E+03  0.00000000000E+00 0.  1.
          5    1    4    4  501    0 -0.12176617214E+02 -0.16460346077E+02  0.47561153032E+02  0.51949481975E+02  0.41800000000E+01 0. -1.
         -5    1    4    4    0  501  0.11216293112E+03  0.14145698914E+02 -0.67340474795E+01  0.11332891825E+03  0.41800000000E+01 0. -1.
</event>
<event>
11    1  0.6455215E-009  0.1678798E+03  0.7561462E-02  0.1079892E+00
         22   -1    0    0    0    0  0.00000000000E+00  0.00000000000E+00  0.76024290907E+02  0.76024290907E+02  0.00000000000E+00 0.  1.
         22   -1    0    0    0    0 -0.00000000000E+00 -0.00000000000E+00 -0.10523003375E+04  0.10523003375E+04  0.00000000000E+00 0. -1.
         24    2    1    2    0    0 -0.16426851045E+02  0.32856015183E+02 -0.72759531653E+03  0.73270782384E+03  0.78207744541E+02 0.  0.
         25    2    1    2    0    0 -0.97959962340E+02 -0.49821064408E+02 -0.15875068339E+03  0.23005981186E+03  0.12508974729E+03 0.  0.
        -24    2    1    2    0    0  0.11438681338E+03  0.16965049226E+02 -0.89930046629E+02  0.16555699266E+03  0.77133316801E+02 0.  0.
        -11    1    3    3    0    0 -0.10418078908E+02  0.69882853100E+01 -0.14729932088E+02  0.19347955939E+02  0.00000000000E+00 0.  1.
         12    1    3    3    0    0 -0.60087721372E+01  0.25867729873E+02 -0.71286538445E+03  0.71335986790E+03  0.00000000000E+00 0. -1.
         13    1    5    5    0    0  0.23303838695E+02 -0.20213737219E+02  0.19964269987E+01  0.30913585866E+02  0.00000000000E+00 0. -1.
        -14    1    5    5    0    0  0.91082974690E+02  0.37178786445E+02 -0.91926473628E+02  0.13464340680E+03  0.00000000000E+00 0.  1.
          5    1    4    4  501    0 -0.42967223656E+02 -0.72527010295E+02 -0.32525140518E+02  0.90452787114E+02  0.41800000000E+01 0.  1.
         -5    1    4    4    0  501 -0.54992738684E+02  0.22705945886E+02 -0.12622554287E+03  0.13960702475E+03  0.41800000000E+01 0.  1.
</event>
<event>
11    1  0.6455215E-009  0.1302969E+03  0.7561462E-02  0.1118905E+00
         22   -1    0    0    0    0  0.00000000000E+00  0.00000000000E+00  0.17736046127E+03  0.17736046127E+03  0.00000000000E+00 0.  1.
         22   -1    0    0    0    0 -0.00000000000E+00 -0.00000000000E+00 -0.15381797369E+04  0.15381797369E+04  0.00000000000E+00 0. -1.
         24    2    1    2    0    0  0.42734319942E+01  0.17624470691E+02 -0.14286175662E+04  0.14310220144E+04  0.80913355219E+02 0.  0.
         25    2    1    2    0    0 -0.14824129576E+02  0.19564858844E+02 -0.49478780382E+02  0.13674387312E+03  0.12509276002E+03 0.  0.
        -24    2    1    2    0    0  0.10550697581E+02 -0.37189329535E+02  0.11727707094E+03  0.14777431066E+03  0.81172483465E+02 0.  0.
        -13    1    3    3    0    0  0.81673305296E+01 -0.11117873993E+02 -0.44248570155E+02  0.46349200326E+02  0.00000000000E+00 0.  1.
         14    1    3    3    0    0 -0.38938985354E+01  0.28742344684E+02 -0.13843689960E+04  0.13846728140E+04  0.00000000000E+00 0. -1.
         13    1    5    5    0    0  0.40435433780E+02 -0.38963009534E+02  0.54635241673E+02  0.78346346753E+02  0.00000000000E+00 0. -1.
        -14    1    5    5    0    0 -0.29884736198E+02  0.17736799983E+01  0.62641829263E+02  0.69427963903E+02  0.00000000000E+00 0.  1.
          5    1    4    4  501    0 -0.44234059331E+01 -0.21045256921E+02 -0.81139150095E+02  0.84044651448E+02  0.41800000000E+01 0. -1.
         -5    1    4    4    0  501 -0.10400723642E+02  0.40610115765E+02  0.31660369712E+02  0.52699221674E+02  0.41800000000E+01 0. -1.
</event>
<event>
11    1  0.6455215E-009  0.1371584E+03  0.7561462E-02  0.1110774E+00
         22   -1    0    0    0    0  0.00000000000E+00  0.00000000000E+00  0.10032345903E+04  0.10032345903E+04  0.00000000000E+00 0.  1.
         22   -1    0    0    0    0 -0.00000000000E+00 -0.00000000000E+00 -0.36401663885E+03  0.36401663885E+03  0.00000000000E+00 0. -1.
         24    2    1    2    0    0  0.59290314669E+02  0.15560373830E+02 -0.23604658136E+03  0.25715846976E+03  0.81578326476E+02 0.  0.
         25    2    1    2    0    0 -0.43491883846E+02  0.41433856681E+02 -0.72918811442E+02  0.15675626062E+03  0.12508822383E+03 0.  0.
        -24    2    1    2    0    0 -0.15798430823E+02 -0.56994230511E+02  0.94818334424E+03  0.95333649874E+03  0.79378163312E+02 0.  0.
        -11    1    3    3    0    0  0.60150308937E+01  0.11617013772E+02  0.19621639645E+01  0.13228215793E+02  0.00000000000E+00 0.  1.
         12    1    3    3    0    0  0.53275283775E+02  0.39433600579E+01 -0.23800874533E+03  0.24393025397E+03  0.00000000000E+00 0. -1.
         13    1    5    5    0    0 -0.21699622411E+02 -0.61532853622E+02  0.41471953752E+03  0.41982074805E+03  0.00000000000E+00 0. -1.
        -14    1    5    5    0    0  0.59011915884E+01  0.45386231113E+01  0.53346380672E+03  0.53351575070E+03  0.00000000000E+00 0.  1.
          5    1    4    4  501    0  0.39969376874E+02  0.17042239524E+02 -0.71680583520E+00  0.43657476179E+02  0.41800000000E+01 0.  1.
         -5    1    4    4    0  501 -0.83461260720E+02  0.24391617157E+02 -0.72202005607E+02  0.11309878444E+03  0.41800000000E+01 0.  1.
</event>
<event>
11    1  0.6455215E-009  0.1321948E+03  0.7561462E-02  0.1116601E+00
         22   -1    0    0    0    0  0.00000000000E+00  0.00000000000E+00  0.66288291776E+02  0.66288291776E+02  0.00000000000E+00 0.  1.
         22   -1    0    0    0    0 -0.00000000000E+00 -0.00000000000E+00 -0.14562934080E+04  0.14562934080E+04  0.00000000000E+00 0.  1.
         24    2    1    2    0    0 -0.30442290922E+01  0.41587803157E+01 -0.11280820098E+04  0.11309208342E+04  0.79914640285E+02 0.  0.
         25    2    1    2    0    0 -0.58630785540E+00 -0.46223239273E+02 -0.26643811780E+03  0.29794937801E+03  0.12509048577E+03 0.  0.
        -24    2    1    2    0    0  0.36305369476E+01  0.42064458957E+02  0.45150113732E+01  0.93711487519E+02  0.83539559848E+02 0.  0.
        -13    1    3    3    0    0 -0.25510073920E+02  0.33099481996E+02 -0.48547405563E+03  0.48726932827E+03  0.00000000000E+00 0.  1.
         14    1    3    3    0    0  0.22465844828E+02 -0.28940701680E+02 -0.64260795413E+03  0.64365150594E+03  0.00000000000E+00 0. -1.
         11    1    5    5    0    0 -0.84724418942E+01 -0.23831586996E+02 -0.57317768471E+01  0.25934148844E+02  0.00000000000E+00 0. -1.
        -12    1    5    5    0    0  0.12102978842E+02  0.65896045953E+02  0.10246788220E+02  0.67777338676E+02  0.00000000000E+00 0.  1.
          5    1    4    4  501    0  0.47027244525E+01 -0.89071250171E+02 -0.19306590742E+03  0.21271511520E+03  0.41800000000E+01 0.  1.
         -5    1    4    4    0  501 -0.52890323079E+01  0.42848010898E+02 -0.73372210381E+02  0.85234262811E+02  0.41800000000E+01 0.  1.
</event>
<event>
11    1  0.6455215E-009  0.1880591E+03  0.7561462E-02  0.1063304E+00
         22   -1    0    0    0    0  0.00000000000E+00  0.00000000000E+00  0.23073687672E+03  0.23073687672E+03  0.00000000000E+00 0. -1.
         22   -1    0    0    0    0 -0.00000000000E+00 -0.00000000000E+00 -0.24002937837E+04  0.24002937837E+04  0.00000000000E+00 0.  1.
         24    2    1    2    0    0  0.31058295303E+02  0.65378028821E+02 -0.21809115496E+04  0.21834884277E+04  0.77508855025E+02 0.  0.
         25    2    1    2    0    0 -0.28728018327E+02  0.86455179499E+02 -0.14663846890E+03  0.21319090974E+03  0.12509087231E+03 0.  0.
        -24    2    1    2    0    0 -0.23302769761E+01 -0.15183320832E+03  0.15799311147E+03  0.23435132297E+03  0.83066033772E+02 0.  0.
        -11    1    3    3    0    0  0.21070358444E+02  0.60688697075E+02 -0.21440171321E+04  0.21449793801E+04  0.00000000000E+00 0.  1.
         12    1    3    3    0    0  0.99879368590E+01  0.46893317457E+01 -0.36894417424E+02  0.38509047664E+02  0.00000000000E+00 0. -1.
         13    1    5    5    0    0 -0.39244566164E+02 -0.59542178818E+02  0.85437868414E+02  0.11128807839E+03  0.00000000000E+00 0. -1.
        -14    1    5    5    0    0  0.36914289187E+02 -0.92291029501E+02  0.72555243053E+02  0.12306324458E+03  0.00000000000E+00 0.  1.
          5    1    4    4  501    0  0.41588721021E+02  0.58054642830E+02 -0.39066100448E+02  0.81508256481E+02  0.41800000000E+01 0. -1.
         -5    1    4    4    0  501 -0.70316739348E+02  0.28400536669E+02 -0.10757236845E+03  0.13168265326E+03  0.41800000000E+01 0. -1.
</event>
<event>
11    1  0.6455215E-009  0.2603786E+03  0.7561462E-02  0.1018511E+00
         22   -1    0    0    0    0  0.00000000000E+00  0.00000000000E+00  0.30119184928E+03  0.30119184928E+03  0.00000000000E+00 0. -1.
         22   -1    0    0    0    0 -0.00000000000E+00 -0.00000000000E+00 -0.46258064684E+03  0.46258064684E+03  0.00000000000E+00 0.  1.
        -24    2    1    2    0    0 -0.10886624152E+03 -0.22829431153E+03 -0.21473095452E+03  0.33948494202E+03  0.71906131931E+02 0.  0.
         25    2    1    2    0    0  0.12617893654E+03  0.15408746741E+03 -0.82352563241E+02  0.24918561254E+03  0.12508978050E+03 0.  0.
         24    2    1    2    0    0 -0.17312695019E+02  0.74206844121E+02  0.13569472021E+03  0.17510194156E+03  0.80257384223E+02 0.  0.
        -13    1    5    5    0    0 -0.45029304454E+02  0.22695239360E+02  0.78439835765E+02  0.93249772032E+02  0.00000000000E+00 0.  1.
         14    1    5    5    0    0  0.27716609436E+02  0.51511604762E+02  0.57254884442E+02  0.81852169527E+02  0.00000000000E+00 0. -1.
         13    1    3    3    0    0 -0.10971776638E+02 -0.24950015310E+02  0.10076143460E+01  0.27274501521E+02  0.00000000000E+00 0. -1.
        -14    1    3    3    0    0 -0.97894464887E+02 -0.20334429622E+03 -0.21573856887E+03  0.31221044050E+03  0.00000000000E+00 0.  1.
          5    1    4    4  501    0 -0.15018923844E+02  0.67902195535E+02 -0.26489625449E+02  0.74534883701E+02  0.41800000000E+01 0.  1.
         -5    1    4    4    0  501  0.14119786039E+03  0.86185271875E+02 -0.55862937792E+02  0.17465072884E+03  0.41800000000E+01 0.  1.
</event>
<event>
11    1  0.6455215E-009  0.1516457E+03  0.7561462E-02  0.1095209E+00
         22   -1    0    0    0    0  0.00000000000E+00  0.00000000000E+00  0.80022220436E+03  0.80022220436E+03  0.00000000000E+00 0. -1.
         22   -1    0    0    0    0 -0.00000000000E+00 -0.00000000000E+00 -0.26504343676E+03  0.26504343676E+03  0.00000000000E+00 0.  1.
         24    2    1    2    0    0 -0.43878213894E+02 -0.56444079940E+02 -0.82402161953E+02  0.13587798308E+03  0.81002951651E+02 0.  0.
         25    2    1    2    0    0  0.21262487287E+02  0.11703725543E+03 -0.10332733410E+03  0.20117990701E+03  0.12508798698E+03 0.  0.
        -24    2    1    2    0    0  0.22615726607E+02 -0.60593175488E+02  0.72090826366E+03  0.72820775103E+03  0.79967493660E+02 0.  0.
        -11    1    3    3    0    0 -0.38938574613E+02 -0.25623185035E+02 -0.92073145749E+02  0.10319992428E+03  0.00000000000E+00 0.  1.
         12    1    3    3    0    0 -0.49396392815E+01 -0.30820894905E+02  0.96709837960E+01  0.32678058794E+02  0.00000000000E+00 0. -1.
         13    1    5    5    0    0  0.15573751521E+02 -0.79106806768E+02  0.50533309655E+03  0.51172450311E+03  0.00000000000E+00 0. -1.
        -14    1    5    5    0    0  0.70419750860E+01  0.18513631279E+02  0.21557516710E+03  0.21648324792E+03  0.00000000000E+00 0.  1.
          5    1    4    4  501    0  0.47342109637E+02  0.69194214413E+02 -0.11779729824E+03  0.14464712415E+03  0.41800000000E+01 0.  1.
         -5    1    4    4    0  501 -0.26079622350E+02  0.47843041016E+02  0.14469964133E+02  0.56532782857E+02  0.41800000000E+01 0.  1.
</event>
<event>
11    1  0.6455215E-009  0.1348060E+03  0.7561462E-02  0.1113501E+00
         22   -1    0    0    0    0  0.00000000000E+00  0.00000000000E+00  0.25603964212E+03  0.25603964212E+03  0.00000000000E+00 0.  1.
         22   -1    0    0    0    0 -0.00000000000E+00 -0.00000000000E+00 -0.48146989217E+03  0.48146989217E+03  0.00000000000E+00 0.  1.
         24    2    1    2    0    0 -0.21556667589E+02  0.52249193439E+02 -0.38759298676E+03  0.39800394964E+03  0.70598529783E+02 0.  0.
         25    2    1    2    0    0  0.31491436943E+02  0.35824301586E+01 -0.21762766446E+02  0.13086723885E+03  0.12509225313E+03 0.  0.
        -24    2    1    2    0    0 -0.99347693542E+01 -0.55831623598E+02  0.18392550315E+03  0.20863834580E+03  0.80532594598E+02 0.  0.
        -13    1    3    3    0    0 -0.42002160819E+02  0.44633066133E+02 -0.34213588302E+03  0.34758201126E+03  0.00000000000E+00 0.  1.
         14    1    3    3    0    0  0.20445493230E+02  0.76161273062E+01 -0.45457103745E+02  0.50421938374E+02  0.00000000000E+00 0. -1.
         11    1    5    5    0    0 -0.92403967052E+01 -0.25200724646E+01 -0.60463135535E+01  0.11326676657E+02  0.00000000000E+00 0. -1.
        -12    1    5    5    0    0 -0.69437264903E+00 -0.53311551133E+02  0.18997181671E+03  0.19731166915E+03  0.00000000000E+00 0.  1.
          5    1    4    4  501    0 -0.37767793235E+02 -0.31993286052E+02 -0.17891144230E+02  0.52797177956E+02  0.41800000000E+01 0.  1.
         -5    1    4    4    0  501  0.69259230178E+02  0.35575716211E+02 -0.38716222160E+01  0.78070060890E+02  0.41800000000E+01 0.  1.
</event>
<event>
11    1  0.6455215E-009  0.1979215E+03  0.7561462E-02  0.1056003E+00
         22   -1    0    0    0    0  0.00000000000E+00  0.00000000000E+00  0.13929385849E+03  0.13929385849E+03  0.00000000000E+00 0. -1.
         22   -1    0    0    0    0 -0.00000000000E+00 -0.00000000000E+00 -0.82949474814E+03  0.82949474814E+03  0.00000000000E+00 0.  1.
        -24    2    1    2    0    0 -0.13178381684E+03  0.14642115880E+02 -0.41392804779E+03  0.44202039920E+03  0.80400488897E+02 0.  0.
         25    2    1    2    0    0  0.25453306640E+03  0.19092138988E+02 -0.23597181329E+03  0.36943454429E+03  0.12509034412E+03 0.  0.
         24    2    1    2    0    0 -0.12274924955E+03 -0.33734254867E+02 -0.40301028565E+02  0.15733366313E+03  0.83212561758E+02 0.  0.
        -11    1    5    5    0    0  0.23731087886E-01 -0.45819701264E+01 -0.30417395522E+02  0.30760574828E+02  0.00000000000E+00 0.  1.
         12    1    5    5    0    0 -0.12277298064E+03 -0.29152284741E+02 -0.98836330435E+01  0.12657308831E+03  0.00000000000E+00 0. -1.
         11    1    3    3    0    0  0.11048341179E+02 -0.19777635109E+01 -0.32887884423E+02  0.34750400474E+02  0.00000000000E+00 0. -1.
        -12    1    3    3    0    0 -0.14283215802E+03  0.16619879391E+02 -0.38104016337E+03  0.40726999872E+03  0.00000000000E+00 0.  1.
          5    1    4    4  501    0  0.24273309588E+03  0.30559860280E+02 -0.24818528900E+03  0.34852068944E+03  0.41800000000E+01 0. -1.
         -5    1    4    4    0  501  0.11799970519E+02 -0.11467721293E+02  0.12213475708E+02  0.20913854852E+02  0.41800000000E+01 0. -1.
</event>
<event>
11    1  0.6455215E-009  0.1436482E+03  0.7561462E-02  0.1103552E+00
         22   -1    0    0    0    0  0.00000000000E+00  0.00000000000E+00  0.13119737318E+04  0.13119737318E+04  0.00000000000E+00 0. -1.
         22   -1    0    0    0    0 -0.00000000000E+00 -0.00000000000E+00 -0.25534080039E+03  0.25534080039E+03  0.00000000000E+00 0. -1.
         24    2    1    2    0    0 -0.56261408771E+02  0.42672478689E+02 -0.19055968184E+03  0.21869503324E+03  0.80797516458E+02 0.  0.
         25    2    1    2    0    0  0.47196779549E+02 -0.54437141429E+02  0.56237033000E+02  0.15492221754E+03  0.12508937301E+03 0.  0.
        -24    2    1    2    0    0  0.90646292216E+01  0.11764662740E+02  0.11909555803E+04  0.11936972814E+04  0.79482266600E+02 0.  0.
        -13    1    3    3    0    0  0.20524486758E+02  0.11226770426E+02 -0.30851505085E+02  0.38718345741E+02  0.00000000000E+00 0.  1.
         14    1    3    3    0    0 -0.76785895529E+02  0.31445708263E+02 -0.15970817676E+03  0.17997668750E+03  0.00000000000E+00 0. -1.
         11    1    5    5    0    0 -0.22808012128E+01  0.21879490981E+02  0.11465756470E+04  0.11467866534E+04  0.00000000000E+00 0. -1.
        -12    1    5    5    0    0  0.11345430434E+02 -0.10114828241E+02  0.44379933296E+02  0.46910628022E+02  0.00000000000E+00 0.  1.
          5    1    4    4  501    0 -0.21117346410E+02 -0.69763213661E+02  0.38674831927E+02  0.82619993490E+02  0.41800000000E+01 0.  1.
         -5    1    4    4    0  501  0.68314125959E+02  0.15326072233E+02  0.17562201073E+02  0.72302224047E+02  0.41800000000E+01 0.  1.
</event>
<event>
11    1  0.6455215E-009  0.2019919E+03  0.7561462E-02  0.1053124E+00
         22   -1    0    0    0    0  0.00000000000E+00  0.00000000000E+00  0.63880060731E+02  0.63880060731E+02  0.00000000000E+00 0. -1.
         22   -1    0    0    0    0 -0.00000000000E+00 -0.00000000000E+00 -0.99790770172E+03  0.99790770172E+03  0.00000000000E+00 0. -1.
        -24    2    1    2    0    0  0.88578145725E+01 -0.70770458215E+02 -0.13270170798E+03  0.17059216593E+03  0.80031400957E+02 0.  0.
         25    2    1    2    0    0 -0.10835339780E+03 -0.86749874364E+02 -0.39871286486E+03  0.44032441832E+03  0.12509054819E+03 0.  0.
         24    2    1    2    0    0  0.99495583228E+02  0.15752033258E+03 -0.40261306814E+03  0.45087117820E+03  0.80470556330E+02 0.  0.
        -13    1    5    5    0    0  0.39000232881E+02  0.13104538384E+02 -0.47937650008E+02  0.63172504932E+02  0.00000000000E+00 0.  1.
         14    1    5    5    0    0  0.60495350347E+02  0.14441579419E+03 -0.35467541813E+03  0.38769867327E+03  0.00000000000E+00 0. -1.
         13    1    3    3    0    0  0.95030016529E+00 -0.82626711901E+02 -0.13271920203E+03  0.15634085576E+03  0.00000000000E+00 0. -1.
        -14    1    3    3    0    0  0.79075144072E+01  0.11856253686E+02  0.17494049791E-01  0.14251310172E+02  0.00000000000E+00 0.  1.
          5    1    4    4  501    0 -0.84060931926E+02 -0.11571758691E+03 -0.26326869114E+03  0.29964091231E+03  0.41800000000E+01 0.  1.
         -5    1    4    4    0  501 -0.24292465874E+02  0.28967712543E+02 -0.13544417373E+03  0.14068350602E+03  0.41800000000E+01 0.  1.
</event>
<event>
11    1  0.6455215E-009  0.1361032E+03  0.7561462E-02  0.1111989E+00
         22   -1    0    0    0    0  0.00000000000E+00  0.00000000000E+00  0.20404866475E+03  0.20404866475E+03  0.00000000000E+00 0.  1.
         22   -1    0    0    0    0 -0.00000000000E+00 -0.00000000000E+00 -0.29118298233E+03  0.29118298233E+03  0.00000000000E+00 0.  1.
         24    2    1    2    0    0 -0.37127414914E+02 -0.34340081159E+00 -0.20495633124E+03  0.22380252437E+03  0.81865190017E+02 0.  0.
         25    2    1    2    0    0  0.76373174014E+02  0.20882249368E+02  0.43025932687E+02  0.15416630154E+03  0.12508831919E+03 0.  0.
        -24    2    1    2    0    0 -0.39245759100E+02 -0.20538848557E+02  0.74796080975E+02  0.11726282116E+03  0.78702233707E+02 0.  0.
        -13    1    3    3    0    0 -0.24750200524E+02  0.94122065100E+01 -0.20629372228E+03  0.20798620606E+03  0.00000000000E+00 0.  1.
         14    1    3    3    0    0 -0.12377214389E+02 -0.97556073216E+01  0.13373910381E+01  0.15816318315E+02  0.00000000000E+00 0. -1.
         11    1    5    5    0    0 -0.32448482155E+02 -0.20651547125E+02 -0.35463457819E+01  0.38625988158E+02  0.00000000000E+00 0. -1.
        -12    1    5    5    0    0 -0.67972769455E+01  0.11269856810E+00  0.78342426757E+02  0.78636833004E+02  0.00000000000E+00 0.  1.
          5    1    4    4  501    0  0.95428626057E+02  0.44881612528E+02  0.57012400767E+01  0.10569275449E+03  0.41800000000E+01 0.  1.
         -5    1    4    4    0  501 -0.19055452043E+02 -0.23999363159E+02  0.37324692610E+02  0.48473547045E+02  0.41800000000E+01 0.  1.
</event>
<event>
11    1  0.6455215E-009  0.1330472E+03  0.7561462E-02  0.1115581E+00
         22   -1    0    0    0    0  0.00000000000E+00  0.00000000000E+00  0.73754747598E+03  0.73754747598E+03  0.00000000000E+00 0. -1.
         22   -1    0    0    0    0 -0.00000000000E+00 -0.00000000000E+00 -0.11991734285E+03  0.11991734285E+03  0.00000000000E+00 0. -1.
        -24    2    1    2    0    0 -0.32684171342E+02 -0.11267201884E+02 -0.48415984706E+02  0.97162676187E+02  0.76819744689E+02 0.  0.
         25    2    1    2    0    0 -0.11729701880E+02  0.27661034475E+02  0.51491208041E+02  0.13856546175E+03  0.12508526672E+03 0.  0.
         24    2    1    2    0    0  0.44413873222E+02 -0.16393832590E+02  0.61455490979E+03  0.62173668089E+03  0.81470321757E+02 0.  0.
        -11    1    5    5    0    0 -0.15741324054E+01 -0.37910452395E+02  0.16410400469E+03  0.16843338341E+03  0.00000000000E+00 0.  1.
         12    1    5    5    0    0  0.45988005627E+02  0.21516619804E+02  0.45045090511E+03  0.45330329748E+03  0.00000000000E+00 0. -1.
         13    1    3    3    0    0  0.85505534342E+01  0.24843537832E+02 -0.28707382707E+02  0.38915641558E+02  0.00000000000E+00 0. -1.
        -14    1    3    3    0    0 -0.41234724776E+02 -0.36110739716E+02 -0.19708602000E+02  0.58247034629E+02  0.00000000000E+00 0.  1.
          5    1    4    4  501    0  0.47745648184E+01  0.64152333019E+02  0.69200814570E+02  0.94575596420E+02  0.41800000000E+01 0. -1.
         -5    1    4    4    0  501 -0.16504266698E+02 -0.36491298544E+02 -0.17709606529E+02  0.43989865334E+02  0.41800000000E+01 0. -1.
</event>
<event>
11    1  0.6455215E-009  0.1829052E+03  0.7561462E-02  0.1067317E+00
         22   -1    0    0    0    0  0.00000000000E+00  0.00000000000E+00  0.59929740933E+03  0.59929740933E+03  0.00000000000E+00 0. -1.
         22   -1    0    0    0    0 -0.00000000000E+00 -0.00000000000E+00 -0.13249993660E+03  0.13249993660E+03  0.00000000000E+00 0. -1.
        -24    2    1    2    0    0  0.58631872059E+02 -0.12708268273E+03 -0.29846235877E+02  0.16374999307E+03  0.79596217018E+02 0.  0.
         25    2    1    2    0    0 -0.66904364504E+02  0.89412908357E+02  0.21573447416E+03  0.27323949626E+03  0.12509035456E+03 0.  0.
         24    2    1    2    0    0  0.82724924459E+01  0.37669774369E+02  0.28090923445E+03  0.29480785660E+03  0.80710769333E+02 0.  0.
        -11    1    5    5    0    0  0.39718189498E+02  0.11980792011E+02  0.83169120368E+02  0.92941791123E+02  0.00000000000E+00 0.  1.
         12    1    5    5    0    0 -0.31445697052E+02  0.25688982357E+02  0.19774011408E+03  0.20186606548E+03  0.00000000000E+00 0. -1.
         13    1    3    3    0    0  0.60339097045E+02 -0.96794222019E+02  0.90531684102E+01  0.11441978809E+03  0.00000000000E+00 0. -1.
        -14    1    3    3    0    0 -0.17072249865E+01 -0.30288460707E+02 -0.38899404287E+02  0.49330204977E+02  0.00000000000E+00 0.  1.
          5    1    4    4  501    0  0.55382896552E+01  0.37608136501E+02  0.16762022165E+03  0.17192747218E+03  0.41800000000E+01 0. -1.
         -5    1    4    4    0  501 -0.72442654160E+02  0.51804771856E+02  0.48114252508E+02  0.10131202408E+03  0.41800000000E+01 0. -1.
</event>
<event>
11    1  0.6455215E-009  0.2163911E+03  0.7561462E-02  0.1043502E+00
         22   -1    0    0    0    0  0.00000000000E+00  0.00000000000E+00  0.13583995022E+04  0.13583995022E+04  0.00000000000E+00 0.  1.
         22   -1    0    0    0    0 -0.00000000000E+00 -0.00000000000E+00 -0.28323108997E+03  0.28323108997E+03  0.00000000000E+00 0. -1.
         24    2    1    2    0    0  0.83796032965E+02  0.16277935245E+03 -0.19758455127E+03  0.27951139496E+03  0.74619516791E+02 0.  0.
         25    2    1    2    0    0 -0.27162897129E+02 -0.14448780694E+03  0.17713304371E+03  0.26198852391E+03  0.12508925674E+03 0.  0.
        -24    2    1    2    0    0 -0.56633135836E+02 -0.18291545512E+02  0.10956199198E+04  0.11001306733E+04  0.79765888662E+02 0.  0.
        -13    1    3    3    0    0  0.34227607849E+02  0.14722860079E+02 -0.17494323696E+02  0.41162399220E+02  0.00000000000E+00 0.  1.
         14    1    3    3    0    0  0.49568425116E+02  0.14805649237E+03 -0.18009022757E+03  0.23834899574E+03  0.00000000000E+00 0. -1.
         13    1    5    5    0    0 -0.13221653493E+02 -0.46030185733E+02  0.55406220580E+03  0.55612814892E+03  0.00000000000E+00 0. -1.
        -14    1    5    5    0    0 -0.43411482344E+02  0.27738640221E+02  0.54155771402E+03  0.54400252442E+03  0.00000000000E+00 0.  1.
          5    1    4    4  501    0 -0.21020028489E+02 -0.87888324658E+02  0.18346253442E+03  0.20455359480E+03  0.41800000000E+01 0.  1.
         -5    1    4    4    0  501 -0.61428686393E+01 -0.56599482284E+02 -0.63294907065E+01  0.57434929115E+02  0.41800000000E+01 0.  1.
</event>
<event>
11    1  0.6455215E-009  0.1535835E+03  0.7561462E-02  0.1093272E+00
         22   -1    0    0    0    0  0.00000000000E+00  0.00000000000E+00  0.78912726307E+02  0.78912726307E+02  0.00000000000E+00 0.  1.
         22   -1    0    0    0    0 -0.00000000000E+00 -0.00000000000E+00 -0.10729180006E+04  0.10729180006E+04  0.00000000000E+00 0. -1.
         24    2    1    2    0    0  0.77654679556E+02  0.49460709954E+02 -0.80284588051E+03  0.81224914908E+03  0.81918015301E+02 0.  0.
         25    2    1    2    0    0 -0.80746109742E+02 -0.78576760415E+01 -0.20007997394E+03  0.24952240237E+03  0.12509099089E+03 0.  0.
        -24    2    1    2    0    0  0.30914301855E+01 -0.41603033912E+02  0.89205801327E+01  0.90059175490E+02  0.79313989742E+02 0.  0.
        -13    1    3    3    0    0 -0.17303373587E+02  0.70822426031E+01 -0.15262713705E+03  0.15376803264E+03  0.00000000000E+00 0.  1.
         14    1    3    3    0    0  0.94958053144E+02  0.42378467350E+02 -0.65021874346E+03  0.65848111643E+03  0.00000000000E+00 0. -1.
         11    1    5    5    0    0 -0.11834580178E+02 -0.21120854450E+02 -0.33086897559E+02  0.40998665476E+02  0.00000000000E+00 0. -1.
        -12    1    5    5    0    0  0.14926010364E+02 -0.20482179462E+02  0.42007477692E+02  0.49060510015E+02  0.00000000000E+00 0.  1.
          5    1    4    4  501    0 -0.80848439115E+02  0.43666119036E+02 -0.93996007142E+02  0.13151396054E+03  0.41800000000E+01 0. -1.
         -5    1    4    4    0  501  0.10232937342E+00 -0.51523795078E+02 -0.10608396680E+03  0.11800844182E+03  0.41800000000E+01 0. -1.
</event>
<event>
11    1  0.7317765E-009  0.1865724E+03  0.7561462E-02  0.1064447E+00
         22   -1    0    0    0    0  0.00000000000E+00  0.00000000000E+00  0.90522017104E+03  0.90522017104E+03  0.00000000000E+00 0. -1.
         22   -1    0    0    0    0 -0.00000000000E+00 -0.00000000000E+00 -0.19422023782E+04  0.19422023782E+04  0.00000000000E+00 0.  1.
        -24    2    1    2    0    0 -0.30070695707E+02  0.83961994830E+02 -0.16751897754E+04  0.16794585340E+04  0.79789225677E+02 0.  0.
         25    2    1    2    0    0 -0.80722015327E+02 -0.16568421381E+03 -0.20910960339E+03  0.30551882949E+03  0.12509047318E+03 0.  0.
         24    2    1    2    0    0  0.11079271103E+03  0.81722218981E+02  0.84731717160E+03  0.86244518576E+03  0.83137015021E+02 0.  0.
        -13    1    5    5    0    0 -0.73743697053E+01 -0.71410889413E+01  0.10814584033E+03  0.10863194401E+03  0.00000000000E+00 0.  1.
         14    1    5    5    0    0  0.11816708074E+03  0.88863307922E+02  0.73917133127E+03  0.75381324175E+03  0.00000000000E+00 0. -1.
         13    1    3    3    0    0  0.25020775773E+02  0.44727038526E+02 -0.81862685095E+03  0.82022952172E+03  0.00000000000E+00 0. -1.
        -14    1    3    3    0    0 -0.55091471479E+02  0.39234956304E+02 -0.85656292440E+03  0.85922901224E+03  0.00000000000E+00 0.  1.
          5    1    4    4  501    0 -0.23077917195E+02 -0.14082194538E+03 -0.19390687806E+03  0.24079194406E+03  0.41800000000E+01 0.  1.
         -5    1    4    4    0  501 -0.57644098132E+02 -0.24862268427E+02 -0.15202725329E+02  0.64726885436E+02  0.41800000000E+01 0.  1.
</event>
<event>
11    1  0.6455215E-009  0.3280039E+03  0.7561462E-02  0.9889897E-01
         22   -1    0    0    0    0  0.00000000000E+00  0.00000000000E+00  0.16586956744E+03  0.16586956744E+03  0.00000000000E+00 0.  1.
         22   -1    0    0    0    0 -0.00000000000E+00 -0.00000000000E+00 -0.23076505751E+04  0.23076505751E+04  0.00000000000E+00 0. -1.
         24    2    1    2    0    0  0.34517813861E+03  0.76111665254E+02 -0.15385487303E+04  0.15806626891E+04  0.80133690356E+02 0.  0.
         25    2    1    2    0    0 -0.12454789603E+03 -0.24870590757E+03 -0.49950484970E+03  0.58525159145E+03  0.12509006177E+03 0.  0.
        -24    2    1    2    0    0 -0.22063024258E+03  0.17259424232E+03 -0.10372742771E+03  0.30760586201E+03  0.73454139830E+02 0.  0.
        -13    1    3    3    0    0  0.88909769443E+02  0.40113704862E+02 -0.56228098719E+03  0.57067851280E+03  0.00000000000E+00 0.  1.
         14    1    3    3    0    0  0.25626836916E+03  0.35997960392E+02 -0.97626774308E+03  0.10099841763E+04  0.00000000000E+00 0. -1.
         11    1    5    5    0    0 -0.12895266816E+02  0.13529551395E+01  0.89559392162E+01  0.15758402238E+02  0.00000000000E+00 0. -1.
        -12    1    5    5    0    0 -0.20773497576E+03  0.17124128718E+03 -0.11268336693E+03  0.29184745977E+03  0.00000000000E+00 0.  1.
          5    1    4    4  501    0 -0.13720811138E+03 -0.25508980746E+03 -0.46708101251E+03  0.54961715798E+03  0.41800000000E+01 0. -1.
         -5    1    4    4    0  501  0.12660215350E+02  0.63838998911E+01 -0.32423837189E+02  0.35634433467E+02  0.41800000000E+01 0. -1.
</event>
<event>
11    1  0.6455215E-009  0.2233354E+03  0.7561462E-02  0.1039148E+00
         22   -1    0    0    0    0  0.00000000000E+00  0.00000000000E+00  0.77640582564E+03  0.77640582564E+03  0.00000000000E+00 0.  1.
         22   -1    0    0    0    0 -0.00000000000E+00 -0.00000000000E+00 -0.51911760545E+03  0.51911760545E+03  0.00000000000E+00 0.  1.
         24    2    1    2    0    0  0.68959605226E+02 -0.36141174653E+02 -0.39285537218E+03  0.40876305095E+03  0.81794111758E+02 0.  0.
         25    2    1    2    0    0 -0.24398238463E+03  0.29649483496E+02  0.86776442760E+02  0.28910762287E+03  0.12508625306E+03 0.  0.
        -24    2    1    2    0    0  0.17502277940E+03  0.64916911570E+01  0.56336714961E+03  0.59765275727E+03  0.95557091049E+02 0.  0.
        -13    1    3    3    0    0  0.73400929591E+02 -0.44030713598E+02 -0.22605776136E+03  0.24171990335E+03  0.00000000000E+00 0.  1.
         14    1    3    3    0    0 -0.44413243642E+01  0.78895389451E+01 -0.16679761081E+03  0.16704314760E+03  0.00000000000E+00 0. -1.
         13    1    5    5    0    0  0.81774000844E+02 -0.33637285343E+02  0.17281250984E+03  0.19412011162E+03  0.00000000000E+00 0. -1.
        -14    1    5    5    0    0  0.93248778559E+02  0.40128976500E+02  0.39055463977E+03  0.40353264565E+03  0.00000000000E+00 0.  1.
          5    1    4    4  501    0 -0.20615474311E+03 -0.23009757389E+02  0.46369681267E+02  0.21259550038E+03  0.41800000000E+01 0. -1.
         -5    1    4    4    0  501 -0.37827641517E+02  0.52659240885E+02  0.40406761493E+02  0.76512122488E+02  0.41800000000E+01 0. -1.
</event>
<event>
11    1  0.6455215E-009  0.1350277E+03  0.7561462E-02  0.1113241E+00
         22   -1    0    0    0    0  0.00000000000E+00  0.00000000000E+00  0.30870798080E+03  0.30870798080E+03  0.00000000000E+00 0.  1.
         22   -1    0    0    0    0 -0.00000000000E+00 -0.00000000000E+00 -0.32709076341E+03  0.32709076341E+03  0.00000000000E+00 0. -1.
        -24    2    1    2    0    0 -0.18762228568E+02  0.58463686763E+02 -0.24561346414E+03  0.27146655017E+03  0.97969843340E+02 0.  0.
         25    2    1    2    0    0 -0.80257180579E+01  0.26951119137E+01  0.10852332470E+02  0.12584274569E+03  0.12508776016E+03 0.  0.
         24    2    1    2    0    0  0.26787946626E+02 -0.61158798677E+02  0.21637834906E+03  0.23848944835E+03  0.74830704221E+02 0.  0.
        -13    1    5    5    0    0  0.41578312637E+02 -0.34365540123E+02  0.19178901021E+03  0.19923044664E+03  0.00000000000E+00 0.  1.
         14    1    5    5    0    0 -0.14790366012E+02 -0.26793258554E+02  0.24589338848E+02  0.39259001715E+02  0.00000000000E+00 0. -1.
         11    1    3    3    0    0 -0.44549398997E+02  0.25074773994E+02 -0.21037729413E+03  0.21649942061E+03  0.00000000000E+00 0. -1.
        -12    1    3    3    0    0  0.25787170429E+02  0.33388912769E+02 -0.35236170016E+02  0.54967129560E+02  0.00000000000E+00 0.  1.
          5    1    4    4  501    0 -0.21656391800E+02 -0.95933417835E+01 -0.53572832321E+02  0.58724375478E+02  0.41800000000E+01 0. -1.
         -5    1    4    4    0  501  0.13630673742E+02  0.12288453697E+02  0.64425164791E+02  0.67118370208E+02  0.41800000000E+01 0. -1.
</event>
<event>
11    1  0.6455215E-009  0.1315277E+03  0.7561462E-02  0.1117406E+00
         22   -1    0    0    0    0  0.00000000000E+00  0.00000000000E+00  0.38985156223E+03  0.38985156223E+03  0.00000000000E+00 0. -1.
         22   -1    0    0    0    0 -0.00000000000E+00 -0.00000000000E+00 -0.31710970929E+03  0.31710970929E+03  0.00000000000E+00 0. -1.
         24    2    1    2    0    0  0.19431415782E+02  0.37643620286E+02 -0.18906397057E+03  0.20996084665E+03  0.80893448982E+02 0.  0.
         25    2    1    2    0    0  0.12448695525E+02 -0.42237797260E+02 -0.73016857799E+02  0.15138496409E+03  0.12508774637E+03 0.  0.
        -24    2    1    2    0    0 -0.31880111307E+02  0.45941769744E+01  0.33482268132E+03  0.34561546079E+03  0.79412661784E+02 0.  0.
        -11    1    3    3    0    0 -0.17406448940E+02  0.27947936095E+02 -0.24486251473E+02  0.41032281290E+02  0.00000000000E+00 0.  1.
         12    1    3    3    0    0  0.36837864722E+02  0.96956841911E+01 -0.16457771910E+03  0.16892856536E+03  0.00000000000E+00 0. -1.
         13    1    5    5    0    0  0.80374741413E+01 -0.25488871308E+02  0.20088338743E+03  0.20265344531E+03  0.00000000000E+00 0. -1.
        -14    1    5    5    0    0 -0.39917585448E+02  0.30083048282E+02  0.13393929389E+03  0.14296201548E+03  0.00000000000E+00 0.  1.
          5    1    4    4  501    0 -0.69502021835E+01  0.22646756160E+02  0.23352185925E+02  0.33525779073E+02  0.41800000000E+01 0. -1.
         -5    1    4    4    0  501  0.19398897709E+02 -0.64884553420E+02 -0.96369043724E+02  0.11785918502E+03  0.41800000000E+01 0. -1.
</event>
<event>
11    1  0.6455215E-009  0.1453951E+03  0.7561462E-02  0.1101679E+00
         22   -1    0    0    0    0  0.00000000000E+00  0.00000000000E+00  0.10076837569E+03  0.10076837569E+03  0.00000000000E+00 0. -1.
         22   -1    0    0    0    0 -0.00000000000E+00 -0.00000000000E+00 -0.58606803275E+03  0.58606803275E+03  0.00000000000E+00 0. -1.
        -24    2    1    2    0    0  0.17152036302E+02 -0.17857867837E+01 -0.38844303528E+03  0.39792903725E+03  0.84629460878E+02 0.  0.
         25    2    1    2    0    0  0.56261623644E+02  0.28630767542E+02 -0.10747195750E+03  0.17658662704E+03  0.12509006378E+03 0.  0.
         24    2    1    2    0    0 -0.73413659946E+02 -0.26844980758E+02  0.10615335719E+02  0.11232074414E+03  0.79956524148E+02 0.  0.
        -11    1    5    5    0    0 -0.95684643246E+01 -0.19118723918E+02 -0.29568272771E+02  0.36487859192E+02  0.00000000000E+00 0.  1.
         12    1    5    5    0    0 -0.63845195621E+02 -0.77262568397E+01  0.40183608490E+02  0.75832884951E+02  0.00000000000E+00 0. -1.
         11    1    3    3    0    0  0.38965820383E+01 -0.42946024485E+02 -0.19589114717E+03  0.20058136979E+03  0.00000000000E+00 0. -1.
        -12    1    3    3    0    0  0.13255454264E+02  0.41160237701E+02 -0.19255188811E+03  0.19734766746E+03  0.00000000000E+00 0.  1.
          5    1    4    4  501    0  0.70147240561E+02 -0.52974542301E+01 -0.11867901373E+03  0.13802492195E+03  0.41800000000E+01 0. -1.
         -5    1    4    4    0  501 -0.13885616917E+02  0.33928221772E+02  0.11207056239E+02  0.38561705088E+02  0.41800000000E+01 0. -1.
</event>
<event>
11    1  0.6455215E-009  0.1486897E+03  0.7561462E-02  0.1098225E+00
         22   -1    0    0    0    0  0.00000000000E+00  0.00000000000E+00  0.60317562834E+03  0.60317562834E+03  0.00000000000E+00 0.  1.
         22   -1    0    0    0    0 -0.00000000000E+00 -0.00000000000E+00 -0.79515056251E+03  0.79515056251E+03  0.00000000000E+00 0. -1.
        -24    2    1    2    0    0  0.71231391172E+02 -0.42808746465E+02 -0.62532244515E+03  0.63599837586E+03  0.80989343886E+02 0.  0.
         25    2    1    2    0    0 -0.77121394198E+02 -0.98764369633E+01 -0.12681094664E+03  0.19436339425E+03  0.12510339478E+03 0.  0.
         24    2    1    2    0    0  0.58900030260E+01  0.52685183428E+02  0.56015845761E+03  0.56796442075E+03  0.77431679032E+02 0.  0.
        -13    1    5    5    0    0 -0.32802444957E+02  0.25608976047E+02  0.35552681396E+03  0.35795409691E+03  0.00000000000E+00 0.  1.
         14    1    5    5    0    0  0.38692447983E+02  0.27076207382E+02  0.20463164366E+03  0.21001032385E+03  0.00000000000E+00 0. -1.
         11    1    3    3    0    0  0.41925324825E+02 -0.47274210485E+02 -0.56762377579E+03  0.57112987549E+03  0.00000000000E+00 0. -1.
        -12    1    3    3    0    0  0.29306066347E+02  0.44654640203E+01 -0.57698669360E+02  0.64868500365E+02  0.00000000000E+00 0.  1.
          5    1    4    4  501    0 -0.88551799920E+02 -0.34500454102E+02 -0.39795724095E+02  0.10311583127E+03  0.41800000000E+01 0.  1.
         -5    1    4    4    0  501  0.11430405722E+02  0.24624017139E+02 -0.87015222544E+02  0.91247562978E+02  0.41800000000E+01 0.  1.
</event>
<event>
11    1  0.6455215E-009  0.1438201E+03  0.7561462E-02  0.1103366E+00
         22   -1    0    0    0    0  0.00000000000E+00  0.00000000000E+00  0.56845927197E+03  0.56845927197E+03  0.00000000000E+00 0.  1.
         22   -1    0    0    0    0 -0.00000000000E+00 -0.00000000000E+00 -0.34388547780E+03  0.34388547780E+03  0.00000000000E+00 0.  1.
         24    2    1    2    0    0  0.24665721656E+02 -0.78161573666E+00 -0.38478293816E+02  0.93376326306E+02  0.81422051506E+02 0.  0.
         25    2    1    2    0    0  0.20565151898E+02  0.55864779298E+02 -0.25468995917E+03  0.28992820383E+03  0.12509032350E+03 0.  0.
        -24    2    1    2    0    0 -0.45230873554E+02 -0.55083163561E+02  0.51774204716E+03  0.52904021963E+03  0.82138540044E+02 0.  0.
        -13    1    3    3    0    0  0.46599550613E+02 -0.20201943307E+02 -0.39063195145E+02  0.64074720800E+02  0.00000000000E+00 0.  1.
         14    1    3    3    0    0 -0.21933828957E+02  0.19420327570E+02  0.58490132897E+00  0.29301605506E+02  0.00000000000E+00 0. -1.
         11    1    5    5    0    0 -0.52480287016E+02 -0.26724930878E+02  0.16702343989E+03  0.17710232051E+03  0.00000000000E+00 0. -1.
        -12    1    5    5    0    0  0.72494134613E+01 -0.28358232683E+02  0.35071860727E+03  0.35193789913E+03  0.00000000000E+00 0.  1.
          5    1    4    4  501    0 -0.43752420759E+02  0.97939548938E+01 -0.37036899042E+02  0.58304375182E+02  0.41800000000E+01 0.  1.
         -5    1    4    4    0  501  0.64317572657E+02  0.46070824404E+02 -0.21765306013E+03  0.23162382865E+03  0.41800000000E+01 0.  1.
</event>
<event>
11    1  0.6455215E-009  0.1476734E+03  0.7561462E-02  0.1099280E+00
         22   -1    0    0    0    0  0.00000000000E+00  0.00000000000E+00  0.28736270244E+03  0.28736270244E+03  0.00000000000E+00 0.  1.
         22   -1    0    0    0    0 -0.00000000000E+00 -0.00000000000E+00 -0.13735510260E+04  0.13735510260E+04  0.00000000000E+00 0.  1.
        -24    2    1    2    0    0 -0.31247022400E+02  0.16779743246E+02 -0.12315065488E+04  0.12346775324E+04  0.81007980904E+02 0.  0.
         25    2    1    2    0    0  0.10615434635E+03 -0.60991495112E+01 -0.73545636656E+02  0.17989525981E+03  0.12508956375E+03 0.  0.
         24    2    1    2    0    0 -0.74907323947E+02 -0.10680593735E+02  0.21886386192E+03  0.24634093625E+03  0.84007645796E+02 0.  0.
        -13    1    5    5    0    0  0.16798734281E+01 -0.69727648575E+01  0.12470447148E+03  0.12491055453E+03  0.00000000000E+00 0.  1.
         14    1    5    5    0    0 -0.76587197375E+02 -0.37078288778E+01  0.94159390440E+02  0.12143038172E+03  0.00000000000E+00 0. -1.
         11    1    3    3    0    0  0.13713191689E+02  0.12374296270E+02 -0.73338761471E+02  0.75629020677E+02  0.00000000000E+00 0. -1.
        -12    1    3    3    0    0 -0.44960214089E+02  0.44054469769E+01 -0.11581677873E+04  0.11590485117E+04  0.00000000000E+00 0.  1.
          5    1    4    4  501    0  0.41389987617E+02 -0.64094527985E+02 -0.25967282790E+02  0.80703232699E+02  0.41800000000E+01 0. -1.
         -5    1    4    4    0  501  0.64764358730E+02  0.57995378474E+02 -0.47578353866E+02  0.99192027112E+02  0.41800000000E+01 0. -1.
</event>
<event>
11    1  0.6455215E-009  0.1374700E+03  0.7561462E-02  0.1110417E+00
         22   -1    0    0    0    0  0.00000000000E+00  0.00000000000E+00  0.30868679317E+03  0.30868679317E+03  0.00000000000E+00 0.  1.
         22   -1    0    0    0    0 -0.00000000000E+00 -0.00000000000E+00 -0.15248749593E+03  0.15248749593E+03  0.00000000000E+00 0. -1.
         24    2    1    2    0    0 -0.25631875673E+01 -0.61105285344E+02 -0.70505071604E+02  0.12295606346E+03  0.80042504908E+02 0.  0.
         25    2    1    2    0    0  0.47120799133E+02  0.33813522889E+02  0.70382157509E+02  0.15480457445E+03  0.12508830534E+03 0.  0.
        -24    2    1    2    0    0 -0.44557611566E+02  0.27291762454E+02  0.15632221133E+03  0.18341365119E+03  0.80459385047E+02 0.  0.
        -13    1    3    3    0    0  0.21435937581E+02 -0.21133744384E+02  0.84478677374E+01  0.31265013049E+02  0.00000000000E+00 0.  1.
         14    1    3    3    0    0 -0.23999125148E+02 -0.39971540960E+02 -0.78952939341E+02  0.91691050409E+02  0.00000000000E+00 0. -1.
         11    1    5    5    0    0 -0.63669140576E+01 -0.27931014937E+02  0.42193062990E+02  0.50999350531E+02  0.00000000000E+00 0. -1.
        -12    1    5    5    0    0 -0.38190697508E+02  0.55222777391E+02  0.11412914834E+03  0.13241430066E+03  0.00000000000E+00 0.  1.
          5    1    4    4  501    0 -0.14808690448E+02  0.56049161627E+02 -0.32850483682E+00  0.58123886203E+02  0.41800000000E+01 0. -1.
         -5    1    4    4    0  501  0.61929489581E+02 -0.22235638738E+02  0.70710662346E+02  0.96680688243E+02  0.41800000000E+01 0. -1.
</event>
<event>
11    1  0.6455215E-009  0.1343702E+03  0.7561462E-02  0.1114013E+00
         22   -1    0    0    0    0  0.00000000000E+00  0.00000000000E+00  0.72452575497E+03  0.72452575497E+03  0.00000000000E+00 0.  1.
         22   -1    0    0    0    0 -0.00000000000E+00 -0.00000000000E+00 -0.24946585967E+04  0.24946585967E+04  0.00000000000E+00 0. -1.
         24    2    1    2    0    0  0.31658633772E+02 -0.37384009429E+02 -0.24441534222E+04  0.24458987232E+04  0.78324833204E+02 0.  0.
         25    2    1    2    0    0 -0.30359672548E+02  0.43350797135E+02  0.51009437662E+02  0.14510431977E+03  0.12510915056E+03 0.  0.
        -24    2    1    2    0    0 -0.12989612233E+01 -0.59667877063E+01  0.62301114286E+03  0.62818130868E+03  0.80197148265E+02 0.  0.
        -11    1    3    3    0    0  0.70951340611E+01  0.24655668291E+02 -0.68453096772E+03  0.68501159747E+03  0.00000000000E+00 0.  1.
         12    1    3    3    0    0  0.24563499711E+02 -0.62039677719E+02 -0.17596224545E+04  0.17608871257E+04  0.00000000000E+00 0. -1.
         11    1    5    5    0    0  0.28519961907E+02 -0.57632909312E+01  0.95646755332E+02  0.99974524530E+02  0.00000000000E+00 0. -1.
        -12    1    5    5    0    0 -0.29818923130E+02 -0.20349677509E+00  0.52736438753E+03  0.52820678415E+03  0.00000000000E+00 0.  1.
          5    1    4    4  501    0  0.48806760511E+02  0.15888809282E+02  0.13732818164E+02  0.53297437337E+02  0.41800000000E+01 0.  1.
         -5    1    4    4    0  501 -0.79166433059E+02  0.27461987853E+02  0.37276619499E+02  0.91806882429E+02  0.41800000000E+01 0.  1.
</event>
<event>
11    1  0.6455215E-009  0.1392089E+03  0.7561462E-02  0.1108445E+00
         22   -1    0    0    0    0  0.00000000000E+00  0.00000000000E+00  0.18786330523E+03  0.18786330523E+03  0.00000000000E+00 0. -1.
         22   -1    0    0    0    0 -0.00000000000E+00 -0.00000000000E+00 -0.53619682069E+03  0.53619682069E+03  0.00000000000E+00 0. -1.
        -24    2    1    2    0    0  0.70628949194E+02  0.15502637541E+02 -0.36446699936E+03  0.37998426451E+03  0.79517717618E+02 0.  0.
         25    2    1    2    0    0 -0.97174655543E+01 -0.35472799566E+02 -0.11671688493E+03  0.17499510431E+03  0.12509079366E+03 0.  0.
         24    2    1    2    0    0 -0.60911483640E+02  0.19970162025E+02  0.13285036883E+03  0.16908075711E+03  0.82644211632E+02 0.  0.
        -11    1    5    5    0    0  0.47460888004E+01  0.60240893573E+01 -0.91957908810E+01  0.11974037807E+02  0.00000000000E+00 0.  1.
         12    1    5    5    0    0 -0.65657572440E+02  0.13946072668E+02  0.14204615971E+03  0.15710671930E+03  0.00000000000E+00 0. -1.
         11    1    3    3    0    0  0.84812092028E+02  0.26687237910E+01 -0.32808504029E+03  0.33888051980E+03  0.00000000000E+00 0. -1.
        -12    1    3    3    0    0 -0.14183142834E+02  0.12833913750E+02 -0.36381959075E+02  0.41103744707E+02  0.00000000000E+00 0.  1.
          5    1    4    4  501    0 -0.23030638001E+02 -0.53342048594E+02 -0.22400028077E+01  0.58294720580E+02  0.41800000000E+01 0.  1.
         -5    1    4    4    0  501  0.13313172447E+02  0.17869249028E+02 -0.11447688212E+03  0.11670038373E+03  0.41800000000E+01 0.  1.
</event>
<event>
11    1  0.6455215E-009  0.1387050E+03  0.7561462E-02  0.1109013E+00
         22   -1    0    0    0    0  0.00000000000E+00  0.00000000000E+00  0.24349023572E+03  0.24349023572E+03  0.00000000000E+00 0.  1.
         22   -1    0    0    0    0 -0.00000000000E+00 -0.00000000000E+00 -0.12854625591E+04  0.12854625591E+04  0.00000000000E+00 0.  1.
         24    2    1    2    0    0 -0.19917198749E+02  0.19328402026E+02 -0.11755704298E+04  0.11786402885E+04  0.80354292761E+02 0.  0.
         25    2    1    2    0    0 -0.39893234820E+02 -0.34248660899E+02 -0.46769808039E+02  0.14352599051E+03  0.12509138279E+03 0.  0.
        -24    2    1    2    0    0  0.59810433569E+02  0.14920258874E+02  0.18036791451E+03  0.20678651575E+03  0.80175909236E+02 0.  0.
        -13    1    3    3    0    0  0.30549926786E+02  0.35048565930E+01 -0.33535897038E+03  0.33676582525E+03  0.00000000000E+00 0.  1.
         14    1    3    3    0    0 -0.50467125536E+02  0.15823545433E+02 -0.84021145944E+03  0.84187446328E+03  0.00000000000E+00 0. -1.
         13    1    5    5    0    0  0.18020249315E+02  0.92706707932E+01 -0.12822463472E+01  0.20305636607E+02  0.00000000000E+00 0. -1.
        -14    1    5    5    0    0  0.41790184254E+02  0.56495880805E+01  0.18165016086E+03  0.18648087914E+03  0.00000000000E+00 0.  1.
          5    1    4    4  501    0  0.18794927008E+01 -0.19176918698E+02 -0.83467802723E+02  0.85764988165E+02  0.41800000000E+01 0.  1.
         -5    1    4    4    0  501 -0.41772727521E+02 -0.15071742201E+02  0.36697994684E+02  0.57761002340E+02  0.41800000000E+01 0.  1.
</event>
<event>
11    1  0.6455215E-009  0.1430098E+03  0.7561462E-02  0.1104243E+00
         22   -1    0    0    0    0  0.00000000000E+00  0.00000000000E+00  0.15111121709E+04  0.15111121709E+04  0.00000000000E+00 0.  1.
         22   -1    0    0    0    0 -0.00000000000E+00 -0.00000000000E+00 -0.81223903545E+02  0.81223903545E+02  0.00000000000E+00 0. -1.
        -24    2    1    2    0    0  0.68365085184E+02 -0.45350543916E-01 -0.15175006497E+02  0.10652236352E+03  0.80267964840E+02 0.  0.
         25    2    1    2    0    0 -0.74852680382E+02  0.21254833544E+02  0.26915817642E+03  0.30683533557E+03  0.12508839879E+03 0.  0.
         24    2    1    2    0    0  0.64875951977E+01 -0.21209483000E+02  0.11759050974E+04  0.11789783753E+04  0.82129655544E+02 0.  0.
        -13    1    5    5    0    0 -0.23111841578E+01  0.19725495022E+02  0.86938597575E+03  0.86961279404E+03  0.00000000000E+00 0.  1.
         14    1    5    5    0    0  0.87987793555E+01 -0.40934978022E+02  0.30651912163E+03  0.30936558126E+03  0.00000000000E+00 0. -1.
         11    1    3    3    0    0  0.71186772630E+01  0.18818257921E+02 -0.34194089281E+02  0.39674149504E+02  0.00000000000E+00 0. -1.
        -12    1    3    3    0    0  0.61246407921E+02 -0.18863608465E+02  0.19019082784E+02  0.66848214019E+02  0.00000000000E+00 0.  1.
          5    1    4    4  501    0  0.21181128554E+02 -0.95634108257E+00  0.16028153219E+01  0.21670168713E+02  0.41800000000E+01 0.  1.
         -5    1    4    4    0  501 -0.96033808936E+02  0.22211174626E+02  0.26755536110E+03  0.28516516686E+03  0.41800000000E+01 0.  1.
</event>
<event>
11    1  0.6455215E-009  0.1598845E+03  0.7561462E-02  0.1087186E+00
         22   -1    0    0    0    0  0.00000000000E+00  0.00000000000E+00  0.66611400644E+03  0.66611400644E+03  0.00000000000E+00 0. -1.
         22   -1    0    0    0    0 -0.00000000000E+00 -0.00000000000E+00 -0.21384204053E+04  0.21384204053E+04  0.00000000000E+00 0.  1.
         24    2    1    2    0    0 -0.10352553052E+03 -0.19998626244E+02 -0.17665718059E+04  0.17713907151E+04  0.77017137944E+02 0.  0.
         25    2    1    2    0    0  0.69630932008E+02 -0.42408391059E+02 -0.34957112196E+03  0.38012499118E+03  0.12509237101E+03 0.  0.
        -24    2    1    2    0    0  0.33894598509E+02  0.62407017303E+02  0.64383652902E+03  0.65301870548E+03  0.82852121201E+02 0.  0.
        -13    1    3    3    0    0 -0.91941419436E+02  0.43854979961E+01 -0.16000049716E+04  0.16026504192E+04  0.00000000000E+00 0.  1.
         14    1    3    3    0    0 -0.11584111080E+02 -0.24384124240E+02 -0.16656683433E+03  0.16874029585E+03  0.00000000000E+00 0. -1.
         13    1    5    5    0    0  0.41488699233E+02  0.11510005150E+02  0.46314894130E+03  0.46514592787E+03  0.00000000000E+00 0. -1.
        -14    1    5    5    0    0 -0.75941007246E+01  0.50897012153E+02  0.18068758772E+03  0.18787277761E+03  0.00000000000E+00 0.  1.
          5    1    4    4  501    0 -0.71020421800E+00  0.13954733369E+02  0.40793889119E+01  0.15144397886E+02  0.41800000000E+01 0.  1.
         -5    1    4    4    0  501  0.70341136226E+02 -0.56363124428E+02 -0.35365051087E+03  0.36498059329E+03  0.41800000000E+01 0.  1.
</event>
<event>
11    1  0.6455215E-009  0.1574876E+03  0.7561462E-02  0.1089464E+00
         22   -1    0    0    0    0  0.00000000000E+00  0.00000000000E+00  0.97666210466E+02  0.97666210466E+02  0.00000000000E+00 0. -1.
         22   -1    0    0    0    0 -0.00000000000E+00 -0.00000000000E+00 -0.14158626765E+04  0.14158626765E+04  0.00000000000E+00 0. -1.
        -24    2    1    2    0    0  0.61749016823E+02  0.75247678191E+02 -0.12259453982E+04  0.12324882503E+04  0.81301989279E+02 0.  0.
         25    2    1    2    0    0 -0.51242114331E+02 -0.59213520335E+02 -0.12494335791E+03  0.19336776630E+03  0.12509298577E+03 0.  0.
         24    2    1    2    0    0 -0.10506902491E+02 -0.16034157856E+02  0.32692290057E+02  0.87672870442E+02  0.79058567937E+02 0.  0.
        -11    1    5    5    0    0 -0.30157229149E+02 -0.31103625355E+02  0.42824712597E+02  0.60916746377E+02  0.00000000000E+00 0.  1.
         12    1    5    5    0    0  0.19650326658E+02  0.15069467499E+02 -0.10132422539E+02  0.26756124065E+02  0.00000000000E+00 0. -1.
         13    1    3    3    0    0  0.43431803126E+02  0.52817072909E+02 -0.11346763298E+04  0.11367349463E+04  0.00000000000E+00 0. -1.
        -14    1    3    3    0    0  0.18317213696E+02  0.22430605281E+02 -0.91269068464E+02  0.95753304012E+02  0.00000000000E+00 0.  1.
          5    1    4    4  501    0 -0.87095785892E+02 -0.28918968062E+02 -0.11128353864E+03  0.14430343380E+03  0.41800000000E+01 0.  1.
         -5    1    4    4    0  501  0.35853671561E+02 -0.30294552273E+02 -0.13659819275E+02  0.49064332508E+02  0.41800000000E+01 0.  1.
</event>
<event>
11    1  0.6455215E-009  0.1782496E+03  0.7561462E-02  0.1071068E+00
         22   -1    0    0    0    0  0.00000000000E+00  0.00000000000E+00  0.48030747909E+03  0.48030747909E+03  0.00000000000E+00 0.  1.
         22   -1    0    0    0    0 -0.00000000000E+00 -0.00000000000E+00 -0.57962128670E+03  0.57962128670E+03  0.00000000000E+00 0. -1.
         24    2    1    2    0    0 -0.79354402811E+02 -0.39920282235E+01 -0.31750098605E+03  0.33676554944E+03  0.79316464954E+02 0.  0.
         25    2    1    2    0    0 -0.47054604986E+02 -0.30309513736E+02 -0.21987970517E+03  0.25908982980E+03  0.12509057794E+03 0.  0.
        -24    2    1    2    0    0  0.12640900780E+03  0.34301541959E+02  0.43806688361E+03  0.46407338654E+03  0.79408315344E+02 0.  0.
        -13    1    3    3    0    0 -0.63176883204E+02  0.23847843622E+02 -0.12972054177E+03  0.14624451160E+03  0.00000000000E+00 0.  1.
         14    1    3    3    0    0 -0.16177519607E+02 -0.27839871845E+02 -0.18778044428E+03  0.19052103784E+03  0.00000000000E+00 0. -1.
         11    1    5    5    0    0  0.97983731120E+02 -0.70634502420E+00  0.21195435489E+03  0.23350794214E+03  0.00000000000E+00 0. -1.
        -12    1    5    5    0    0  0.28425276676E+02  0.35007886983E+02  0.22611252872E+03  0.23056544440E+03  0.00000000000E+00 0.  1.
          5    1    4    4  501    0 -0.75359355659E+02 -0.52038011258E+01 -0.65444811870E+02  0.10003303370E+03  0.41800000000E+01 0. -1.
         -5    1    4    4    0  501  0.28304750673E+02 -0.25105712610E+02 -0.15443489330E+03  0.15905679610E+03  0.41800000000E+01 0. -1.
</event>
<event>
11    1  0.6455215E-009  0.1509398E+03  0.7561462E-02  0.1095922E+00
         22   -1    0    0    0    0  0.00000000000E+00  0.00000000000E+00  0.21701316075E+03  0.21701316075E+03  0.00000000000E+00 0.  1.
         22   -1    0    0    0    0 -0.00000000000E+00 -0.00000000000E+00 -0.32086347696E+03  0.32086347696E+03  0.00000000000E+00 0. -1.
         24    2    1    2    0    0  0.17078148829E+02 -0.18837387291E+02 -0.21447608834E+03  0.22983014791E+03  0.78583675726E+02 0.  0.
         25    2    1    2    0    0 -0.89059481470E+02  0.49513554355E+02  0.17598944042E+02  0.16230263540E+03  0.12509691971E+03 0.  0.
        -24    2    1    2    0    0  0.71981332641E+02 -0.30676167064E+02  0.93026828087E+02  0.14574385441E+03  0.80404856067E+02 0.  0.
        -11    1    3    3    0    0 -0.28743568189E+02  0.52438360215E+01 -0.56797608795E+02  0.63872207518E+02  0.00000000000E+00 0.  1.
         12    1    3    3    0    0  0.45821717018E+02 -0.24081223313E+02 -0.15767847955E+03  0.16595794039E+03  0.00000000000E+00 0. -1.
         11    1    5    5    0    0  0.73645851659E+02  0.65007657270E+01  0.52210273127E+02  0.90509027404E+02  0.00000000000E+00 0. -1.
        -12    1    5    5    0    0 -0.16645190179E+01 -0.37176932791E+02  0.40816554960E+02  0.55234827003E+02  0.00000000000E+00 0.  1.
          5    1    4    4  501    0 -0.55762180535E+02  0.91135493322E+02  0.33711066526E+01  0.10697633234E+03  0.41800000000E+01 0.  1.
         -5    1    4    4    0  501 -0.33297300935E+02 -0.41621938967E+02  0.14227837389E+02  0.55326303055E+02  0.41800000000E+01 0.  1.
</event>
<event>
11    1  0.6455215E-009  0.1781625E+03  0.7561462E-02  0.1071139E+00
         22   -1    0    0    0    0  0.00000000000E+00  0.00000000000E+00  0.45568009398E+03  0.45568009398E+03  0.00000000000E+00 0. -1.
         22   -1    0    0    0    0 -0.00000000000E+00 -0.00000000000E+00 -0.11754612089E+03  0.11754612089E+03  0.00000000000E+00 0.  1.
         24    2    1    2    0    0  0.40627344295E+02  0.12109336132E+03 -0.33471378330E+01  0.14676065924E+03  0.72203216745E+02 0.  0.
         25    2    1    2    0    0 -0.35149449205E+02 -0.11877964802E+03  0.22351705985E+03  0.28451942930E+03  0.12508933224E+03 0.  0.
        -24    2    1    2    0    0 -0.54778950897E+01 -0.23137132967E+01  0.11796405106E+03  0.14194612633E+03  0.78726265199E+02 0.  0.
        -13    1    3    3    0    0  0.43609408436E+02  0.46817363169E+02 -0.25980880805E+02  0.69055428213E+02  0.00000000000E+00 0.  1.
         14    1    3    3    0    0 -0.29820641419E+01  0.74275998151E+02  0.22633742972E+02  0.77705231026E+02  0.00000000000E+00 0. -1.
         13    1    5    5    0    0  0.31635629456E+02 -0.10454717452E+02  0.25427666309E+02  0.41912771108E+02  0.00000000000E+00 0. -1.
        -14    1    5    5    0    0 -0.37113524546E+02  0.81410041550E+01  0.92536384755E+02  0.10003335522E+03  0.00000000000E+00 0.  1.
          5    1    4    4  501    0 -0.67158683800E+02 -0.12610976286E+03  0.18089456638E+03  0.23055211481E+03  0.41800000000E+01 0.  1.
         -5    1    4    4    0  501  0.32009234595E+02  0.73301148396E+01  0.42622493472E+02  0.53967314485E+02  0.41800000000E+01 0.  1.
</event>
<event>
11    1  0.6455215E-009  0.1441495E+03  0.7561462E-02  0.1103011E+00
         22   -1    0    0    0    0  0.00000000000E+00  0.00000000000E+00  0.88760280659E+03  0.88760280659E+03  0.00000000000E+00 0. -1.
         22   -1    0    0    0    0 -0.00000000000E+00 -0.00000000000E+00 -0.18372627261E+03  0.18372627261E+03  0.00000000000E+00 0.  1.
        -24    2    1    2    0    0  0.59762145135E+02  0.17447468945E+02 -0.55908089550E+02  0.11834037926E+03  0.83682750442E+02 0.  0.
         25    2    1    2    0    0 -0.88332943541E+02 -0.20983555712E+02 -0.30621172470E+02  0.15756678489E+03  0.12508643800E+03 0.  0.
         24    2    1    2    0    0  0.28570798406E+02  0.35360867674E+01  0.79040579600E+03  0.79542191505E+03  0.84415082520E+02 0.  0.
        -11    1    5    5    0    0 -0.24646225516E+02  0.17828524272E+02  0.18185459866E+03  0.18438109384E+03  0.00000000000E+00 0.  1.
         12    1    5    5    0    0  0.53217023922E+02 -0.14292437505E+02  0.60855119733E+03  0.61104082121E+03  0.00000000000E+00 0. -1.
         13    1    3    3    0    0 -0.78000606487E+01 -0.21189361865E+02 -0.27280688315E+02  0.35412793696E+02  0.00000000000E+00 0. -1.
        -14    1    3    3    0    0  0.67562205784E+02  0.38636830810E+02 -0.28627401235E+02  0.82927585561E+02  0.00000000000E+00 0.  1.
          5    1    4    4  501    0 -0.97316575815E+01 -0.23243984185E+02 -0.66348845432E+02  0.71095918661E+02  0.41800000000E+01 0. -1.
         -5    1    4    4    0  501 -0.78601285960E+02  0.22604284730E+01  0.35727672961E+02  0.86470866231E+02  0.41800000000E+01 0. -1.
</event>
<event>
11    1  0.6455215E-009  0.1457237E+03  0.7561462E-02  0.1101330E+00
         22   -1    0    0    0    0  0.00000000000E+00  0.00000000000E+00  0.28396311410E+04  0.28396311410E+04  0.00000000000E+00 0.  1.
         22   -1    0    0    0    0 -0.00000000000E+00 -0.00000000000E+00 -0.21226084978E+03  0.21226084978E+03  0.00000000000E+00 0. -1.
         24    2    1    2    0    0 -0.57884287399E+02 -0.46704075476E+02 -0.19090519808E+03  0.21917300701E+03  0.77846971404E+02 0.  0.
         25    2    1    2    0    0  0.58500889342E+02  0.10389808663E+03  0.13160283539E+04  0.13273257642E+04  0.12508353099E+03 0.  0.
        -24    2    1    2    0    0 -0.61660194313E+00 -0.57194011154E+02  0.15022471355E+04  0.15053932196E+04  0.78681347457E+02 0.  0.
        -13    1    3    3    0    0 -0.25046186140E+02 -0.10478267805E+02 -0.58570293940E+01  0.27774274602E+02  0.00000000000E+00 0.  1.
         14    1    3    3    0    0 -0.32838101259E+02 -0.36225807671E+02 -0.18504816868E+03  0.19139873241E+03  0.00000000000E+00 0. -1.
         11    1    5    5    0    0  0.62944435432E+01 -0.43393016475E+02  0.31408391141E+03  0.31712974838E+03  0.00000000000E+00 0. -1.
        -12    1    5    5    0    0 -0.69110454863E+01 -0.13800994679E+02  0.11881632240E+04  0.11882634712E+04  0.00000000000E+00 0.  1.
          5    1    4    4  501    0  0.81058937936E+02  0.18138857359E+02  0.57046474971E+03  0.57649550964E+03  0.41800000000E+01 0. -1.
         -5    1    4    4    0  501 -0.22558048594E+02  0.85759229271E+02  0.74556360416E+03  0.75083025459E+03  0.41800000000E+01 0. -1.
</event>
<event>
11    1  0.6455215E-009  0.1622133E+03  0.7561462E-02  0.1085014E+00
         22   -1    0    0    0    0  0.00000000000E+00  0.00000000000E+00  0.19282855788E+04  0.19282855788E+04  0.00000000000E+00 0. -1.
         22   -1    0    0    0    0 -0.00000000000E+00 -0.00000000000E+00 -0.35720357498E+03  0.35720357498E+03  0.00000000000E+00 0.  1.
         24    2    1    2    0    0 -0.71868201755E+01 -0.16412004411E+02 -0.27997303185E+03  0.29179021829E+03  0.80222370032E+02 0.  0.
         25    2    1    2    0    0  0.57351214433E+02 -0.74332656278E+02  0.20552941488E+02  0.15774909175E+03  0.12509135445E+03 0.  0.
        -24    2    1    2    0    0 -0.50164394258E+02  0.90744660690E+02  0.18305020942E+04  0.18359498438E+04  0.96035681062E+02 0.  0.
        -11    1    3    3    0    0  0.56937295610E+01  0.23256937451E+02 -0.20154046747E+03  0.20295778803E+03  0.00000000000E+00 0.  1.
         12    1    3    3    0    0 -0.12880549737E+02 -0.39668941862E+02 -0.78432564383E+02  0.88832430258E+02  0.00000000000E+00 0. -1.
         11    1    5    5    0    0 -0.33765153629E+02  0.40497352293E+02  0.15248480186E+04  0.15257593522E+04  0.00000000000E+00 0. -1.
        -12    1    5    5    0    0 -0.16399240629E+02  0.50247308397E+02  0.30565407564E+03  0.31019049156E+03  0.00000000000E+00 0.  1.
          5    1    4    4  501    0  0.88034680591E+02 -0.67043583883E+02  0.43023873507E+02  0.11880013981E+03  0.41800000000E+01 0.  1.
         -5    1    4    4    0  501 -0.30683466157E+02 -0.72890723951E+01 -0.22470932019E+02  0.38948951945E+02  0.41800000000E+01 0.  1.
</event>
<event>
11    1  0.6455215E-009  0.1763767E+03  0.7561462E-02  0.1072612E+00
         22   -1    0    0    0    0  0.00000000000E+00  0.00000000000E+00  0.20006273732E+03  0.20006273732E+03  0.00000000000E+00 0. -1.
         22   -1    0    0    0    0 -0.00000000000E+00 -0.00000000000E+00 -0.10412751706E+04  0.10412751706E+04  0.00000000000E+00 0. -1.
        -24    2    1    2    0    0 -0.11425694056E+03 -0.61871355435E+02 -0.87477742265E+03  0.88801183815E+03  0.80291795522E+02 0.  0.
         25    2    1    2    0    0  0.14307403046E+02  0.11857272413E+03 -0.61599338468E+02  0.18359413455E+03  0.12509250598E+03 0.  0.
         24    2    1    2    0    0  0.99949537511E+02 -0.56701368697E+02  0.95164327826E+02  0.16973193523E+03  0.80918015838E+02 0.  0.
        -11    1    5    5    0    0  0.28345332958E+02 -0.62526566499E+01 -0.11927058663E+02  0.31381656171E+02  0.00000000000E+00 0.  1.
         12    1    5    5    0    0  0.71604204552E+02 -0.50448712047E+02  0.10709138649E+03  0.13835027906E+03  0.00000000000E+00 0. -1.
         13    1    3    3    0    0 -0.18865544457E+02 -0.24072650650E+02 -0.44919083205E+03  0.45023083510E+03  0.00000000000E+00 0. -1.
        -14    1    3    3    0    0 -0.95391396099E+02 -0.37798704785E+02 -0.42558659060E+03  0.43778100305E+03  0.00000000000E+00 0.  1.
          5    1    4    4  501    0 -0.13924083411E+02 -0.22047494626E+02 -0.22963020658E+02  0.34996354609E+02  0.41800000000E+01 0.  1.
         -5    1    4    4    0  501  0.28231486456E+02  0.14062021876E+03 -0.38636317810E+02  0.14859777995E+03  0.41800000000E+01 0.  1.
</event>
<event>
11    1  0.6455215E-009  0.1704675E+03  0.7561462E-02  0.1077626E+00
         22   -1    0    0    0    0  0.00000000000E+00  0.00000000000E+00  0.35591884366E+03  0.35591884366E+03  0.00000000000E+00 0. -1.
         22   -1    0    0    0    0 -0.00000000000E+00 -0.00000000000E+00 -0.14301830077E+04  0.14301830077E+04  0.00000000000E+00 0. -1.
         24    2    1    2    0    0 -0.73203519010E+02  0.89355156008E+02 -0.10540936094E+04  0.10634921372E+04  0.80988204899E+02 0.  0.
         25    2    1    2    0    0  0.88681060366E+02 -0.78304320806E+02 -0.34606625540E+03  0.38653084522E+03  0.12509334138E+03 0.  0.
        -24    2    1    2    0    0 -0.15477541357E+02 -0.11050835202E+02  0.32589570084E+03  0.33607886890E+03  0.79870664530E+02 0.  0.
        -11    1    3    3    0    0 -0.18522765939E+02  0.40969117823E+02 -0.15365803683E+03  0.16010107356E+03  0.00000000000E+00 0.  1.
         12    1    3    3    0    0 -0.54680753070E+02  0.48386038186E+02 -0.90043557260E+03  0.90339106363E+03  0.00000000000E+00 0. -1.
         11    1    5    5    0    0 -0.63893460728E+01  0.17070333961E+02  0.28521345443E+03  0.28579526699E+03  0.00000000000E+00 0. -1.
        -12    1    5    5    0    0 -0.90881952838E+01 -0.28121169163E+02  0.40682246407E+02  0.50283601913E+02  0.00000000000E+00 0.  1.
          5    1    4    4  501    0  0.99087374597E+02 -0.70236148886E+01 -0.21617376765E+03  0.23794160878E+03  0.41800000000E+01 0.  1.
         -5    1    4    4    0  501 -0.10406314231E+02 -0.71280705917E+02 -0.12989248775E+03  0.14858923644E+03  0.41800000000E+01 0.  1.
</event>
<event>
11    1  0.6455215E-009  0.4134285E+03  0.7561462E-02  0.9610947E-01
         22   -1    0    0    0    0  0.00000000000E+00  0.00000000000E+00  0.28653947132E+03  0.28653947132E+03  0.00000000000E+00 0.  1.
         22   -1    0    0    0    0 -0.00000000000E+00 -0.00000000000E+00 -0.51332866680E+03  0.51332866680E+03  0.00000000000E+00 0.  1.
        -24    2    1    2    0    0  0.31893805953E+03  0.11773650978E+03 -0.14501506668E+03  0.37842998693E+03  0.81218925728E+02 0.  0.
         25    2    1    2    0    0 -0.17382795981E+03 -0.12537843399E+03 -0.48976818626E+02  0.25294555240E+03  0.12508721915E+03 0.  0.
         24    2    1    2    0    0 -0.14511009971E+03  0.76419242124E+01 -0.32797310177E+02  0.16849259879E+03  0.78732155105E+02 0.  0.
        -11    1    5    5    0    0 -0.11957288205E+03  0.18736485399E+02  0.54845589575E+01  0.12115614055E+03  0.00000000000E+00 0.  1.
         12    1    5    5    0    0 -0.25537217663E+02 -0.11094561187E+02 -0.38281869134E+02  0.47336458236E+02  0.00000000000E+00 0. -1.
         11    1    3    3    0    0  0.19359570754E+02 -0.92885676310E+01 -0.21483179729E+02  0.30374289781E+02  0.00000000000E+00 0. -1.
        -12    1    3    3    0    0  0.29957848877E+03  0.12702507741E+03 -0.12353188695E+03  0.34805569715E+03  0.00000000000E+00 0.  1.
          5    1    4    4  501    0 -0.10796124700E+03 -0.53255917702E+02  0.33514500267E+02  0.12503006739E+03  0.41800000000E+01 0.  1.
         -5    1    4    4    0  501 -0.65866712815E+02 -0.72122516289E+02 -0.82491318894E+02  0.12791548501E+03  0.41800000000E+01 0.  1.
</event>
<event>
11    1  0.6455215E-009  0.1905663E+03  0.7561462E-02  0.1061403E+00
         22   -1    0    0    0    0  0.00000000000E+00  0.00000000000E+00  0.36757178113E+04  0.36757178113E+04  0.00000000000E+00 0. -1.
         22   -1    0    0    0    0 -0.00000000000E+00 -0.00000000000E+00 -0.11295247516E+03  0.11295247516E+03  0.00000000000E+00 0. -1.
         24    2    1    2    0    0 -0.82419146299E+02 -0.22895635286E+02 -0.50536585774E+02  0.12953880992E+03  0.83121784047E+02 0.  0.
         25    2    1    2    0    0  0.20265405756E+03  0.86074083494E+02  0.75220198861E+03  0.79368223072E+03  0.12508491834E+03 0.  0.
        -24    2    1    2    0    0 -0.12023491126E+03 -0.63178448208E+02  0.28610999333E+04  0.28654492458E+04  0.80365426299E+02 0.  0.
        -11    1    3    3    0    0 -0.10857836060E+02 -0.56475095119E+01  0.22644959750E+02  0.25740652083E+02  0.00000000000E+00 0.  1.
         12    1    3    3    0    0 -0.71561310239E+02 -0.17248125774E+02 -0.73181545525E+02  0.10379815784E+03  0.00000000000E+00 0. -1.
         11    1    5    5    0    0 -0.71615886407E+02 -0.24218455311E+02  0.22300766585E+04  0.22313577194E+04  0.00000000000E+00 0. -1.
        -12    1    5    5    0    0 -0.48619024854E+02 -0.38959992897E+02  0.63102327474E+03  0.63409152643E+03  0.00000000000E+00 0.  1.
          5    1    4    4  501    0  0.45110454059E+02 -0.14765814526E+02  0.59885055682E+02  0.76528913739E+02  0.41800000000E+01 0. -1.
         -5    1    4    4    0  501  0.15754360350E+03  0.10083989802E+03  0.69231693293E+03  0.71715331698E+03  0.41800000000E+01 0. -1.
</event>
<event>
11    1  0.6455215E-009  0.1293503E+03  0.7561462E-02  0.1120070E+00
         22   -1    0    0    0    0  0.00000000000E+00  0.00000000000E+00  0.11117292186E+03  0.11117292186E+03  0.00000000000E+00 0.  1.
         22   -1    0    0    0    0 -0.00000000000E+00 -0.00000000000E+00 -0.11738889597E+04  0.11738889597E+04  0.00000000000E+00 0. -1.
         24    2    1    2    0    0  0.25908325558E+02  0.21574168712E+02 -0.10472435895E+04  0.10508954754E+04  0.80780433152E+02 0.  0.
         25    2    1    2    0    0 -0.27682812286E+02  0.11402235745E+02 -0.53960076355E+02  0.13948310030E+03  0.12508995305E+03 0.  0.
        -24    2    1    2    0    0  0.17744867283E+01 -0.32976404457E+02  0.38487628052E+02  0.94683305830E+02  0.79956480886E+02 0.  0.
        -11    1    3    3    0    0  0.63579253606E+01  0.11908997945E+02 -0.24940301721E+02  0.28359585626E+02  0.00000000000E+00 0.  1.
         12    1    3    3    0    0  0.19550400197E+02  0.96651707674E+01 -0.10223032878E+04  0.10225358898E+04  0.00000000000E+00 0. -1.
         11    1    5    5    0    0  0.33292725774E+02 -0.29961499928E+02 -0.72706854050E-01  0.44789533975E+02  0.00000000000E+00 0. -1.
        -12    1    5    5    0    0 -0.31518239046E+02 -0.30149045297E+01  0.38560334906E+02  0.49893771855E+02  0.00000000000E+00 0.  1.
          5    1    4    4  501    0  0.80701741449E+01 -0.39398565959E+01 -0.87431425280E+02  0.87990776263E+02  0.41800000000E+01 0.  1.
         -5    1    4    4    0  501 -0.35752986431E+02  0.15342092341E+02  0.33471348925E+02  0.51492324040E+02  0.41800000000E+01 0.  1.
</event>
<event>
11    1  0.6455215E-009  0.1343252E+03  0.7561462E-02  0.1114066E+00
         22   -1    0    0    0    0  0.00000000000E+00  0.00000000000E+00  0.79169546548E+02  0.79169546548E+02  0.00000000000E+00 0. -1.
         22   -1    0    0    0    0 -0.00000000000E+00 -0.00000000000E+00 -0.53264764528E+03  0.53264764528E+03  0.00000000000E+00 0. -1.
        -24    2    1    2    0    0 -0.40423770622E+02 -0.27305513614E+02 -0.27395439319E+03  0.28949312484E+03  0.79847275953E+02 0.  0.
         25    2    1    2    0    0  0.58546759859E+02 -0.46548984478E+01 -0.18874561953E+03  0.23392558186E+03  0.12508748054E+03 0.  0.
         24    2    1    2    0    0 -0.18122989237E+02  0.31960412062E+02  0.92219139871E+01  0.88398485125E+02  0.79870756831E+02 0.  0.
        -11    1    5    5    0    0 -0.80483391622E+01  0.55608828935E+02 -0.89803616405E+01  0.56901357752E+02  0.00000000000E+00 0.  1.
         12    1    5    5    0    0 -0.10074650075E+02 -0.23648416874E+02  0.18202275628E+02  0.31497127374E+02  0.00000000000E+00 0. -1.
         13    1    3    3    0    0 -0.56896923896E+02 -0.42570547665E+02 -0.21217312624E+03  0.22375644566E+03  0.00000000000E+00 0. -1.
        -14    1    3    3    0    0  0.16473153274E+02  0.15265034051E+02 -0.61781266950E+02  0.65736679178E+02  0.00000000000E+00 0.  1.
          5    1    4    4  501    0 -0.66656923931E+01  0.35139516424E+02 -0.69335416112E+01  0.36671016741E+02  0.41800000000E+01 0. -1.
         -5    1    4    4    0  501  0.65212452252E+02 -0.39794414872E+02 -0.18181207792E+03  0.19725456512E+03  0.41800000000E+01 0. -1.
</event>
<event>
11    1  0.6455215E-009  0.1416031E+03  0.7561462E-02  0.1105781E+00
         22   -1    0    0    0    0  0.00000000000E+00  0.00000000000E+00  0.18606562658E+03  0.18606562658E+03  0.00000000000E+00 0. -1.
         22   -1    0    0    0    0 -0.00000000000E+00 -0.00000000000E+00 -0.27134867031E+03  0.27134867031E+03  0.00000000000E+00 0. -1.
        -24    2    1    2    0    0 -0.96937021052E+01 -0.26737405574E+01 -0.12400109534E+03  0.14850109515E+03  0.81087525954E+02 0.  0.
         25    2    1    2    0    0 -0.55803292640E+02 -0.15299006058E+02 -0.72539921097E+02  0.15575005945E+03  0.12509186149E+03 0.  0.
         24    2    1    2    0    0  0.65496994746E+02  0.17972746615E+02  0.11125797271E+03  0.15316314229E+03  0.80422234016E+02 0.  0.
        -11    1    5    5    0    0  0.34348310728E+02 -0.10418715054E+02  0.18764463764E+01  0.35942692224E+02  0.00000000000E+00 0.  1.
         12    1    5    5    0    0  0.31148684017E+02  0.28391461669E+02  0.10938152633E+03  0.11722045007E+03  0.00000000000E+00 0. -1.
         13    1    3    3    0    0 -0.42840072809E+02 -0.73912570099E+01 -0.93914888095E+02  0.10348868887E+03  0.00000000000E+00 0. -1.
        -14    1    3    3    0    0  0.33146370704E+02  0.47175164525E+01 -0.30086207243E+02  0.45012406274E+02  0.00000000000E+00 0.  1.
          5    1    4    4  501    0 -0.81156736671E+02 -0.31830226371E+02 -0.85850214302E+02  0.12242267320E+03  0.41800000000E+01 0.  1.
         -5    1    4    4    0  501  0.25353444031E+02  0.16531220313E+02  0.13310293205E+02  0.33327386253E+02  0.41800000000E+01 0.  1.
</event>
<event>
11    1  0.6455215E-009  0.1470710E+03  0.7561462E-02  0.1099910E+00
         22   -1    0    0    0    0  0.00000000000E+00  0.00000000000E+00  0.16283189875E+04  0.16283189875E+04  0.00000000000E+00 0. -1.
         22   -1    0    0    0    0 -0.00000000000E+00 -0.00000000000E+00 -0.15715821830E+04  0.15715821830E+04  0.00000000000E+00 0. -1.
        -24    2    1    2    0    0  0.42680041467E+01  0.47271340837E+01 -0.11212869242E+04  0.11241582638E+04  0.80042951776E+02 0.  0.
         25    2    1    2    0    0 -0.80744234330E+02 -0.16212811351E+02 -0.43425065487E+03  0.45934951069E+03  0.12508339254E+03 0.  0.
         24    2    1    2    0    0  0.76476230183E+02  0.11485677267E+02  0.16122743835E+04  0.16163933961E+04  0.85547580838E+02 0.  0.
        -11    1    5    5    0    0  0.91665540002E+02  0.17469894277E+02  0.11313070330E+04  0.11351490525E+04  0.00000000000E+00 0.  1.
         12    1    5    5    0    0 -0.15189309820E+02 -0.59842170093E+01  0.48096735054E+03  0.48124434362E+03  0.00000000000E+00 0. -1.
         13    1    3    3    0    0 -0.18865458661E+02  0.29919084069E+02 -0.84830495510E+03  0.84904202132E+03  0.00000000000E+00 0. -1.
        -14    1    3    3    0    0  0.23133462808E+02 -0.25191949986E+02 -0.27298196906E+03  0.27511624248E+03  0.00000000000E+00 0.  1.
          5    1    4    4  501    0 -0.79824188523E+02 -0.28615708488E+02 -0.43763910836E+03  0.44579840894E+03  0.41800000000E+01 0. -1.
         -5    1    4    4    0  501 -0.92004580666E+00  0.12402897137E+02  0.33884534910E+01  0.13551101753E+02  0.41800000000E+01 0. -1.
</event>
<event>
11    1  0.6455215E-009  0.1478011E+03  0.7561462E-02  0.1099147E+00
         22   -1    0    0    0    0  0.00000000000E+00  0.00000000000E+00  0.27549757542E+04  0.27549757542E+04  0.00000000000E+00 0. -1.
         22   -1    0    0    0    0 -0.00000000000E+00 -0.00000000000E+00 -0.45627442809E+03  0.45627442809E+03  0.00000000000E+00 0. -1.
         24    2    1    2    0    0 -0.46368016414E+02 -0.63372693623E+02 -0.44193012910E+03  0.45599515091E+03  0.80394324429E+02 0.  0.
         25    2    1    2    0    0  0.46594807129E+02  0.10926159852E+03  0.12671818329E+04  0.12788689969E+04  0.12508773157E+03 0.  0.
        -24    2    1    2    0    0 -0.22679071506E+00 -0.45888904895E+02  0.14734496223E+04  0.14763860345E+04  0.80969687739E+02 0.  0.
        -11    1    3    3    0    0  0.16142804942E+02 -0.25307417651E+02 -0.59707231112E+02  0.66828205023E+02  0.00000000000E+00 0.  1.
         12    1    3    3    0    0 -0.62510821357E+02 -0.38065275972E+02 -0.38222289799E+03  0.38916694588E+03  0.00000000000E+00 0. -1.
         13    1    5    5    0    0  0.39570627958E+02 -0.13855952625E+02  0.63888247523E+03  0.64025669788E+03  0.00000000000E+00 0. -1.
        -14    1    5    5    0    0 -0.39797418673E+02 -0.32032952270E+02  0.83456714704E+03  0.83612933658E+03  0.00000000000E+00 0.  1.
          5    1    4    4  501    0  0.52898108785E+02 -0.24483385148E+01  0.60106953323E+03  0.60341218123E+03  0.41800000000E+01 0.  1.
         -5    1    4    4    0  501 -0.63033016558E+01  0.11170993703E+03  0.66611229969E+03  0.67545681567E+03  0.41800000000E+01 0.  1.
</event>
<event>
11    1  0.6455215E-009  0.1269096E+03  0.7561462E-02  0.1123126E+00
         22   -1    0    0    0    0  0.00000000000E+00  0.00000000000E+00  0.88821157966E+02  0.88821157966E+02  0.00000000000E+00 0. -1.
         22   -1    0    0    0    0 -0.00000000000E+00 -0.00000000000E+00 -0.35983800846E+03  0.35983800846E+03  0.00000000000E+00 0.  1.
        -24    2    1    2    0    0 -0.33818927275E+02  0.72668469183E+01 -0.18441909943E+03  0.19665329266E+03  0.58869231125E+02 0.  0.
         25    2    1    2    0    0  0.36512579776E+02 -0.25805340796E+02 -0.11009888232E+03  0.17253581835E+03  0.12509100939E+03 0.  0.
         24    2    1    2    0    0 -0.26936525008E+01  0.18538493878E+02  0.23501131253E+02  0.79470055421E+02  0.73568029873E+02 0.  0.
        -13    1    5    5    0    0  0.11502609320E+01 -0.28468790605E+02  0.12051743446E+02  0.30936057583E+02  0.00000000000E+00 0.  1.
         14    1    5    5    0    0 -0.38439134327E+01  0.47007284483E+02  0.11449387808E+02  0.48533997838E+02  0.00000000000E+00 0. -1.
         11    1    3    3    0    0  0.77115800279E+01 -0.12220968429E+02 -0.95603557167E+02  0.96689506561E+02  0.00000000000E+00 0. -1.
        -12    1    3    3    0    0 -0.41530507303E+02  0.19487815348E+02 -0.88815542261E+02  0.99963786098E+02  0.00000000000E+00 0.  1.
          5    1    4    4  501    0  0.59365268003E+02 -0.36922679236E+02 -0.11929682306E+02  0.71044415733E+02  0.41800000000E+01 0.  1.
         -5    1    4    4    0  501 -0.22852688227E+02  0.11117338440E+02 -0.98169200016E+02  0.10149140262E+03  0.41800000000E+01 0.  1.
</event>
<event>
11    1  0.6455215E-009  0.1448791E+03  0.7561462E-02  0.1102229E+00
         22   -1    0    0    0    0  0.00000000000E+00  0.00000000000E+00  0.40340112898E+03  0.40340112898E+03  0.00000000000E+00 0.  1.
         22   -1    0    0    0    0 -0.00000000000E+00 -0.00000000000E+00 -0.89564043444E+03  0.89564043444E+03  0.00000000000E+00 0. -1.
        -24    2    1    2    0    0 -0.40587908776E+02 -0.66545239429E+02 -0.77497556959E+03  0.78304712367E+03  0.80622684178E+02 0.  0.
         25    2    1    2    0    0  0.94153999461E+02  0.15233047990E+02 -0.49610841454E+02  0.16494190715E+03  0.12509027053E+03 0.  0.
         24    2    1    2    0    0 -0.53566090686E+02  0.51312191439E+02  0.33234710558E+03  0.35105253260E+03  0.85328863765E+02 0.  0.
        -11    1    5    5    0    0 -0.38701505456E+02 -0.13142895571E+02  0.75824251317E+02  0.86138605261E+02  0.00000000000E+00 0.  1.
         12    1    5    5    0    0 -0.14864585230E+02  0.64455087010E+02  0.25652285426E+03  0.26491392733E+03  0.00000000000E+00 0. -1.
         11    1    3    3    0    0 -0.47412207501E+02 -0.75983991948E+02 -0.75173238600E+03  0.75704891824E+03  0.00000000000E+00 0. -1.
        -12    1    3    3    0    0  0.68242987251E+01  0.94387525194E+01 -0.23243183587E+02  0.25998205428E+02  0.00000000000E+00 0.  1.
          5    1    4    4  501    0  0.31084005654E+02  0.67862952119E+02 -0.28653913438E+02  0.80063192748E+02  0.41800000000E+01 0.  1.
         -5    1    4    4    0  501  0.63069993807E+02 -0.52629904128E+02 -0.20956928016E+02  0.84878714406E+02  0.41800000000E+01 0.  1.
</event>
<event>
11    1  0.6455215E-009  0.1352623E+03  0.7561462E-02  0.1112967E+00
         22   -1    0    0    0    0  0.00000000000E+00  0.00000000000E+00  0.52110153747E+03  0.52110153747E+03  0.00000000000E+00 0.  1.
         22   -1    0    0    0    0 -0.00000000000E+00 -0.00000000000E+00 -0.54857365003E+03  0.54857365003E+03  0.00000000000E+00 0.  1.
        -24    2    1    2    0    0 -0.25772278553E+02 -0.25926564849E+02 -0.51266238741E+03  0.52002314406E+03  0.79151435774E+02 0.  0.
         25    2    1    2    0    0 -0.26131506031E+02 -0.19509021223E+01  0.13600979212E+03  0.18663595723E+03  0.12509058858E+03 0.  0.
         24    2    1    2    0    0  0.51903784584E+02  0.27877466971E+02  0.34918048274E+03  0.36301608621E+03  0.79890633390E+02 0.  0.
        -13    1    5    5    0    0  0.38111151104E+02  0.51100501563E+02  0.30196810673E+03  0.30862349000E+03  0.00000000000E+00 0.  1.
         14    1    5    5    0    0  0.13792633480E+02 -0.23223034592E+02  0.47212376003E+02  0.54392596205E+02  0.00000000000E+00 0. -1.
         13    1    3    3    0    0 -0.11087143587E+02 -0.78928040217E+01 -0.10162123072E+02  0.16984989066E+02  0.00000000000E+00 0. -1.
        -14    1    3    3    0    0 -0.14685134966E+02 -0.18033760827E+02 -0.50250026434E+03  0.50303815500E+03  0.00000000000E+00 0.  1.
          5    1    4    4  501    0  0.13928287747E+02 -0.23866260929E+02 -0.12932799240E+02  0.30794890915E+02  0.41800000000E+01 0.  1.
         -5    1    4    4    0  501 -0.40059793778E+02  0.21915358806E+02  0.14894259136E+03  0.15584106632E+03  0.41800000000E+01 0.  1.
</event>
<event>
11    1  0.6455215E-009  0.1418066E+03  0.7561462E-02  0.1105558E+00
         22   -1    0    0    0    0  0.00000000000E+00  0.00000000000E+00  0.94773258834E+03  0.94773258834E+03  0.00000000000E+00 0. -1.
         22   -1    0    0    0    0 -0.00000000000E+00 -0.00000000000E+00 -0.57947919903E+03  0.57947919903E+03  0.00000000000E+00 0. -1.
        -24    2    1    2    0    0 -0.45281680818E+02 -0.42990037436E+01 -0.54527063833E+03  0.55283159024E+03  0.78954329129E+02 0.  0.
         25    2    1    2    0    0  0.10635975430E+03  0.12745603406E+02  0.22428564550E+03  0.27825416215E+03  0.12508589143E+03 0.  0.
         24    2    1    2    0    0 -0.61078073485E+02 -0.84465996624E+01  0.68923838214E+03  0.69612603499E+03  0.75763005932E+02 0.  0.
        -11    1    5    5    0    0  0.42365592461E+01  0.17350266877E+02  0.51018296646E+02  0.54054109813E+02  0.00000000000E+00 0.  1.
         12    1    5    5    0    0 -0.65314632731E+02 -0.25796866539E+02  0.63822008549E+03  0.64207192517E+03  0.00000000000E+00 0. -1.
         13    1    3    3    0    0 -0.64081004971E+02 -0.30003419756E+01 -0.29712396856E+03  0.30397044255E+03  0.00000000000E+00 0. -1.
        -14    1    3    3    0    0  0.18799324154E+02 -0.12986617680E+01 -0.24814666977E+03  0.24886114769E+03  0.00000000000E+00 0.  1.
          5    1    4    4  501    0 -0.12510274002E+02 -0.19590437820E+02  0.15261227153E+01  0.23666297981E+02  0.41800000000E+01 0. -1.
         -5    1    4    4    0  501  0.11887002830E+03  0.32336041226E+02  0.22275952278E+03  0.25458786417E+03  0.41800000000E+01 0. -1.
</event>
<event>
11    1  0.6455215E-009  0.1402345E+03  0.7561462E-02  0.1107297E+00
         22   -1    0    0    0    0  0.00000000000E+00  0.00000000000E+00  0.24186846557E+04  0.24186846557E+04  0.00000000000E+00 0. -1.
         22   -1    0    0    0    0 -0.00000000000E+00 -0.00000000000E+00 -0.19862687982E+03  0.19862687982E+03  0.00000000000E+00 0. -1.
         24    2    1    2    0    0  0.13122289459E+02 -0.61789090344E+02 -0.13473611564E+03  0.16806402638E+03  0.78112802664E+02 0.  0.
         25    2    1    2    0    0  0.49914806870E+02  0.50883149146E+02  0.66600697737E+02  0.15863082149E+03  0.12508997472E+03 0.  0.
        -24    2    1    2    0    0 -0.63037096328E+02  0.10905941198E+02  0.22881931937E+04  0.22906166876E+04  0.83690516746E+02 0.  0.
        -13    1    3    3    0    0 -0.17761806398E+02  0.70499182321E+01 -0.83160288645E+01  0.20840812117E+02  0.00000000000E+00 0.  1.
         14    1    3    3    0    0  0.30884095857E+02 -0.68839008576E+02 -0.12642008677E+03  0.14722321426E+03  0.00000000000E+00 0. -1.
         11    1    5    5    0    0 -0.12103258793E+02 -0.17127579163E+02  0.15485584588E+04  0.15487004691E+04  0.00000000000E+00 0. -1.
        -12    1    5    5    0    0 -0.50933837536E+02  0.28033520361E+02  0.73963473495E+03  0.74191621846E+03  0.00000000000E+00 0.  1.
          5    1    4    4  501    0 -0.38777086460E+01  0.19323991986E+02  0.89743594817E+02  0.91977380379E+02  0.41800000000E+01 0. -1.
         -5    1    4    4    0  501  0.53792515516E+02  0.31559157160E+02 -0.23142897080E+02  0.66653441107E+02  0.41800000000E+01 0. -1.
</event>
<event>
11    1  0.6455215E-009  0.1318243E+03  0.7561462E-02  0.1117048E+00
         22   -1    0    0    0    0  0.00000000000E+00  0.00000000000E+00  0.37220586548E+02  0.37220586548E+02  0.00000000000E+00 0.  1.
         22   -1    0    0    0    0 -0.00000000000E+00 -0.00000000000E+00 -0.24500945201E+04  0.24500945201E+04  0.00000000000E+00 0.  1.
        -24    2    1    2    0    0  0.41896799205E+01  0.54363689266E+02 -0.15240030964E+04  0.15271332141E+04  0.81101489218E+02 0.  0.
         25    2    1    2    0    0  0.93769392214E+01 -0.40310930668E+01 -0.84511281476E+03  0.85437806757E+03  0.12506812531E+03 0.  0.
         24    2    1    2    0    0 -0.13566619142E+02 -0.50332596200E+02 -0.43758022370E+02  0.10580382499E+03  0.81007786448E+02 0.  0.
        -13    1    5    5    0    0 -0.30506527126E+02 -0.19794611860E+01  0.93914485301E+01  0.31980709332E+02  0.00000000000E+00 0.  1.
         14    1    5    5    0    0  0.16939907984E+02 -0.48353135014E+02 -0.53149470900E+02  0.73823115655E+02  0.00000000000E+00 0. -1.
         11    1    3    3    0    0  0.99560668147E+01  0.13900014069E+02 -0.55786333463E+02  0.58347653413E+02  0.00000000000E+00 0. -1.
        -12    1    3    3    0    0 -0.57663868942E+01  0.40463675197E+02 -0.14682167629E+04  0.14687855607E+04  0.00000000000E+00 0.  1.
          5    1    4    4  501    0 -0.16438408187E+02  0.39352059515E+02 -0.11864652835E+03  0.12614783764E+03  0.41800000000E+01 0.  1.
         -5    1    4    4    0  501  0.25815347409E+02 -0.43383152582E+02 -0.72646628641E+03  0.72823022993E+03  0.41800000000E+01 0.  1.
</event>
<event>
11    1  0.6455215E-009  0.1337641E+03  0.7561462E-02  0.1114729E+00
         22   -1    0    0    0    0  0.00000000000E+00  0.00000000000E+00  0.90534032879E+03  0.90534032879E+03  0.00000000000E+00 0.  1.
         22   -1    0    0    0    0 -0.00000000000E+00 -0.00000000000E+00 -0.33279218743E+03  0.33279218743E+03  0.00000000000E+00 0.  1.
        -24    2    1    2    0    0 -0.24909470499E+02  0.50751820966E+02 -0.30941712178E+03  0.32008054583E+03  0.59299001005E+02 0.  0.
         25    2    1    2    0    0  0.63182538786E+02 -0.22017717766E+02  0.36446233008E+03  0.39109744261E+03  0.12509039319E+03 0.  0.
         24    2    1    2    0    0 -0.38273068287E+02 -0.28734103200E+02  0.51750293306E+03  0.52695452777E+03  0.87070730826E+02 0.  0.
        -13    1    5    5    0    0 -0.45337318882E+02 -0.43747515439E+02  0.49501354880E+03  0.49900674453E+03  0.00000000000E+00 0.  1.
         14    1    5    5    0    0  0.70642505948E+01  0.15013412239E+02  0.22489384258E+02  0.27947783236E+02  0.00000000000E+00 0. -1.
         13    1    3    3    0    0 -0.86290018400E+01  0.22553503261E+02 -0.28814760871E+02  0.37595353784E+02  0.00000000000E+00 0. -1.
        -14    1    3    3    0    0 -0.16280468659E+02  0.28198317706E+02 -0.28060236091E+03  0.28248519205E+03  0.00000000000E+00 0.  1.
          5    1    4    4  501    0  0.45755804010E+02  0.47622729141E+02  0.13027165868E+03  0.14611534959E+03  0.41800000000E+01 0. -1.
         -5    1    4    4    0  501  0.17426734776E+02 -0.69640446908E+02  0.23419067139E+03  0.24498209302E+03  0.41800000000E+01 0. -1.
</event>
<event>
11    1  0.6455215E-009  0.1389150E+03  0.7561462E-02  0.1108776E+00
         22   -1    0    0    0    0  0.00000000000E+00  0.00000000000E+00  0.56691084557E+03  0.56691084557E+03  0.00000000000E+00 0.  1.
         22   -1    0    0    0    0 -0.00000000000E+00 -0.00000000000E+00 -0.40743173723E+03  0.40743173723E+03  0.00000000000E+00 0.  1.
        -24    2    1    2    0    0  0.81429007133E+01 -0.27180052770E+02 -0.37027862246E+03  0.37996292817E+03  0.80377275585E+02 0.  0.
         25    2    1    2    0    0  0.29703605208E+02  0.69993780985E+02  0.18285987195E+03  0.23423631134E+03  0.12508990063E+03 0.  0.
         24    2    1    2    0    0 -0.37846505922E+02 -0.42813728215E+02  0.34689785885E+03  0.36014334329E+03  0.78100767658E+02 0.  0.
        -11    1    5    5    0    0  0.30311617913E+01 -0.42622929812E+02  0.26697690248E+03  0.27037486671E+03  0.00000000000E+00 0.  1.
         12    1    5    5    0    0 -0.40877667713E+02 -0.19079840313E+00  0.79920956363E+02  0.89768476581E+02  0.00000000000E+00 0. -1.
         11    1    3    3    0    0  0.26742039950E+01 -0.19342908585E+01  0.37773508581E+01  0.50160968529E+01  0.00000000000E+00 0. -1.
        -12    1    3    3    0    0  0.54686967183E+01 -0.25245761912E+02 -0.37405597332E+03  0.37494683132E+03  0.00000000000E+00 0.  1.
          5    1    4    4  501    0  0.20750408155E+02  0.68597868630E+02  0.24935093034E+02  0.75996567579E+02  0.41800000000E+01 0.  1.
         -5    1    4    4    0  501  0.89531970539E+01  0.13959123544E+01  0.15792477892E+03  0.15823974376E+03  0.41800000000E+01 0.  1.
</event>
<event>
11    1  0.6455215E-009  0.1258924E+03  0.7561462E-02  0.1124421E+00
         22   -1    0    0    0    0  0.00000000000E+00  0.00000000000E+00  0.11555640025E+04  0.11555640025E+04  0.00000000000E+00 0. -1.
         22   -1    0    0    0    0 -0.00000000000E+00 -0.00000000000E+00 -0.16864507969E+03  0.16864507969E+03  0.00000000000E+00 0. -1.
        -24    2    1    2    0    0 -0.92937999929E+01 -0.14808687215E+02 -0.13913212354E+03  0.16161534147E+03  0.80349852915E+02 0.  0.
         25    2    1    2    0    0  0.22358817364E+02  0.13524956270E+02  0.23387783123E+03  0.26651997404E+03  0.12510481791E+03 0.  0.
         24    2    1    2    0    0 -0.13065017371E+02  0.12837309448E+01  0.89217321511E+03  0.89607376668E+03  0.82479130262E+02 0.  0.
        -11    1    5    5    0    0 -0.41978527135E+02 -0.20935304726E+02  0.47574766765E+03  0.47805473222E+03  0.00000000000E+00 0.  1.
         12    1    5    5    0    0  0.28913509764E+02  0.22219035670E+02  0.41642554746E+03  0.41801903446E+03  0.00000000000E+00 0. -1.
         11    1    3    3    0    0 -0.36406143800E+02 -0.20385604847E+02 -0.12229424278E+03  0.12921633801E+03  0.00000000000E+00 0. -1.
        -12    1    3    3    0    0  0.27112343808E+02  0.55769176323E+01 -0.16837880761E+02  0.32399003465E+02  0.00000000000E+00 0.  1.
          5    1    4    4  501    0  0.26571776847E+01  0.59057984031E+02  0.19363464525E+03  0.20250124521E+03  0.41800000000E+01 0. -1.
         -5    1    4    4    0  501  0.19701639679E+02 -0.45533027761E+02  0.40243185987E+02  0.64018728834E+02  0.41800000000E+01 0. -1.
</event>
<event>
11    1  0.6455215E-009  0.1428807E+03  0.7561462E-02  0.1104384E+00
         22   -1    0    0    0    0  0.00000000000E+00  0.00000000000E+00  0.17526301072E+03  0.17526301072E+03  0.00000000000E+00 0. -1.
         22   -1    0    0    0    0 -0.00000000000E+00 -0.00000000000E+00 -0.94742582996E+03  0.94742582996E+03  0.00000000000E+00 0.  1.
         24    2    1    2    0    0  0.64454888468E+02  0.23391601321E+02 -0.75002415769E+03  0.75740929854E+03  0.80193570421E+02 0.  0.
         25    2    1    2    0    0 -0.73103004478E+02 -0.11584520644E+02 -0.15297423903E+03  0.21101286745E+03  0.12508821704E+03 0.  0.
        -24    2    1    2    0    0  0.86481160100E+01 -0.11807080677E+02  0.13083557748E+03  0.15426667469E+03  0.80411824506E+02 0.  0.
        -13    1    3    3    0    0  0.69441517410E+02  0.15399910956E+02 -0.74086182279E+03  0.74426844759E+03  0.00000000000E+00 0.  1.
         14    1    3    3    0    0 -0.49866289417E+01  0.79916903652E+01 -0.91623348993E+01  0.13140850958E+02  0.00000000000E+00 0. -1.
         13    1    5    5    0    0 -0.15445674578E+02  0.18379442490E+02  0.10521323509E+03  0.10791755004E+03  0.00000000000E+00 0. -1.
        -14    1    5    5    0    0  0.24093790588E+02 -0.30186523168E+02  0.25622342392E+02  0.46349124647E+02  0.00000000000E+00 0.  1.
          5    1    4    4  501    0  0.24867827146E+02  0.15881117143E+02 -0.81009610284E+02  0.86317136578E+02  0.41800000000E+01 0.  1.
         -5    1    4    4    0  501 -0.97970831624E+02 -0.27465637787E+02 -0.71964628744E+02  0.12469573087E+03  0.41800000000E+01 0.  1.
</event>
<event>
11    1  0.6455215E-009  0.2751650E+03  0.7561462E-02  0.1011287E+00
         22   -1    0    0    0    0  0.00000000000E+00  0.00000000000E+00  0.13988296467E+04  0.13988296467E+04  0.00000000000E+00 0. -1.
         22   -1    0    0    0    0 -0.00000000000E+00 -0.00000000000E+00 -0.17462684619E+04  0.17462684619E+04  0.00000000000E+00 0.  1.
         24    2    1    2    0    0  0.62590932260E+02  0.20111134292E+03 -0.31831075600E+03  0.39404129863E+03  0.97894895620E+02 0.  0.
         25    2    1    2    0    0 -0.21923595011E+02 -0.25932187138E+03 -0.13728492330E+04  0.14028869100E+04  0.12509271978E+03 0.  0.
        -24    2    1    2    0    0 -0.40667337249E+02  0.58210528460E+02  0.13437211738E+04  0.13481699000E+04  0.83265769191E+02 0.  0.
        -11    1    3    3    0    0  0.38738361542E+02  0.68651929991E+02 -0.19951561210E+03  0.21452325659E+03  0.00000000000E+00 0.  1.
         12    1    3    3    0    0  0.23852570718E+02  0.13245941293E+03 -0.11879514389E+03  0.17951804203E+03  0.00000000000E+00 0. -1.
         11    1    5    5    0    0 -0.56179672235E+02  0.56834290569E+02  0.12829003964E+04  0.12853869920E+04  0.00000000000E+00 0. -1.
        -12    1    5    5    0    0  0.15512334985E+02  0.13762378907E+01  0.60820777364E+02  0.62782907918E+02  0.00000000000E+00 0.  1.
          5    1    4    4  501    0 -0.57159906803E+02 -0.10115024489E+03 -0.39727009566E+03  0.41393191263E+03  0.41800000000E+01 0.  1.
         -5    1    4    4    0  501  0.35236311792E+02 -0.15817162649E+03 -0.97557913736E+03  0.98895499733E+03  0.41800000000E+01 0.  1.
</event>
<event>
11    1  0.6455215E-009  0.1783266E+03  0.7561462E-02  0.1071005E+00
         22   -1    0    0    0    0  0.00000000000E+00  0.00000000000E+00  0.32228970753E+03  0.32228970753E+03  0.00000000000E+00 0.  1.
         22   -1    0    0    0    0 -0.00000000000E+00 -0.00000000000E+00 -0.29370720853E+04  0.29370720853E+04  0.00000000000E+00 0.  1.
        -24    2    1    2    0    0  0.11883709447E+03 -0.45153788448E+02 -0.27818086803E+04  0.27858865087E+04  0.80888726663E+02 0.  0.
         25    2    1    2    0    0 -0.78309159615E+02 -0.87004781143E+02 -0.72913835020E+02  0.18616694187E+03  0.12505817240E+03 0.  0.
         24    2    1    2    0    0 -0.40527934854E+02  0.13215856959E+03  0.23994013756E+03  0.28730834223E+03  0.76592511919E+02 0.  0.
        -11    1    5    5    0    0 -0.15576498881E+02  0.11126287952E+03  0.22501652269E+03  0.25150445555E+03  0.00000000000E+00 0.  1.
         12    1    5    5    0    0 -0.24951435973E+02  0.20895690073E+02  0.14923614869E+02  0.35803886682E+02  0.00000000000E+00 0. -1.
         13    1    3    3    0    0  0.14984820774E+02 -0.11004750834E+02 -0.92137382425E+02  0.93994396826E+02  0.00000000000E+00 0. -1.
        -14    1    3    3    0    0  0.10385227370E+03 -0.34149037615E+02 -0.26896712978E+04  0.26918921119E+04  0.00000000000E+00 0.  1.
          5    1    4    4  501    0 -0.88066959416E+02 -0.48445529355E+01 -0.41534719314E+02  0.97580040697E+02  0.41800000000E+01 0.  1.
         -5    1    4    4    0  501  0.97577998010E+01 -0.82160228208E+02 -0.31379115705E+02  0.88586901168E+02  0.41800000000E+01 0.  1.
</event>
<event>
11    1  0.6455215E-009  0.1657063E+03  0.7561462E-02  0.1081830E+00
         22   -1    0    0    0    0  0.00000000000E+00  0.00000000000E+00  0.96865458015E+03  0.96865458015E+03  0.00000000000E+00 0. -1.
         22   -1    0    0    0    0 -0.00000000000E+00 -0.00000000000E+00 -0.38207610871E+03  0.38207610871E+03  0.00000000000E+00 0. -1.
        -24    2    1    2    0    0 -0.16341065287E+02 -0.92833321511E+00 -0.31259293233E+03  0.32286823804E+03  0.79130686702E+02 0.  0.
         25    2    1    2    0    0  0.87079213417E+01  0.10935392298E+03  0.58418322458E+02  0.17633255119E+03  0.12508541020E+03 0.  0.
         24    2    1    2    0    0  0.76331439450E+01 -0.10842558977E+03  0.84075308131E+03  0.85152989963E+03  0.80143950659E+02 0.  0.
        -11    1    5    5    0    0  0.29222082003E+02 -0.75988955704E+01  0.13897696050E+03  0.14221908747E+03  0.00000000000E+00 0.  1.
         12    1    5    5    0    0 -0.21588938058E+02 -0.10082669420E+03  0.70177612080E+03  0.70931081215E+03  0.00000000000E+00 0. -1.
         13    1    3    3    0    0 -0.25877212512E+02 -0.32300503497E+02 -0.23523199525E+03  0.23884523073E+03  0.00000000000E+00 0. -1.
        -14    1    3    3    0    0  0.95361472250E+01  0.31372170282E+02 -0.77360937080E+02  0.84023007314E+02  0.00000000000E+00 0.  1.
          5    1    4    4  501    0  0.27508728606E+02  0.81631428973E+02 -0.22095562866E+02  0.89028684389E+02  0.41800000000E+01 0.  1.
         -5    1    4    4    0  501 -0.18800807264E+02  0.27722494008E+02  0.80513885324E+02  0.87303866798E+02  0.41800000000E+01 0.  1.
</event>
<event>
11    1  0.6455215E-009  0.1639844E+03  0.7561462E-02  0.1083389E+00
         22   -1    0    0    0    0  0.00000000000E+00  0.00000000000E+00  0.43685271473E+03  0.43685271473E+03  0.00000000000E+00 0. -1.
         22   -1    0    0    0    0 -0.00000000000E+00 -0.00000000000E+00 -0.39554626647E+03  0.39554626647E+03  0.00000000000E+00 0. -1.
        -24    2    1    2    0    0  0.26298676468E+02 -0.97803536394E+02 -0.26981539506E+03  0.29923427129E+03  0.80521112702E+02 0.  0.
         25    2    1    2    0    0 -0.47361744903E+02  0.12309790231E+03 -0.27338559731E+02  0.18382586000E+03  0.12509325130E+03 0.  0.
         24    2    1    2    0    0  0.21063068435E+02 -0.25294365919E+02  0.33846040305E+03  0.34933884991E+03  0.79992061031E+02 0.  0.
        -11    1    5    5    0    0 -0.13875880175E+02  0.11535603919E+02  0.20328584223E+02  0.27182007743E+02  0.00000000000E+00 0.  1.
         12    1    5    5    0    0  0.34938948610E+02 -0.36829969838E+02  0.31813181883E+03  0.32215684217E+03  0.00000000000E+00 0. -1.
         13    1    3    3    0    0  0.27480677209E+02 -0.10936618808E+03 -0.26197528953E+03  0.28521431072E+03  0.00000000000E+00 0. -1.
        -14    1    3    3    0    0 -0.11820007404E+01  0.11562651687E+02 -0.78401055287E+01  0.14019960574E+02  0.00000000000E+00 0.  1.
          5    1    4    4  501    0 -0.89541957252E+02  0.70258589548E+02 -0.13530728805E+02  0.11469343720E+03  0.41800000000E+01 0.  1.
         -5    1    4    4    0  501  0.42180212349E+02  0.52839312765E+02 -0.13807830926E+02  0.69132422800E+02  0.41800000000E+01 0.  1.
</event>
<event>
11    1  0.6455215E-009  0.1416089E+03  0.7561462E-02  0.1105775E+00
         22   -1    0    0    0    0  0.00000000000E+00  0.00000000000E+00  0.39992487957E+03  0.39992487957E+03  0.00000000000E+00 0. -1.
         22   -1    0    0    0    0 -0.00000000000E+00 -0.00000000000E+00 -0.28385022175E+03  0.28385022175E+03  0.00000000000E+00 0. -1.
         24    2    1    2    0    0 -0.26125177667E+02 -0.58744250891E+02 -0.20984876100E+03  0.23333952002E+03  0.79230153283E+02 0.  0.
         25    2    1    2    0    0  0.81945772704E+02  0.57550996422E+02  0.67031860413E+02  0.17369129928E+03  0.12509264679E+03 0.  0.
        -24    2    1    2    0    0 -0.55820595037E+02  0.11932544693E+01  0.25889155840E+03  0.27674428202E+03  0.80281977659E+02 0.  0.
        -13    1    3    3    0    0  0.20021008159E+01 -0.17732105253E+02 -0.17165255373E+00  0.17845599709E+02  0.00000000000E+00 0.  1.
         14    1    3    3    0    0 -0.28127278483E+02 -0.41012145638E+02 -0.20967710844E+03  0.21549392031E+03  0.00000000000E+00 0. -1.
         13    1    5    5    0    0 -0.40302751789E+02 -0.16192586692E+02  0.24660320651E+03  0.25039898787E+03  0.00000000000E+00 0. -1.
        -14    1    5    5    0    0 -0.15517843248E+02  0.17385841161E+02  0.12288351889E+02  0.26345294155E+02  0.00000000000E+00 0.  1.
          5    1    4    4  501    0  0.71003015167E+02  0.95820966957E+02  0.42120683982E+02  0.12654924058E+03  0.41800000000E+01 0.  1.
         -5    1    4    4    0  501  0.10942757537E+02 -0.38269970535E+02  0.24911176431E+02  0.47142058700E+02  0.41800000000E+01 0.  1.
</event>
<event>
11    1  0.6455215E-009  0.1345833E+03  0.7561462E-02  0.1113762E+00
         22   -1    0    0    0    0  0.00000000000E+00  0.00000000000E+00  0.11955919283E+04  0.11955919283E+04  0.00000000000E+00 0.  1.
         22   -1    0    0    0    0 -0.00000000000E+00 -0.00000000000E+00 -0.51711657597E+03  0.51711657597E+03  0.00000000000E+00 0. -1.
        -24    2    1    2    0    0 -0.38514777202E+02 -0.31755457740E+02 -0.49446401658E+03  0.50440253267E+03  0.86229079274E+02 0.  0.
         25    2    1    2    0    0  0.21913294282E+02  0.28038332090E+02  0.25016088794E+03  0.28194919590E+03  0.12509411929E+03 0.  0.
         24    2    1    2    0    0  0.16601482921E+02  0.37171256510E+01  0.92277848095E+03  0.92635677566E+03  0.79544482225E+02 0.  0.
        -11    1    5    5    0    0  0.20959462892E+02 -0.34443422470E+02  0.58835567163E+03  0.58973557191E+03  0.00000000000E+00 0.  1.
         12    1    5    5    0    0 -0.43579799716E+01  0.38160548121E+02  0.33442280931E+03  0.33662120375E+03  0.00000000000E+00 0. -1.
         13    1    3    3    0    0 -0.66219313760E+02 -0.23598536523E+02 -0.32759897832E+03  0.33505668034E+03  0.00000000000E+00 0. -1.
        -14    1    3    3    0    0  0.27704536557E+02 -0.81569212176E+01 -0.16686503826E+03  0.16934585234E+03  0.00000000000E+00 0.  1.
          5    1    4    4  501    0  0.59593715557E+02  0.56078485065E+02  0.17480727544E+03  0.19305766851E+03  0.41800000000E+01 0.  1.
         -5    1    4    4    0  501 -0.37680421275E+02 -0.28040152975E+02  0.75353612491E+02  0.88891527391E+02  0.41800000000E+01 0.  1.
</event>
<event>
11    1  0.6455215E-009  0.1387450E+03  0.7561462E-02  0.1108968E+00
         22   -1    0    0    0    0  0.00000000000E+00  0.00000000000E+00  0.10965396995E+03  0.10965396995E+03  0.00000000000E+00 0.  1.
         22   -1    0    0    0    0 -0.00000000000E+00 -0.00000000000E+00 -0.77668668940E+03  0.77668668940E+03  0.00000000000E+00 0.  1.
        -24    2    1    2    0    0  0.26866920661E+02  0.76555760793E+02 -0.46554264152E+03  0.47932600880E+03  0.80254941900E+02 0.  0.
         25    2    1    2    0    0 -0.25186563127E+02 -0.47639516296E+01 -0.25688550454E+03  0.28686847659E+03  0.12508517985E+03 0.  0.
         24    2    1    2    0    0 -0.16803575347E+01 -0.71791809163E+02  0.55395426626E+02  0.12014617396E+03  0.78800776407E+02 0.  0.
        -11    1    5    5    0    0  0.13347705496E+02 -0.15459234446E+02  0.58297077816E+02  0.61771340066E+02  0.00000000000E+00 0.  1.
         12    1    5    5    0    0 -0.15028063031E+02 -0.56332574717E+02 -0.29016511905E+01  0.58374833896E+02  0.00000000000E+00 0. -1.
         11    1    3    3    0    0 -0.49506872103E+01 -0.72714221354E+01 -0.49632460571E+01  0.10100331438E+02  0.00000000000E+00 0. -1.
        -12    1    3    3    0    0  0.31817607872E+02  0.83827182928E+02 -0.46057939547E+03  0.46922567736E+03  0.00000000000E+00 0.  1.
          5    1    4    4  501    0 -0.45444352935E+02 -0.33264706399E+02 -0.24222841219E+03  0.24872435743E+03  0.41800000000E+01 0. -1.
         -5    1    4    4    0  501  0.20257789808E+02  0.28500754769E+02 -0.14657092355E+02  0.38144119162E+02  0.41800000000E+01 0. -1.
</event>
<event>
11    1  0.6455215E-009  0.1396311E+03  0.7561462E-02  0.1107971E+00
         22   -1    0    0    0    0  0.00000000000E+00  0.00000000000E+00  0.32112466766E+03  0.32112466766E+03  0.00000000000E+00 0.  1.
         22   -1    0    0    0    0 -0.00000000000E+00 -0.00000000000E+00 -0.49973018200E+03  0.49973018200E+03  0.00000000000E+00 0.  1.
         24    2    1    2    0    0 -0.99693723153E+01 -0.60143884703E+02 -0.32369280532E+03  0.33924902477E+03  0.81216952310E+02 0.  0.
         25    2    1    2    0    0  0.25383730196E+02  0.62714608566E+02 -0.13154282665E+03  0.19372140069E+03  0.12508800884E+03 0.  0.
        -24    2    1    2    0    0 -0.15414357881E+02 -0.25707238628E+01  0.27663011763E+03  0.28788442419E+03  0.78160147535E+02 0.  0.
        -11    1    3    3    0    0 -0.54774756964E+01 -0.74319702311E+02 -0.31066827418E+03  0.31948113790E+03  0.00000000000E+00 0.  1.
         12    1    3    3    0    0 -0.44918966189E+01  0.14175817608E+02 -0.13024531141E+02  0.19767886876E+02  0.00000000000E+00 0. -1.
         11    1    5    5    0    0  0.11346345927E+02 -0.27693216304E+02  0.20718872591E+03  0.20933901198E+03  0.00000000000E+00 0. -1.
        -12    1    5    5    0    0 -0.26760703808E+02  0.25122492441E+02  0.69441391724E+02  0.78545412210E+02  0.00000000000E+00 0.  1.
          5    1    4    4  501    0  0.43329238075E+02  0.87383775336E+02 -0.56948300803E+02  0.11302180510E+03  0.41800000000E+01 0.  1.
         -5    1    4    4    0  501 -0.17945507878E+02 -0.24669166770E+02 -0.74594525846E+02  0.80699595589E+02  0.41800000000E+01 0.  1.
</event>
<event>
11    1  0.6455215E-009  0.1779253E+03  0.7561462E-02  0.1071333E+00
         22   -1    0    0    0    0  0.00000000000E+00  0.00000000000E+00  0.66364019368E+03  0.66364019368E+03  0.00000000000E+00 0.  1.
         22   -1    0    0    0    0 -0.00000000000E+00 -0.00000000000E+00 -0.22462920518E+03  0.22462920518E+03  0.00000000000E+00 0.  1.
         24    2    1    2    0    0 -0.17885607639E+02  0.14190448466E+02 -0.14592520684E+03  0.16814070200E+03  0.80348403168E+02 0.  0.
         25    2    1    2    0    0 -0.96015500561E+02 -0.72581889729E+02  0.76030150734E+02  0.18951708856E+03  0.12509610693E+03 0.  0.
        -24    2    1    2    0    0  0.11390110820E+03  0.58391441263E+02  0.50890604460E+03  0.53061160831E+03  0.78614844506E+02 0.  0.
        -11    1    3    3    0    0 -0.37487679991E+02  0.34837284258E+01 -0.14008245102E+03  0.14505363008E+03  0.00000000000E+00 0.  1.
         12    1    3    3    0    0  0.19602072352E+02  0.10706720040E+02 -0.58427558148E+01  0.23087071924E+02  0.00000000000E+00 0. -1.
         13    1    5    5    0    0 -0.85360955803E+01  0.10983578352E+02  0.19856148283E+02  0.24243979579E+02  0.00000000000E+00 0. -1.
        -14    1    5    5    0    0  0.12243720378E+03  0.47407862911E+02  0.48904989632E+03  0.50636762873E+03  0.00000000000E+00 0.  1.
          5    1    4    4  501    0 -0.22999318672E+02 -0.94280298817E+02  0.38341666333E+02  0.10442844048E+03  0.41800000000E+01 0.  1.
         -5    1    4    4    0  501 -0.73016181889E+02  0.21698409089E+02  0.37688484401E+02  0.85088648074E+02  0.41800000000E+01 0.  1.
</event>
<event>
11    1  0.6455215E-009  0.1388528E+03  0.7561462E-02  0.1108846E+00
         22   -1    0    0    0    0  0.00000000000E+00  0.00000000000E+00  0.20026356431E+04  0.20026356431E+04  0.00000000000E+00 0.  1.
         22   -1    0    0    0    0 -0.00000000000E+00 -0.00000000000E+00 -0.85425878124E+02  0.85425878124E+02  0.00000000000E+00 0.  1.
        -24    2    1    2    0    0  0.51539468987E+01 -0.14408712982E+02 -0.46849322566E+02  0.92962124971E+02  0.78822100173E+02 0.  0.
         25    2    1    2    0    0 -0.23733523766E+02 -0.44184197263E+02  0.31084384789E+03  0.33880302423E+03  0.12509223805E+03 0.  0.
         24    2    1    2    0    0  0.18579576867E+02  0.58592910245E+02  0.16532152397E+04  0.16562963720E+04  0.80116874231E+02 0.  0.
        -11    1    5    5    0    0  0.38670963981E+02  0.27997435897E+02  0.13553575931E+04  0.13561981806E+04  0.00000000000E+00 0.  1.
         12    1    5    5    0    0 -0.20091387114E+02  0.30595474349E+02  0.29785764652E+03  0.30009819139E+03  0.00000000000E+00 0. -1.
         13    1    3    3    0    0 -0.16273794977E+02 -0.15482072172E+02  0.15324027309E+02  0.27191115730E+02  0.00000000000E+00 0. -1.
        -14    1    3    3    0    0  0.21427741876E+02  0.10733591900E+01 -0.62173349875E+02  0.65771009240E+02  0.00000000000E+00 0.  1.
          5    1    4    4  501    0 -0.29982050874E+02 -0.49274150181E+02  0.32042611411E+03  0.32560287507E+03  0.41800000000E+01 0.  1.
         -5    1    4    4    0  501  0.62485271080E+01  0.50899529179E+01 -0.95822662270E+01  0.13200149157E+02  0.41800000000E+01 0.  1.
</event>
<event>
11    1  0.6455215E-009  0.1458204E+03  0.7561462E-02  0.1101228E+00
         22   -1    0    0    0    0  0.00000000000E+00  0.00000000000E+00  0.19766807242E+03  0.19766807242E+03  0.00000000000E+00 0. -1.
         22   -1    0    0    0    0 -0.00000000000E+00 -0.00000000000E+00 -0.64845855599E+03  0.64845855599E+03  0.00000000000E+00 0. -1.
        -24    2    1    2    0    0  0.11405628000E+02  0.36489335422E+02 -0.48777274679E+03  0.49427267737E+03  0.70154594537E+02 0.  0.
         25    2    1    2    0    0 -0.35081310149E+02  0.38700049253E+02 -0.10434367778E+03  0.17106345131E+03  0.12508680644E+03 0.  0.
         24    2    1    2    0    0  0.23675682148E+02 -0.75189384675E+02  0.14132594100E+03  0.18079049973E+03  0.80611424127E+02 0.  0.
        -13    1    5    5    0    0 -0.23519907743E+02 -0.48921441300E+02  0.45669634518E+02  0.70938064508E+02  0.00000000000E+00 0.  1.
         14    1    5    5    0    0  0.47195589891E+02 -0.26267943374E+02  0.95656306482E+02  0.10985243522E+03  0.00000000000E+00 0. -1.
         11    1    3    3    0    0 -0.14436102222E+02  0.39568786711E+02 -0.41216109720E+03  0.41430768757E+03  0.00000000000E+00 0. -1.
        -12    1    3    3    0    0  0.25841730222E+02 -0.30794512896E+01 -0.75611649585E+02  0.79964989802E+02  0.00000000000E+00 0.  1.
          5    1    4    4  501    0  0.28551887553E+02  0.61407258411E+02 -0.53414427151E+02  0.86351810034E+02  0.41800000000E+01 0. -1.
         -5    1    4    4    0  501 -0.63633197702E+02 -0.22707209158E+02 -0.50929250631E+02  0.84711641274E+02  0.41800000000E+01 0. -1.
</event>
<event>
11    1  0.6455215E-009  0.1389304E+03  0.7561462E-02  0.1108759E+00
         22   -1    0    0    0    0  0.00000000000E+00  0.00000000000E+00  0.59737439207E+03  0.59737439207E+03  0.00000000000E+00 0.  1.
         22   -1    0    0    0    0 -0.00000000000E+00 -0.00000000000E+00 -0.89205693335E+03  0.89205693335E+03  0.00000000000E+00 0.  1.
         24    2    1    2    0    0  0.22895440371E+02  0.57452401764E+02 -0.84665526445E+03  0.85311200557E+03  0.84557540023E+02 0.  0.
         25    2    1    2    0    0  0.30783172600E+02 -0.22605479511E+02  0.80162151254E+02  0.15340188722E+03  0.12509019582E+03 0.  0.
        -24    2    1    2    0    0 -0.53678612971E+02 -0.34846922254E+02  0.47181057191E+03  0.48291743262E+03  0.80674218186E+02 0.  0.
        -13    1    3    3    0    0  0.42829027676E+02  0.69174849027E+02 -0.68376158550E+03  0.68858506457E+03  0.00000000000E+00 0.  1.
         14    1    3    3    0    0 -0.19933587305E+02 -0.11722447263E+02 -0.16289367895E+03  0.16452694100E+03  0.00000000000E+00 0. -1.
         11    1    5    5    0    0  0.10515708349E+02 -0.71785737649E+01  0.10972960641E+02  0.16808269054E+02  0.00000000000E+00 0. -1.
        -12    1    5    5    0    0 -0.64194321321E+02 -0.27668348489E+02  0.46083761127E+03  0.46610916357E+03  0.00000000000E+00 0.  1.
          5    1    4    4  501    0  0.21228329008E+02  0.42284584660E+02 -0.27768849089E+01  0.47579528604E+02  0.41800000000E+01 0.  1.
         -5    1    4    4    0  501  0.95548435925E+01 -0.64890064171E+02  0.82939036163E+02  0.10582235862E+03  0.41800000000E+01 0.  1.
</event>
<event>
11    1  0.6455215E-009  0.1342853E+03  0.7561462E-02  0.1114113E+00
         22   -1    0    0    0    0  0.00000000000E+00  0.00000000000E+00  0.23413085846E+03  0.23413085846E+03  0.00000000000E+00 0. -1.
         22   -1    0    0    0    0 -0.00000000000E+00 -0.00000000000E+00 -0.27869920389E+03  0.27869920389E+03  0.00000000000E+00 0. -1.
        -24    2    1    2    0    0 -0.15600697140E+02  0.35137804693E+02 -0.18937343325E+03  0.20920345850E+03  0.80160730755E+02 0.  0.
         25    2    1    2    0    0  0.60225443093E+02 -0.17398274335E+02  0.11146811344E+02  0.14036391327E+03  0.12509185745E+03 0.  0.
         24    2    1    2    0    0 -0.44624745953E+02 -0.17739530358E+02  0.13365827647E+03  0.16326269058E+03  0.80523986355E+02 0.  0.
        -13    1    5    5    0    0 -0.35080198962E+01 -0.44464787504E+02  0.59652051808E+02  0.74483493582E+02  0.00000000000E+00 0.  1.
         14    1    5    5    0    0 -0.41116726057E+02  0.26725257146E+02  0.74006224665E+02  0.88779197002E+02  0.00000000000E+00 0. -1.
         11    1    3    3    0    0 -0.23291852118E+02  0.19907249201E+02 -0.18967957830E+03  0.19213836517E+03  0.00000000000E+00 0. -1.
        -12    1    3    3    0    0  0.76911549784E+01  0.15230555492E+02  0.30614504654E+00  0.17065093328E+02  0.00000000000E+00 0.  1.
          5    1    4    4  501    0  0.36202405450E+02  0.53205004490E+02 -0.20008103780E+01  0.64520247251E+02  0.41800000000E+01 0. -1.
         -5    1    4    4    0  501  0.24023037643E+02 -0.70603278826E+02  0.13147621722E+02  0.75843666021E+02  0.41800000000E+01 0. -1.
</event>
<event>
11    1  0.6455215E-009  0.1289481E+03  0.7561462E-02  0.1120568E+00
         22   -1    0    0    0    0  0.00000000000E+00  0.00000000000E+00  0.13054447141E+03  0.13054447141E+03  0.00000000000E+00 0.  1.
         22   -1    0    0    0    0 -0.00000000000E+00 -0.00000000000E+00 -0.41588970271E+03  0.41588970271E+03  0.00000000000E+00 0.  1.
         24    2    1    2    0    0  0.10972822293E+02  0.30358436303E+02 -0.30087058212E+03  0.31350208120E+03  0.81965909080E+02 0.  0.
         25    2    1    2    0    0 -0.25934675341E+02 -0.15209507872E+02 -0.39139030422E+02  0.13447807292E+03  0.12509417205E+03 0.  0.
        -24    2    1    2    0    0  0.14961853048E+02 -0.15148928431E+02  0.54664381232E+02  0.98454019992E+02  0.79067391495E+02 0.  0.
        -11    1    3    3    0    0 -0.22226748768E+02  0.21452367581E+02 -0.40826502251E+02  0.51196051817E+02  0.00000000000E+00 0.  1.
         12    1    3    3    0    0  0.33199571060E+02  0.89060687222E+01 -0.26004407987E+03  0.26230602939E+03  0.00000000000E+00 0. -1.
         13    1    5    5    0    0 -0.17989823839E+01  0.21381561013E+01 -0.19901593633E+02  0.20096802688E+02  0.00000000000E+00 0. -1.
        -14    1    5    5    0    0  0.16760835432E+02 -0.17287084533E+02  0.74565974865E+02  0.78357217304E+02  0.00000000000E+00 0.  1.
          5    1    4    4  501    0 -0.11222065160E+02  0.52083667995E+02  0.31611631670E+01  0.53536049264E+02  0.41800000000E+01 0.  1.
         -5    1    4    4    0  501 -0.14712610181E+02 -0.67293175867E+02 -0.42300193590E+02  0.80942023661E+02  0.41800000000E+01 0.  1.
</event>
<event>
11    1  0.6455215E-009  0.1633642E+03  0.7561462E-02  0.1083955E+00
         22   -1    0    0    0    0  0.00000000000E+00  0.00000000000E+00  0.12479032902E+04  0.12479032902E+04  0.00000000000E+00 0. -1.
         22   -1    0    0    0    0 -0.00000000000E+00 -0.00000000000E+00 -0.22331241912E+03  0.22331241912E+03  0.00000000000E+00 0. -1.
        -24    2    1    2    0    0 -0.33470257921E+02 -0.37649956535E+02 -0.18201266479E+03  0.20631814034E+03  0.83070978663E+02 0.  0.
         25    2    1    2    0    0 -0.70307130435E+02  0.68179316768E+02  0.23174631881E+03  0.28097252393E+03  0.12509073145E+03 0.  0.
         24    2    1    2    0    0  0.10377738836E+03 -0.30529360233E+02  0.97485721709E+03  0.98392504509E+03  0.77846724159E+02 0.  0.
        -13    1    5    5    0    0  0.10841898428E+02  0.22789234546E+02  0.23471691577E+03  0.23606974927E+03  0.00000000000E+00 0.  1.
         14    1    5    5    0    0  0.92935489928E+02 -0.53318594779E+02  0.74014030132E+03  0.74785529581E+03  0.00000000000E+00 0. -1.
         11    1    3    3    0    0 -0.58070393285E+02 -0.42646064465E+02 -0.13560572669E+03  0.15355705943E+03  0.00000000000E+00 0. -1.
        -12    1    3    3    0    0  0.24600135364E+02  0.49961079303E+01 -0.46406938103E+02  0.52761080907E+02  0.00000000000E+00 0.  1.
          5    1    4    4  501    0  0.99743445111E+01 -0.27121389339E+02  0.76345691870E+02  0.81738573362E+02  0.41800000000E+01 0. -1.
         -5    1    4    4    0  501 -0.80281474946E+02  0.95300706107E+02  0.15540062694E+03  0.19923395057E+03  0.41800000000E+01 0. -1.
</event>
<event>
11    1  0.6455215E-009  0.1728758E+03  0.7561462E-02  0.1075556E+00
         22   -1    0    0    0    0  0.00000000000E+00  0.00000000000E+00  0.71375116702E+03  0.71375116702E+03  0.00000000000E+00 0.  1.
         22   -1    0    0    0    0 -0.00000000000E+00 -0.00000000000E+00 -0.51553078038E+03  0.51553078038E+03  0.00000000000E+00 0. -1.
        -24    2    1    2    0    0 -0.14106593445E+03  0.29570256231E+02 -0.29144573625E+03  0.33494267549E+03  0.80448621925E+02 0.  0.
         25    2    1    2    0    0  0.88344469118E+02  0.16414042365E+02 -0.16811457985E+03  0.22800161862E+03  0.12509220649E+03 0.  0.
         24    2    1    2    0    0  0.52721465328E+02 -0.45984298595E+02  0.65778070274E+03  0.66633765329E+03  0.80226595763E+02 0.  0.
        -13    1    5    5    0    0  0.58650758593E+02 -0.68214420388E+01  0.26155173978E+03  0.26813383997E+03  0.00000000000E+00 0.  1.
         14    1    5    5    0    0 -0.59292932645E+01 -0.39162856556E+02  0.39622896296E+03  0.39820381332E+03  0.00000000000E+00 0. -1.
         11    1    3    3    0    0 -0.14717216384E+03  0.39679538076E+02 -0.27800503512E+03  0.31705032897E+03  0.00000000000E+00 0. -1.
        -12    1    3    3    0    0  0.61062293946E+01 -0.10109281845E+02 -0.13440701132E+02  0.17892346514E+02  0.00000000000E+00 0.  1.
          5    1    4    4  501    0  0.71102063719E+01  0.56714410780E+02 -0.35912296556E+02  0.67633163971E+02  0.41800000000E+01 0. -1.
         -5    1    4    4    0  501  0.81234262746E+02 -0.40300368416E+02 -0.13220228330E+03  0.16036845465E+03  0.41800000000E+01 0. -1.
</event>
<event>
11    1  0.6455215E-009  0.1477588E+03  0.7561462E-02  0.1099191E+00
         22   -1    0    0    0    0  0.00000000000E+00  0.00000000000E+00  0.11379362371E+03  0.11379362371E+03  0.00000000000E+00 0. -1.
         22   -1    0    0    0    0 -0.00000000000E+00 -0.00000000000E+00 -0.15137639083E+04  0.15137639083E+04  0.00000000000E+00 0. -1.
        -24    2    1    2    0    0 -0.45305642866E+02 -0.64042857944E+02 -0.11106449892E+04  0.11163248403E+04  0.80590123153E+02 0.  0.
         25    2    1    2    0    0  0.90850337545E+02  0.29742640994E+02 -0.35827091356E+03  0.39133649323E+03  0.12509114641E+03 0.  0.
         24    2    1    2    0    0 -0.45544694679E+02  0.34300216950E+02  0.68945618191E+02  0.11989619852E+03  0.79817141357E+02 0.  0.
        -11    1    5    5    0    0 -0.56388878189E+02 -0.41425250134E+01  0.29562886341E+02  0.63803059062E+02  0.00000000000E+00 0.  1.
         12    1    5    5    0    0  0.10844183511E+02  0.38442741964E+02  0.39382731851E+02  0.56093139453E+02  0.00000000000E+00 0. -1.
         13    1    3    3    0    0 -0.40112077471E+01 -0.87812759930E+01 -0.68946251941E+03  0.68953010541E+03  0.00000000000E+00 0. -1.
        -14    1    3    3    0    0 -0.41294435119E+02 -0.55261581951E+02 -0.42118246981E+03  0.42679473484E+03  0.00000000000E+00 0.  1.
          5    1    4    4  501    0  0.10730661764E+02  0.41262187890E+02 -0.26204730450E+03  0.26552585081E+03  0.41800000000E+01 0.  1.
         -5    1    4    4    0  501  0.80119675780E+02 -0.11519546896E+02 -0.96223609054E+02  0.12581064242E+03  0.41800000000E+01 0.  1.
</event>
<event>
11    1  0.6455215E-009  0.1747039E+03  0.7561462E-02  0.1074009E+00
         22   -1    0    0    0    0  0.00000000000E+00  0.00000000000E+00  0.44121253139E+03  0.44121253139E+03  0.00000000000E+00 0.  1.
         22   -1    0    0    0    0 -0.00000000000E+00 -0.00000000000E+00 -0.28139588664E+03  0.28139588664E+03  0.00000000000E+00 0. -1.
        -24    2    1    2    0    0  0.48575700702E+02 -0.16246069146E+02 -0.13313186289E+03  0.16461010508E+03  0.82151447447E+02 0.  0.
         25    2    1    2    0    0  0.74034807769E+02 -0.19867644522E+02 -0.71505320387E+02  0.16320602529E+03  0.12508924729E+03 0.  0.
         24    2    1    2    0    0 -0.12261050847E+03  0.36113713669E+02  0.36445382802E+03  0.39479228766E+03  0.81834103709E+02 0.  0.
        -13    1    5    5    0    0 -0.93450306073E+02 -0.81708778841E+01  0.27772037281E+03  0.29313534148E+03  0.00000000000E+00 0.  1.
         14    1    5    5    0    0 -0.29160202398E+02  0.44284591553E+02  0.86733455216E+02  0.10165694618E+03  0.00000000000E+00 0. -1.
         13    1    3    3    0    0  0.38873427745E+02 -0.42089671708E+02 -0.12211530764E+03  0.13488822117E+03  0.00000000000E+00 0. -1.
        -14    1    3    3    0    0  0.97022729575E+01  0.25843602562E+02 -0.11016555246E+02  0.29721883914E+02  0.00000000000E+00 0.  1.
          5    1    4    4  501    0  0.25482079904E+02 -0.68320349111E+02 -0.57778373258E+02  0.93127972786E+02  0.41800000000E+01 0.  1.
         -5    1    4    4    0  501  0.48552727864E+02  0.48452704589E+02 -0.13726947129E+02  0.70078052502E+02  0.41800000000E+01 0.  1.
</event>
<event>
11    1  0.6455215E-009  0.2449510E+03  0.7561462E-02  0.1026624E+00
         22   -1    0    0    0    0  0.00000000000E+00  0.00000000000E+00  0.11060248583E+04  0.11060248583E+04  0.00000000000E+00 0. -1.
         22   -1    0    0    0    0 -0.00000000000E+00 -0.00000000000E+00 -0.71257590848E+03  0.71257590848E+03  0.00000000000E+00 0.  1.
         24    2    1    2    0    0 -0.80736964947E+02  0.54333684522E+01 -0.61609385032E+03  0.62662266334E+03  0.80847701257E+02 0.  0.
         25    2    1    2    0    0  0.10892558154E+03  0.20202148085E+03  0.14514943884E+03  0.29898782308E+03  0.12509155733E+03 0.  0.
        -24    2    1    2    0    0 -0.28188616591E+02 -0.20745484930E+03  0.86439336132E+03  0.89299028037E+03  0.80147645888E+02 0.  0.
        -13    1    3    3    0    0 -0.47575275848E+02  0.37517680389E+02 -0.45614206538E+03  0.46014841847E+03  0.00000000000E+00 0.  1.
         14    1    3    3    0    0 -0.33161689099E+02 -0.32084311936E+02 -0.15995178495E+03  0.16647424487E+03  0.00000000000E+00 0. -1.
         13    1    5    5    0    0 -0.38696085279E+01 -0.40075067165E+02  0.33057039341E+03  0.33301316773E+03  0.00000000000E+00 0. -1.
        -14    1    5    5    0    0 -0.24319008063E+02 -0.16737978214E+03  0.53382296791E+03  0.55997711265E+03  0.00000000000E+00 0.  1.
          5    1    4    4  501    0  0.26776834450E+01  0.11062202699E+03  0.10628488123E+03  0.15348729987E+03  0.41800000000E+01 0. -1.
         -5    1    4    4    0  501  0.10624789809E+03  0.91399453856E+02  0.38864557613E+02  0.14550052320E+03  0.41800000000E+01 0. -1.
</event>
<event>
11    1  0.6455215E-009  0.1648088E+03  0.7561462E-02  0.1082640E+00
         22   -1    0    0    0    0  0.00000000000E+00  0.00000000000E+00  0.25311356761E+04  0.25311356761E+04  0.00000000000E+00 0. -1.
         22   -1    0    0    0    0 -0.00000000000E+00 -0.00000000000E+00 -0.49323057829E+03  0.49323057829E+03  0.00000000000E+00 0.  1.
         24    2    1    2    0    0 -0.38109661529E+02 -0.11083478931E+02 -0.46715644287E+03  0.47566131753E+03  0.80270524333E+02 0.  0.
         25    2    1    2    0    0  0.13137164694E+03 -0.36267956847E+02  0.41285032908E+03  0.45239120606E+03  0.12505412743E+03 0.  0.
        -24    2    1    2    0    0 -0.93261985413E+02  0.47351435778E+02  0.20922112116E+04  0.20963137308E+04  0.79016122302E+02 0.  0.
        -13    1    3    3    0    0  0.84504262141E+01 -0.19811954725E+02 -0.32714388207E+03  0.32785216612E+03  0.00000000000E+00 0.  1.
         14    1    3    3    0    0 -0.46560087743E+02  0.87284757944E+01 -0.14001256080E+03  0.14780915141E+03  0.00000000000E+00 0. -1.
         13    1    5    5    0    0 -0.90437783597E+02  0.19748334941E+02  0.18825350626E+04  0.18848096062E+04  0.00000000000E+00 0. -1.
        -14    1    5    5    0    0 -0.28242018156E+01  0.27603100837E+02  0.20967614898E+03  0.21150412465E+03  0.00000000000E+00 0.  1.
          5    1    4    4  501    0  0.30886082272E+02 -0.65324902994E+02  0.10751246780E+03  0.12960592641E+03  0.41800000000E+01 0.  1.
         -5    1    4    4    0  501  0.10048556467E+03  0.29056946147E+02  0.30533786129E+03  0.32278527965E+03  0.41800000000E+01 0.  1.
</event>
<event>
11    1  0.6455215E-009  0.1935878E+03  0.7561462E-02  0.1059153E+00
         22   -1    0    0    0    0  0.00000000000E+00  0.00000000000E+00  0.63839515502E+03  0.63839515502E+03  0.00000000000E+00 0.  1.
         22   -1    0    0    0    0 -0.00000000000E+00 -0.00000000000E+00 -0.77452463170E+03  0.77452463170E+03  0.00000000000E+00 0. -1.
        -24    2    1    2    0    0  0.71675189282E+02  0.13220353201E+03 -0.71582968907E+03  0.73558011488E+03  0.77787242077E+02 0.  0.
         25    2    1    2    0    0 -0.11673154055E+03 -0.43195675182E+02  0.15937940576E+03  0.23778484649E+03  0.12509084430E+03 0.  0.
         24    2    1    2    0    0  0.45056351271E+02 -0.89007856831E+02  0.42032080662E+03  0.43955482535E+03  0.81156580996E+02 0.  0.
        -11    1    5    5    0    0  0.39156726264E+02 -0.11153885747E+02  0.73194832657E+02  0.83756443970E+02  0.00000000000E+00 0.  1.
         12    1    5    5    0    0  0.58996250071E+01 -0.77853971084E+02  0.34712597397E+03  0.35579838138E+03  0.00000000000E+00 0. -1.
         13    1    3    3    0    0  0.73374306900E+02  0.94372795009E+02 -0.39977921343E+03  0.41726901735E+03  0.00000000000E+00 0. -1.
        -14    1    3    3    0    0 -0.16991176176E+01  0.37830737004E+02 -0.31605047564E+03  0.31831109753E+03  0.00000000000E+00 0.  1.
          5    1    4    4  501    0 -0.49150673422E+02 -0.59087193622E+02  0.16272558490E+02  0.78672445670E+02  0.41800000000E+01 0.  1.
         -5    1    4    4    0  501 -0.67580867131E+02  0.15891518440E+02  0.14310684727E+03  0.15911240082E+03  0.41800000000E+01 0.  1.
</event>
<event>
11    1  0.6455215E-009  0.1429677E+03  0.7561462E-02  0.1104289E+00
         22   -1    0    0    0    0  0.00000000000E+00  0.00000000000E+00  0.90207365439E+03  0.90207365439E+03  0.00000000000E+00 0.  1.
         22   -1    0    0    0    0 -0.00000000000E+00 -0.00000000000E+00 -0.70092716090E+03  0.70092716090E+03  0.00000000000E+00 0. -1.
         24    2    1    2    0    0 -0.39004336338E+02  0.56626199155E+02 -0.64127658374E+03  0.64977935122E+03  0.79054941228E+02 0.  0.
         25    2    1    2    0    0  0.50299592884E+02 -0.63311380719E+02  0.50761118164E+02  0.15736074198E+03  0.12508929621E+03 0.  0.
        -24    2    1    2    0    0 -0.11295256546E+02  0.66851815642E+01  0.79166195906E+03  0.79586072210E+03  0.80581369350E+02 0.  0.
        -13    1    3    3    0    0  0.36281935604E+01  0.57913344454E+02 -0.27688250447E+03  0.28289757959E+03  0.00000000000E+00 0.  1.
         14    1    3    3    0    0 -0.42632529899E+02 -0.12871452992E+01 -0.36439407927E+03  0.36688177163E+03  0.00000000000E+00 0. -1.
         13    1    5    5    0    0 -0.36650063574E+02 -0.61484278427E-01  0.18302227204E+03  0.18665578749E+03  0.00000000000E+00 0. -1.
        -14    1    5    5    0    0  0.25354807028E+02  0.67466658426E+01  0.60863968702E+03  0.60920493461E+03  0.00000000000E+00 0.  1.
          5    1    4    4  501    0 -0.36891390499E+02  0.57563366096E+01  0.10772763950E+02  0.39084970862E+02  0.41800000000E+01 0.  1.
         -5    1    4    4    0  501  0.87190983383E+02 -0.69067717329E+02  0.39988354214E+02  0.11827577112E+03  0.41800000000E+01 0.  1.
</event>
<event>
11    1  0.6455215E-009  0.3364176E+03  0.7561462E-02  0.9858572E-01
         22   -1    0    0    0    0  0.00000000000E+00  0.00000000000E+00  0.17483522851E+04  0.17483522851E+04  0.00000000000E+00 0. -1.
         22   -1    0    0    0    0 -0.00000000000E+00 -0.00000000000E+00 -0.64766515475E+03  0.64766515475E+03  0.00000000000E+00 0. -1.
         24    2    1    2    0    0  0.30245091574E+03  0.35346001399E+02 -0.24212168005E+03  0.39834173300E+03  0.85599836785E+02 0.  0.
         25    2    1    2    0    0 -0.31825853855E+03 -0.45064174329E+02 -0.23523347309E+03  0.41749409214E+03  0.12508898011E+03 0.  0.
        -24    2    1    2    0    0  0.15807622809E+02  0.97181729300E+01  0.15780422835E+04  0.15801816147E+04  0.80075983631E+02 0.  0.
        -11    1    3    3    0    0  0.33490173170E+02  0.89481590686E+01  0.12068509751E+01  0.34685987645E+02  0.00000000000E+00 0.  1.
         12    1    3    3    0    0  0.26896074257E+03  0.26397842330E+02 -0.24332853102E+03  0.36365574536E+03  0.00000000000E+00 0. -1.
         13    1    5    5    0    0  0.29007373418E+01 -0.30634984385E+02  0.10469507589E+04  0.10474028872E+04  0.00000000000E+00 0. -1.
        -14    1    5    5    0    0  0.12906885467E+02  0.40353157315E+02  0.53109152459E+03  0.53277872751E+03  0.00000000000E+00 0.  1.
          5    1    4    4  501    0 -0.28356752867E+03 -0.80737749449E+02 -0.19735340256E+03  0.35481680541E+03  0.41800000000E+01 0.  1.
         -5    1    4    4    0  501 -0.34691009877E+02  0.35673575121E+02 -0.37880070531E+02  0.62677286728E+02  0.41800000000E+01 0.  1.
</event>
<event>
11    1  0.6455215E-009  0.1492755E+03  0.7561462E-02  0.1097621E+00
         22   -1    0    0    0    0  0.00000000000E+00  0.00000000000E+00  0.47710789974E+03  0.47710789974E+03  0.00000000000E+00 0. -1.
         22   -1    0    0    0    0 -0.00000000000E+00 -0.00000000000E+00 -0.14722270808E+04  0.14722270808E+04  0.00000000000E+00 0.  1.
         24    2    1    2    0    0 -0.36328029357E+02 -0.72138708634E+02 -0.13384536446E+04  0.13432771298E+04  0.80072276567E+02 0.  0.
         25    2    1    2    0    0 -0.15767649323E+02  0.11731204884E+03 -0.64788756911E+02  0.18399545909E+03  0.12508401328E+03 0.  0.
        -24    2    1    2    0    0  0.52095678679E+02 -0.45173340204E+02  0.40812322046E+03  0.42206239172E+03  0.82568208297E+02 0.  0.
        -11    1    3    3    0    0 -0.30534969996E+02 -0.39051651211E+02 -0.11916057751E+04  0.11926364656E+04  0.00000000000E+00 0.  1.
         12    1    3    3    0    0 -0.57930593604E+01 -0.33087057423E+02 -0.14684786958E+03  0.15064066419E+03  0.00000000000E+00 0. -1.
         11    1    5    5    0    0  0.48516047977E+02 -0.43688941885E+02  0.41166648270E+03  0.41681149640E+03  0.00000000000E+00 0. -1.
        -12    1    5    5    0    0  0.35796307030E+01 -0.14843983198E+01 -0.35432622383E+01  0.52508953171E+01  0.00000000000E+00 0.  1.
          5    1    4    4  501    0  0.81839258806E+01  0.46537775924E+01  0.31921978485E+02  0.33542799512E+02  0.41800000000E+01 0.  1.
         -5    1    4    4    0  501 -0.23951575203E+02  0.11265827125E+03 -0.96710735395E+02  0.15045265958E+03  0.41800000000E+01 0.  1.
</event>
<event>
11    1  0.6455215E-009  0.1338000E+03  0.7561462E-02  0.1114686E+00
         22   -1    0    0    0    0  0.00000000000E+00  0.00000000000E+00  0.93526889085E+03  0.93526889085E+03  0.00000000000E+00 0.  1.
         22   -1    0    0    0    0 -0.00000000000E+00 -0.00000000000E+00 -0.17065185536E+04  0.17065185536E+04  0.00000000000E+00 0.  1.
         24    2    1    2    0    0 -0.34032678020E+02 -0.30412324519E+02 -0.14767990076E+04  0.14796306887E+04  0.79300273818E+02 0.  0.
         25    2    1    2    0    0  0.53449236542E+02  0.58153354570E+02 -0.20198570814E+03  0.25037232353E+03  0.12509772406E+03 0.  0.
        -24    2    1    2    0    0 -0.19416558522E+02 -0.27741030051E+02  0.90753505303E+03  0.91178443218E+03  0.81144382311E+02 0.  0.
        -11    1    3    3    0    0 -0.26395361814E+02  0.13250737101E+02 -0.10729435490E+04  0.10733499692E+04  0.00000000000E+00 0.  1.
         12    1    3    3    0    0 -0.76373162064E+01 -0.43663061620E+02 -0.40385545863E+03  0.40628071947E+03  0.00000000000E+00 0. -1.
         13    1    5    5    0    0  0.19655622285E+02 -0.20483859529E+02  0.12259608699E+03  0.12584010701E+03  0.00000000000E+00 0. -1.
        -14    1    5    5    0    0 -0.39072180807E+02 -0.72571705214E+01  0.78493896604E+03  0.78594432516E+03  0.00000000000E+00 0.  1.
          5    1    4    4  501    0  0.43291687814E+02  0.27679477564E+02 -0.21062868508E+03  0.21684611846E+03  0.41800000000E+01 0.  1.
         -5    1    4    4    0  501  0.10157548728E+02  0.30473877006E+02  0.86429769449E+01  0.33526205070E+02  0.41800000000E+01 0.  1.
</event>
<event>
11    1  0.6818553E-009  0.1478554E+03  0.7561462E-02  0.1099090E+00
         22   -1    0    0    0    0  0.00000000000E+00  0.00000000000E+00  0.10641544968E+04  0.10641544968E+04  0.00000000000E+00 0.  1.
         22   -1    0    0    0    0 -0.00000000000E+00 -0.00000000000E+00 -0.25630086481E+03  0.25630086481E+03  0.00000000000E+00 0.  1.
         24    2    1    2    0    0  0.37178956421E+02 -0.14758485007E+01 -0.16084791612E+03  0.18302578461E+03  0.79005903472E+02 0.  0.
         25    2    1    2    0    0 -0.31843364287E+02  0.80143059766E+02 -0.10278521293E+02  0.15228573555E+03  0.12509351452E+03 0.  0.
        -24    2    1    2    0    0 -0.53355921332E+01 -0.78667211265E+02  0.97898006943E+03  0.98514384148E+03  0.76742513637E+02 0.  0.
        -13    1    3    3    0    0  0.11525363036E+02 -0.19707982237E+02 -0.14679257353E+03  0.14855739025E+03  0.00000000000E+00 0.  1.
         14    1    3    3    0    0  0.25653593384E+02  0.18232133736E+02 -0.14055342593E+02  0.34468394356E+02  0.00000000000E+00 0. -1.
         11    1    5    5    0    0 -0.80544896331E+01 -0.31921424897E+02  0.10800907229E+03  0.11291506484E+03  0.00000000000E+00 0. -1.
        -12    1    5    5    0    0  0.27188974999E+01 -0.46745786368E+02  0.87097099714E+03  0.87222877664E+03  0.00000000000E+00 0.  1.
          5    1    4    4  501    0 -0.55216114583E+02 -0.11930401314E+02 -0.76948216854E+01  0.57164993360E+02  0.41800000000E+01 0. -1.
         -5    1    4    4    0  501  0.23372750295E+02  0.92073461079E+02 -0.25836996080E+01  0.95120742192E+02  0.41800000000E+01 0. -1.
</event>
<event>
11    1  0.6455215E-009  0.1368809E+03  0.7561462E-02  0.1111092E+00
         22   -1    0    0    0    0  0.00000000000E+00  0.00000000000E+00  0.16479169979E+03  0.16479169979E+03  0.00000000000E+00 0.  1.
         22   -1    0    0    0    0 -0.00000000000E+00 -0.00000000000E+00 -0.14817205214E+04  0.14817205214E+04  0.00000000000E+00 0.  1.
         24    2    1    2    0    0  0.17978676040E+01  0.59419754190E+02 -0.13734085748E+04  0.13771493967E+04  0.82191287903E+02 0.  0.
         25    2    1    2    0    0 -0.31091170671E+02  0.12116369588E+01 -0.31260537129E+02  0.13264230946E+03  0.12509449276E+03 0.  0.
        -24    2    1    2    0    0  0.29293303067E+02 -0.60631391148E+02  0.87740290332E+02  0.13672051508E+03  0.80373363116E+02 0.  0.
        -13    1    3    3    0    0 -0.23173651503E+02  0.23895744122E+02 -0.10830940701E+04  0.10836054583E+04  0.00000000000E+00 0.  1.
         14    1    3    3    0    0  0.24971519107E+02  0.35524010067E+02 -0.29031450477E+03  0.29354393835E+03  0.00000000000E+00 0. -1.
         11    1    5    5    0    0  0.32065540712E+01  0.37160753873E+01 -0.13269236218E+02  0.14147926884E+02  0.00000000000E+00 0. -1.
        -12    1    5    5    0    0  0.26086748996E+02 -0.64347466536E+02  0.10100952655E+03  0.12257258819E+03  0.00000000000E+00 0.  1.
          5    1    4    4  501    0 -0.72476911976E+02  0.26406978264E+02 -0.32941941354E+02  0.83981397766E+02  0.41800000000E+01 0.  1.
         -5    1    4    4    0  501  0.41385741305E+02 -0.25195341305E+02  0.16814042248E+01  0.48660911695E+02  0.41800000000E+01 0.  1.
</event>
<event>
11    1  0.6455215E-009  0.1454409E+03  0.7561462E-02  0.1101630E+00
         22   -1    0    0    0    0  0.00000000000E+00  0.00000000000E+00  0.67724381246E+03  0.67724381246E+03  0.00000000000E+00 0. -1.
         22   -1    0    0    0    0 -0.00000000000E+00 -0.00000000000E+00 -0.31115592284E+03  0.31115592284E+03  0.00000000000E+00 0.  1.
         24    2    1    2    0    0 -0.14726730577E+02 -0.73035208902E+02 -0.26430507051E+03  0.28545288009E+03  0.77943300655E+02 0.  0.
         25    2    1    2    0    0 -0.15100375397E+02  0.73528924821E+02  0.13057524056E+03  0.19578616008E+03  0.12509117837E+03 0.  0.
        -24    2    1    2    0    0  0.29827105974E+02 -0.49371591896E+00  0.49981771958E+03  0.50716069514E+03  0.80649351409E+02 0.  0.
        -11    1    3    3    0    0  0.18747289567E+02 -0.63602298681E+02 -0.21587778615E+03  0.22583164486E+03  0.00000000000E+00 0.  1.
         12    1    3    3    0    0 -0.33474020144E+02 -0.94329102210E+01 -0.48427284360E+02  0.59621235230E+02  0.00000000000E+00 0. -1.
         11    1    5    5    0    0 -0.12480528787E+02 -0.15436357072E+02  0.35492597463E+03  0.35548064952E+03  0.00000000000E+00 0. -1.
        -12    1    5    5    0    0  0.42307634761E+02  0.14942641153E+02  0.14489174495E+03  0.15168004561E+03  0.00000000000E+00 0.  1.
          5    1    4    4  501    0  0.54591804414E+02  0.22926451066E+02  0.47122103348E+02  0.75788206811E+02  0.41800000000E+01 0.  1.
         -5    1    4    4    0  501 -0.69692179811E+02  0.50602473755E+02  0.83453137214E+02  0.11999795327E+03  0.41800000000E+01 0.  1.
</event>
<event>
11    1  0.6455215E-009  0.1272627E+03  0.7561462E-02  0.1122679E+00
         22   -1    0    0    0    0  0.00000000000E+00  0.00000000000E+00  0.13016502424E+04  0.13016502424E+04  0.00000000000E+00 0. -1.
         22   -1    0    0    0    0 -0.00000000000E+00 -0.00000000000E+00 -0.35688073903E+03  0.35688073903E+03  0.00000000000E+00 0. -1.
        -24    2    1    2    0    0 -0.12895857926E+02  0.19495819729E+02 -0.32781662306E+03  0.33944690952E+03  0.84935716222E+02 0.  0.
         25    2    1    2    0    0 -0.13819632238E+02 -0.26709669303E+02  0.16971702341E+03  0.21300002235E+03  0.12514292955E+03 0.  0.
         24    2    1    2    0    0  0.26715490164E+02  0.72138495744E+01  0.11028691030E+04  0.11060840496E+04  0.79598425042E+02 0.  0.
        -11    1    5    5    0    0 -0.22847861073E+02  0.10708775637E+02  0.16685945237E+03  0.16875656869E+03  0.00000000000E+00 0.  1.
         12    1    5    5    0    0  0.49563351237E+02 -0.34949260626E+01  0.93600965064E+03  0.93732748086E+03  0.00000000000E+00 0. -1.
         13    1    3    3    0    0 -0.21637950271E+02  0.19522702163E+02 -0.32929374414E+03  0.33058086260E+03  0.00000000000E+00 0. -1.
        -14    1    3    3    0    0  0.87420923451E+01 -0.26882434100E-01  0.14771210785E+01  0.88660469160E+01  0.00000000000E+00 0.  1.
          5    1    4    4  501    0 -0.16251748562E+02 -0.33446420722E+02 -0.52940207616E+01  0.37792611001E+02  0.41800000000E+01 0.  1.
         -5    1    4    4    0  501  0.24321163240E+01  0.67367514187E+01  0.17501104417E+03  0.17520741135E+03  0.41800000000E+01 0.  1.
</event>
<event>
11    1  0.6455215E-009  0.1304635E+03  0.7561462E-02  0.1118701E+00
         22   -1    0    0    0    0  0.00000000000E+00  0.00000000000E+00  0.10432367621E+03  0.10432367621E+03  0.00000000000E+00 0. -1.
         22   -1    0    0    0    0 -0.00000000000E+00 -0.00000000000E+00 -0.23994353677E+04  0.23994353677E+04  0.00000000000E+00 0. -1.
        -24    2    1    2    0    0 -0.39858293731E+02 -0.73166442889E+01 -0.12525477501E+04  0.12556114945E+04  0.77731216295E+02 0.  0.
         25    2    1    2    0    0  0.28929893268E+02 -0.34364855612E+02 -0.11256500489E+04  0.11334699940E+04  0.12509321628E+03 0.  0.
         24    2    1    2    0    0  0.10928400463E+02  0.41681499900E+02  0.83086107517E+02  0.11467755537E+03  0.66263587843E+02 0.  0.
        -13    1    5    5    0    0  0.29626032495E+02  0.61868903756E+01  0.62821505324E+02  0.69731778588E+02  0.00000000000E+00 0.  1.
         14    1    5    5    0    0 -0.18697632032E+02  0.35494609525E+02  0.20264602193E+02  0.44945776787E+02  0.00000000000E+00 0. -1.
         13    1    3    3    0    0  0.20358788520E+02 -0.16241458685E+02 -0.45433934837E+03  0.45508516646E+03  0.00000000000E+00 0. -1.
        -14    1    3    3    0    0 -0.60217082251E+02  0.89248143957E+01 -0.79820840176E+03  0.80052632808E+03  0.00000000000E+00 0.  1.
          5    1    4    4  501    0  0.13468754058E+02 -0.38275134459E+02 -0.11099645164E+04  0.11107137765E+04  0.41800000000E+01 0. -1.
         -5    1    4    4    0  501  0.15461139210E+02  0.39102788472E+01 -0.15685532503E+02  0.22756217529E+02  0.41800000000E+01 0. -1.
</event>
<event>
11    1  0.6455215E-009  0.1383119E+03  0.7561462E-02  0.1109458E+00
         22   -1    0    0    0    0  0.00000000000E+00  0.00000000000E+00  0.15464194415E+03  0.15464194415E+03  0.00000000000E+00 0. -1.
         22   -1    0    0    0    0 -0.00000000000E+00 -0.00000000000E+00 -0.11797248075E+04  0.11797248075E+04  0.00000000000E+00 0. -1.
        -24    2    1    2    0    0 -0.83506423930E+01  0.20100052043E+02 -0.99337163793E+03  0.99629091185E+03  0.73038515004E+02 0.  0.
         25    2    1    2    0    0  0.64580837549E+02 -0.32881546976E+02 -0.13390289323E+03  0.19705088013E+03  0.12508870386E+03 0.  0.
         24    2    1    2    0    0 -0.56230195156E+02  0.12781494933E+02  0.10219166779E+03  0.14102495970E+03  0.78228516753E+02 0.  0.
        -11    1    5    5    0    0 -0.26011509940E+02  0.14638414726E+01 -0.71542484065E+01  0.27017119600E+02  0.00000000000E+00 0.  1.
         12    1    5    5    0    0 -0.30218685215E+02  0.11317653460E+02  0.10934591619E+03  0.11400784010E+03  0.00000000000E+00 0. -1.
         13    1    3    3    0    0  0.60848649231E+01  0.44618442594E+02 -0.72980855007E+03  0.73119651993E+03  0.00000000000E+00 0. -1.
        -14    1    3    3    0    0 -0.14435507316E+02 -0.24518390551E+02 -0.26356308786E+03  0.26509439192E+03  0.00000000000E+00 0.  1.
          5    1    4    4  501    0  0.11797214184E+02 -0.63937895818E+02 -0.11610928950E+03  0.13313928155E+03  0.41800000000E+01 0.  1.
         -5    1    4    4    0  501  0.52783623364E+02  0.31056348842E+02 -0.17793603731E+02  0.63911598577E+02  0.41800000000E+01 0.  1.
</event>
<event>
11    1  0.6455215E-009  0.1385803E+03  0.7561462E-02  0.1109154E+00
         22   -1    0    0    0    0  0.00000000000E+00  0.00000000000E+00  0.95857952751E+03  0.95857952751E+03  0.00000000000E+00 0.  1.
         22   -1    0    0    0    0 -0.00000000000E+00 -0.00000000000E+00 -0.33210122195E+03  0.33210122195E+03  0.00000000000E+00 0. -1.
         24    2    1    2    0    0  0.26097539288E+02  0.53308947079E+02 -0.24864311471E+03  0.26890518175E+03  0.83448624226E+02 0.  0.
         25    2    1    2    0    0  0.23201269086E+01 -0.68678465199E+02  0.43634342905E+00  0.14271845892E+03  0.12508498531E+03 0.  0.
        -24    2    1    2    0    0 -0.28417666197E+02  0.15369518120E+02  0.87468507683E+03  0.87905710879E+03  0.81385693075E+02 0.  0.
        -13    1    3    3    0    0  0.41440302801E+00  0.51936581248E+02 -0.63738198073E+02  0.82220058959E+02  0.00000000000E+00 0.  1.
         14    1    3    3    0    0  0.25683136260E+02  0.13723658310E+01 -0.18490491663E+03  0.18668512279E+03  0.00000000000E+00 0. -1.
         13    1    5    5    0    0 -0.95004953005E+01  0.24409870956E+02  0.81727675241E+02  0.85822573437E+02  0.00000000000E+00 0. -1.
        -14    1    5    5    0    0 -0.18917170896E+02 -0.90403528366E+01  0.79295740159E+03  0.79323453535E+03  0.00000000000E+00 0.  1.
          5    1    4    4  501    0 -0.39562558084E+02 -0.80028997053E+01 -0.41295599678E+02  0.57896816481E+02  0.41800000000E+01 0.  1.
         -5    1    4    4    0  501  0.41882684993E+02 -0.60675565493E+02  0.41731943107E+02  0.84821642437E+02  0.41800000000E+01 0.  1.
</event>
<event>
11    1  0.6455215E-009  0.1574329E+03  0.7561462E-02  0.1089517E+00
         22   -1    0    0    0    0  0.00000000000E+00  0.00000000000E+00  0.15284484651E+03  0.15284484651E+03  0.00000000000E+00 0. -1.
         22   -1    0    0    0    0 -0.00000000000E+00 -0.00000000000E+00 -0.70385859178E+03  0.70385859178E+03  0.00000000000E+00 0.  1.
        -24    2    1    2    0    0 -0.77541808729E+01 -0.99513139677E+02 -0.53417673705E+03  0.54924692269E+03  0.79777210989E+02 0.  0.
         25    2    1    2    0    0 -0.73215610115E+02  0.68631374031E+02 -0.72988417928E+02  0.17618596552E+03  0.12507355528E+03 0.  0.
         24    2    1    2    0    0  0.80969790988E+02  0.30881765647E+02  0.56151409709E+02  0.13127055007E+03  0.81050515115E+02 0.  0.
        -13    1    5    5    0    0 -0.60474713561E+01  0.11224450076E+02  0.38201063130E+02  0.40272588861E+02  0.00000000000E+00 0.  1.
         14    1    5    5    0    0  0.87017262344E+02  0.19657315570E+02  0.17950346579E+02  0.90997961206E+02  0.00000000000E+00 0. -1.
         11    1    3    3    0    0 -0.31826109971E+02 -0.72818658771E+02 -0.23846027591E+03  0.25135385720E+03  0.00000000000E+00 0. -1.
        -12    1    3    3    0    0  0.24071929098E+02 -0.26694480907E+02 -0.29571646114E+03  0.29789306549E+03  0.00000000000E+00 0.  1.
          5    1    4    4  501    0 -0.32774504121E+02  0.34586134365E+02  0.32699576862E+02  0.57940517237E+02  0.41800000000E+01 0. -1.
         -5    1    4    4    0  501 -0.40441105995E+02  0.34045239666E+02 -0.10568799479E+03  0.11824544829E+03  0.41800000000E+01 0. -1.
</event>
<event>
11    1  0.6455215E-009  0.1437725E+03  0.7561462E-02  0.1103417E+00
         22   -1    0    0    0    0  0.00000000000E+00  0.00000000000E+00  0.91499095631E+03  0.91499095631E+03  0.00000000000E+00 0. -1.
         22   -1    0    0    0    0 -0.00000000000E+00 -0.00000000000E+00 -0.34743253005E+03  0.34743253005E+03  0.00000000000E+00 0. -1.
        -24    2    1    2    0    0 -0.21903204489E+02 -0.34915456067E+01 -0.22990224607E+03  0.24407570340E+03  0.78904784305E+02 0.  0.
         25    2    1    2    0    0  0.20803149282E+02 -0.67516740820E+02 -0.58049278165E+02  0.15494184281E+03  0.12508387045E+03 0.  0.
         24    2    1    2    0    0  0.11000552070E+01  0.71008286426E+02  0.85550995049E+03  0.86340594015E+03  0.92353425625E+02 0.  0.
        -11    1    5    5    0    0 -0.41424098131E+02  0.10868700436E+02  0.32228331128E+03  0.32511631347E+03  0.00000000000E+00 0.  1.
         12    1    5    5    0    0  0.42524153338E+02  0.60139585990E+02  0.53322663922E+03  0.53828962668E+03  0.00000000000E+00 0. -1.
         11    1    3    3    0    0 -0.44021989642E+02  0.17027487853E+01 -0.20765555467E+03  0.21227732877E+03  0.00000000000E+00 0. -1.
        -12    1    3    3    0    0  0.22118785153E+02 -0.51942943919E+01 -0.22246691398E+02  0.31798374629E+02  0.00000000000E+00 0.  1.
          5    1    4    4  501    0  0.61951987654E+02 -0.70201832283E+02 -0.63397401219E+02  0.11315055860E+03  0.41800000000E+01 0.  1.
         -5    1    4    4    0  501 -0.41148838372E+02  0.26850914631E+01  0.53481230531E+01  0.41791284207E+02  0.41800000000E+01 0.  1.
</event>
<event>
11    1  0.6455215E-009  0.1522712E+03  0.7561462E-02  0.1094580E+00
         22   -1    0    0    0    0  0.00000000000E+00  0.00000000000E+00  0.13912326058E+03  0.13912326058E+03  0.00000000000E+00 0. -1.
         22   -1    0    0    0    0 -0.00000000000E+00 -0.00000000000E+00 -0.10038642345E+04  0.10038642345E+04  0.00000000000E+00 0. -1.
         24    2    1    2    0    0 -0.74491030780E+02  0.49914767444E+02 -0.79859354284E+03  0.80810062838E+03  0.85056341623E+02 0.  0.
         25    2    1    2    0    0  0.22165313567E+02 -0.83231519930E+02 -0.14190935060E+03  0.20785867985E+03  0.12509268551E+03 0.  0.
        -24    2    1    2    0    0  0.52325717213E+02  0.33316752486E+02  0.75761919463E+02  0.12702818689E+03  0.80921598759E+02 0.  0.
        -13    1    3    3    0    0  0.40752110205E+01  0.24167046009E+02 -0.41379958348E+03  0.41452472634E+03  0.00000000000E+00 0.  1.
         14    1    3    3    0    0 -0.78566241800E+02  0.25747721435E+02 -0.38479395936E+03  0.39357590204E+03  0.00000000000E+00 0. -1.
         11    1    5    5    0    0  0.57611056190E+02  0.37931187100E+02  0.88668148743E+02  0.11233810285E+03  0.00000000000E+00 0. -1.
        -12    1    5    5    0    0 -0.52853389774E+01 -0.46144346140E+01 -0.12906229280E+02  0.14690084041E+02  0.00000000000E+00 0.  1.
          5    1    4    4  501    0 -0.13540691637E+01 -0.82825558499E+02 -0.22301339994E+02  0.85887885115E+02  0.41800000000E+01 0. -1.
         -5    1    4    4    0  501  0.23519382730E+02 -0.40596143169E+00 -0.11960801060E+03  0.12197079474E+03  0.41800000000E+01 0. -1.
</event>
<event>
11    1  0.6455215E-009  0.3807578E+03  0.7561462E-02  0.9708304E-01
         22   -1    0    0    0    0  0.00000000000E+00  0.00000000000E+00  0.69075674746E+02  0.69075674746E+02  0.00000000000E+00 0. -1.
         22   -1    0    0    0    0 -0.00000000000E+00 -0.00000000000E+00 -0.22970558560E+04  0.22970558560E+04  0.00000000000E+00 0.  1.
        -24    2    1    2    0    0  0.27728496520E+02 -0.27813934635E+03 -0.16396122133E+04  0.16653082045E+04  0.82418689887E+02 0.  0.
         25    2    1    2    0    0 -0.12939096953E+02  0.45201049144E+02 -0.19562508482E+03  0.23691116765E+03  0.12508865845E+03 0.  0.
         24    2    1    2    0    0 -0.14789399567E+02  0.23293829721E+03 -0.39274288317E+03  0.46391215864E+03  0.80551486679E+02 0.  0.
        -13    1    5    5    0    0  0.32517746539E+02  0.89976555967E+02 -0.16931598537E+03  0.19447644424E+03  0.00000000000E+00 0.  1.
         14    1    5    5    0    0 -0.47307146106E+02  0.14296174124E+03 -0.22342689780E+03  0.26943571440E+03  0.00000000000E+00 0. -1.
         13    1    3    3    0    0  0.53170314606E+02 -0.23255295869E+03 -0.12999093929E+04  0.13216173389E+04  0.00000000000E+00 0. -1.
        -14    1    3    3    0    0 -0.25441818086E+02 -0.45586387664E+02 -0.33970282046E+03  0.34369086557E+03  0.00000000000E+00 0.  1.
          5    1    4    4  501    0  0.47563664417E+01  0.44268237598E+02 -0.45265637157E+01  0.44947325402E+02  0.41800000000E+01 0. -1.
         -5    1    4    4    0  501 -0.17695463395E+02  0.93281154637E+00 -0.19109852110E+03  0.19196384225E+03  0.41800000000E+01 0. -1.
</event>
<event>
11    1  0.6455215E-009  0.1372825E+03  0.7561462E-02  0.1110631E+00
         22   -1    0    0    0    0  0.00000000000E+00  0.00000000000E+00  0.53991574399E+03  0.53991574399E+03  0.00000000000E+00 0. -1.
         22   -1    0    0    0    0 -0.00000000000E+00 -0.00000000000E+00 -0.95813964876E+03  0.95813964876E+03  0.00000000000E+00 0. -1.
         24    2    1    2    0    0 -0.24537595031E+02 -0.10591866767E+01 -0.90653954413E+03  0.91044629847E+03  0.80593435758E+02 0.  0.
         25    2    1    2    0    0  0.11215538936E+02  0.56486286475E+02  0.65324614061E+02  0.15243807211E+03  0.12511423481E+03 0.  0.
        -24    2    1    2    0    0  0.13322056095E+02 -0.55427099799E+02  0.42299102530E+03  0.43517102217E+03  0.84869137415E+02 0.  0.
        -11    1    3    3    0    0  0.14605511863E+02 -0.12628628308E+02 -0.62363910413E+02  0.65284458731E+02  0.00000000000E+00 0.  1.
         12    1    3    3    0    0 -0.39143106894E+02  0.11569441632E+02 -0.84417563371E+03  0.84516183974E+03  0.00000000000E+00 0. -1.
         13    1    5    5    0    0 -0.10638059994E+02 -0.69008838701E+02  0.23437457266E+03  0.24455434662E+03  0.00000000000E+00 0. -1.
        -14    1    5    5    0    0  0.23960116089E+02  0.13581738902E+02  0.18861645263E+03  0.19061667555E+03  0.00000000000E+00 0.  1.
          5    1    4    4  501    0  0.20794826278E+02 -0.27962369994E+02 -0.12368063591E+02  0.37212368006E+02  0.41800000000E+01 0. -1.
         -5    1    4    4    0  501 -0.95792873418E+01  0.84448656469E+02  0.77692677653E+02  0.11522570410E+03  0.41800000000E+01 0. -1.
</event>
<event>
11    1  0.6455215E-009  0.1364003E+03  0.7561462E-02  0.1111646E+00
         22   -1    0    0    0    0  0.00000000000E+00  0.00000000000E+00  0.30046886494E+03  0.30046886494E+03  0.00000000000E+00 0.  1.
         22   -1    0    0    0    0 -0.00000000000E+00 -0.00000000000E+00 -0.67909971599E+03  0.67909971599E+03  0.00000000000E+00 0.  1.
         24    2    1    2    0    0 -0.97403486292E+01  0.16642007493E+02 -0.55092460261E+03  0.55678669853E+03  0.78241159825E+02 0.  0.
         25    2    1    2    0    0 -0.14608311943E+02  0.33538082616E+02 -0.79550984279E+02  0.15269226726E+03  0.12509341957E+03 0.  0.
        -24    2    1    2    0    0  0.24348660572E+02 -0.50180090110E+02  0.25184473584E+03  0.27008961514E+03  0.80073282189E+02 0.  0.
        -13    1    3    3    0    0 -0.24160445346E+02 -0.10819285873E+02 -0.45914707055E+03  0.45990957422E+03  0.00000000000E+00 0.  1.
         14    1    3    3    0    0  0.14420096717E+02  0.27461293366E+02 -0.91777532067E+02  0.96877124312E+02  0.00000000000E+00 0. -1.
         13    1    5    5    0    0 -0.74214373348E+01  0.17432430924E+02  0.25725106276E+02  0.31949154495E+02  0.00000000000E+00 0. -1.
        -14    1    5    5    0    0  0.31770097907E+02 -0.67612521034E+02  0.22611962957E+03  0.23814046065E+03  0.00000000000E+00 0.  1.
          5    1    4    4  501    0 -0.61680485946E+02 -0.10441666270E+02 -0.22726686010E+02  0.66689469918E+02  0.41800000000E+01 0. -1.
         -5    1    4    4    0  501  0.47072174003E+02  0.43979748886E+02 -0.56824298269E+02  0.86002797345E+02  0.41800000000E+01 0. -1.
</event>
<event>
11    1  0.6455215E-009  0.1465096E+03  0.7561462E-02  0.1100500E+00
         22   -1    0    0    0    0  0.00000000000E+00  0.00000000000E+00  0.10078704873E+03  0.10078704873E+03  0.00000000000E+00 0. -1.
         22   -1    0    0    0    0 -0.00000000000E+00 -0.00000000000E+00 -0.18834027194E+04  0.18834027194E+04  0.00000000000E+00 0. -1.
         24    2    1    2    0    0 -0.79888609658E+02  0.61958479490E+01 -0.13787784392E+04  0.13829569855E+04  0.71550408953E+02 0.  0.
         25    2    1    2    0    0  0.12389568027E+03 -0.63513605154E+02 -0.44725182672E+03  0.48483546981E+03  0.12508844333E+03 0.  0.
        -24    2    1    2    0    0 -0.44007070610E+02  0.57317757205E+02  0.43414595228E+02  0.11639731278E+03  0.80259328355E+02 0.  0.
        -13    1    3    3    0    0 -0.46333143131E+02  0.24223943368E+02 -0.39548288480E+03  0.39892389218E+03  0.00000000000E+00 0.  1.
         14    1    3    3    0    0 -0.33555466526E+02 -0.18028095419E+02 -0.98329555436E+03  0.98403309334E+03  0.00000000000E+00 0. -1.
         11    1    5    5    0    0 -0.57144034356E+02  0.50137044686E+02  0.57904696319E+02  0.95562114711E+02  0.00000000000E+00 0. -1.
        -12    1    5    5    0    0  0.13136963746E+02  0.71807125190E+01 -0.14490101091E+02  0.20835198064E+02  0.00000000000E+00 0.  1.
          5    1    4    4  501    0  0.30972067932E+02 -0.11445013625E+02 -0.30635126170E+03  0.30815389868E+03  0.41800000000E+01 0. -1.
         -5    1    4    4    0  501  0.92923612335E+02 -0.52068591529E+02 -0.14090056502E+03  0.17668157113E+03  0.41800000000E+01 0. -1.
</event>
<event>
11    1  0.6455215E-009  0.2301477E+03  0.7561462E-02  0.1035041E+00
         22   -1    0    0    0    0  0.00000000000E+00  0.00000000000E+00  0.12287539171E+04  0.12287539171E+04  0.00000000000E+00 0.  1.
         22   -1    0    0    0    0 -0.00000000000E+00 -0.00000000000E+00 -0.41249785274E+03  0.41249785274E+03  0.00000000000E+00 0.  1.
         24    2    1    2    0    0 -0.14058319474E+03  0.12710885607E+03 -0.31194702021E+03  0.37382893380E+03  0.80726900058E+02 0.  0.
         25    2    1    2    0    0  0.19628105671E+03 -0.11434182745E+03  0.18363608062E+03  0.31775284673E+03  0.12507739510E+03 0.  0.
        -24    2    1    2    0    0 -0.55697861972E+02 -0.12767028611E+02  0.94456700395E+03  0.94966998930E+03  0.80006342172E+02 0.  0.
        -11    1    3    3    0    0 -0.13426019423E+03  0.12399252156E+03 -0.24062528572E+03  0.30215968176E+03  0.00000000000E+00 0.  1.
         12    1    3    3    0    0 -0.63230005140E+01  0.31163345070E+01 -0.71321734495E+02  0.71669252037E+02  0.00000000000E+00 0. -1.
         13    1    5    5    0    0 -0.15632714806E+02  0.32147882832E+02  0.25709407374E+03  0.25956739181E+03  0.00000000000E+00 0. -1.
        -14    1    5    5    0    0 -0.40065147166E+02 -0.44914911443E+02  0.68747293021E+03  0.69010259749E+03  0.00000000000E+00 0.  1.
          5    1    4    4  501    0  0.12115440357E+02 -0.64156590050E+02  0.26924799075E+02  0.70747926804E+02  0.41800000000E+01 0. -1.
         -5    1    4    4    0  501  0.18416561636E+03 -0.50185237405E+02  0.15671128155E+03  0.24700491992E+03  0.41800000000E+01 0. -1.
</event>
<event>
11    1  0.6455215E-009  0.1440567E+03  0.7561462E-02  0.1103111E+00
         22   -1    0    0    0    0  0.00000000000E+00  0.00000000000E+00  0.20878169212E+04  0.20878169212E+04  0.00000000000E+00 0. -1.
         22   -1    0    0    0    0 -0.00000000000E+00 -0.00000000000E+00 -0.96848981925E+02  0.96848981925E+02  0.00000000000E+00 0. -1.
         24    2    1    2    0    0  0.21208421673E+02  0.38657928024E+02 -0.50139283079E+02  0.10439962256E+03  0.80256469735E+02 0.  0.
         25    2    1    2    0    0 -0.60347842492E+02  0.23147383934E+02  0.25785448627E+03  0.29378713511E+03  0.12507710097E+03 0.  0.
        -24    2    1    2    0    0  0.39139420819E+02 -0.61805311958E+02  0.17832527360E+04  0.17864791454E+04  0.78521497452E+02 0.  0.
        -11    1    3    3    0    0 -0.21930351586E+02 -0.43912915691E+00  0.68002851995E+01  0.22964691026E+02  0.00000000000E+00 0.  1.
         12    1    3    3    0    0  0.43138773259E+02  0.39097057181E+02 -0.56939568278E+02  0.81434931536E+02  0.00000000000E+00 0. -1.
         11    1    5    5    0    0 -0.15747455514E+02  0.58411543560E+01  0.49475754775E+03  0.49504255624E+03  0.00000000000E+00 0. -1.
        -12    1    5    5    0    0  0.54886876333E+02 -0.67646466314E+02  0.12884951883E+04  0.12914365892E+04  0.00000000000E+00 0.  1.
          5    1    4    4  501    0 -0.66088916757E+02  0.36089192978E+02  0.26630460699E+03  0.27677751150E+03  0.41800000000E+01 0. -1.
         -5    1    4    4    0  501  0.57410742648E+01 -0.12941809044E+02 -0.84501207189E+01  0.17009623605E+02  0.41800000000E+01 0. -1.
</event>
<event>
11    1  0.6455215E-009  0.1583176E+03  0.7561462E-02  0.1088670E+00
         22   -1    0    0    0    0  0.00000000000E+00  0.00000000000E+00  0.18590921279E+03  0.18590921279E+03  0.00000000000E+00 0. -1.
         22   -1    0    0    0    0 -0.00000000000E+00 -0.00000000000E+00 -0.67206363827E+03  0.67206363827E+03  0.00000000000E+00 0. -1.
         24    2    1    2    0    0  0.33018283301E+02  0.99246721040E+02 -0.42931641578E+03  0.44915586762E+03  0.80549921738E+02 0.  0.
         25    2    1    2    0    0 -0.53799839243E+02 -0.62319631783E+02 -0.19326110225E+03  0.24449029405E+03  0.12508993179E+03 0.  0.
        -24    2    1    2    0    0  0.20781555942E+02 -0.36927089257E+02  0.13642309254E+03  0.16432668939E+03  0.81218949005E+02 0.  0.
        -13    1    3    3    0    0  0.10886289975E+01  0.12203953706E+02 -0.26545126423E+01  0.12536667680E+02  0.00000000000E+00 0.  1.
         14    1    3    3    0    0  0.31929654304E+02  0.87042767333E+02 -0.42666190314E+03  0.43661919994E+03  0.00000000000E+00 0. -1.
         13    1    5    5    0    0  0.22211603500E+02 -0.28446341724E+02  0.14661451543E+03  0.15099127731E+03  0.00000000000E+00 0. -1.
        -14    1    5    5    0    0 -0.14300475581E+01 -0.84807475327E+01 -0.10191422891E+02  0.13335412078E+02  0.00000000000E+00 0.  1.
          5    1    4    4  501    0 -0.21907976787E+02 -0.93210094651E+02 -0.87761999546E+02  0.12995276894E+03  0.41800000000E+01 0. -1.
         -5    1    4    4    0  501 -0.31891862457E+02  0.30890462869E+02 -0.10549910270E+03  0.11453752511E+03  0.41800000000E+01 0. -1.
</event>
<event>
11    1  0.6455215E-009  0.1535769E+03  0.7561462E-02  0.1093279E+00
         22   -1    0    0    0    0  0.00000000000E+00  0.00000000000E+00  0.11394752874E+04  0.11394752874E+04  0.00000000000E+00 0.  1.
         22   -1    0    0    0    0 -0.00000000000E+00 -0.00000000000E+00 -0.14828129172E+03  0.14828129172E+03  0.00000000000E+00 0. -1.
         24    2    1    2    0    0  0.69146365308E+02 -0.68065581951E+01 -0.80175634613E+02  0.13306485105E+03  0.80315460092E+02 0.  0.
         25    2    1    2    0    0 -0.12587331252E+03  0.68743711834E+02  0.20293696024E+03  0.27820945098E+03  0.12508916844E+03 0.  0.
        -24    2    1    2    0    0  0.56726947217E+02 -0.61937153638E+02  0.86843267003E+03  0.87648227706E+03  0.83616518042E+02 0.  0.
        -11    1    3    3    0    0  0.58204945009E+02  0.30805251342E+02 -0.40502611583E+02  0.77312616556E+02  0.00000000000E+00 0.  1.
         12    1    3    3    0    0  0.10941420299E+02 -0.37611809537E+02 -0.39673023029E+02  0.55752234494E+02  0.00000000000E+00 0. -1.
         13    1    5    5    0    0  0.25642274094E+02  0.17777307907E+02  0.17127751533E+03  0.17409637031E+03  0.00000000000E+00 0. -1.
        -14    1    5    5    0    0  0.31084673123E+02 -0.79714461545E+02  0.69715515470E+03  0.70238590676E+03  0.00000000000E+00 0.  1.
          5    1    4    4  501    0 -0.13875888062E+03  0.37799713389E+02  0.19694802921E+03  0.24390334949E+03  0.41800000000E+01 0. -1.
         -5    1    4    4    0  501  0.12885568094E+02  0.30943998445E+02  0.59889310339E+01  0.34306101495E+02  0.41800000000E+01 0. -1.
</event>
<event>
11    1  0.6455215E-009  0.1775191E+03  0.7561462E-02  0.1071667E+00
         22   -1    0    0    0    0  0.00000000000E+00  0.00000000000E+00  0.29790401324E+03  0.29790401324E+03  0.00000000000E+00 0.  1.
         22   -1    0    0    0    0 -0.00000000000E+00 -0.00000000000E+00 -0.14874104763E+03  0.14874104763E+03  0.00000000000E+00 0.  1.
         24    2    1    2    0    0  0.26475702688E+02  0.17764995981E+02  0.21903425073E+02  0.87358183043E+02  0.78327097480E+02 0.  0.
         25    2    1    2    0    0  0.70048735526E+02  0.79187650168E+02  0.12928706414E+02  0.16429368586E+03  0.12509098479E+03 0.  0.
        -24    2    1    2    0    0 -0.96524438214E+02 -0.96952646149E+02  0.11433083412E+03  0.19499319197E+03  0.78955826346E+02 0.  0.
        -13    1    3    3    0    0  0.31104668996E+02  0.26714996168E+02  0.45771139461E+02  0.61450701063E+02  0.00000000000E+00 0.  1.
         14    1    3    3    0    0 -0.46289663086E+01 -0.89500001872E+01 -0.23867714388E+02  0.25907481980E+02  0.00000000000E+00 0. -1.
         13    1    5    5    0    0 -0.59659017891E+01 -0.57717906989E+02  0.54346339434E+02  0.79501404901E+02  0.00000000000E+00 0. -1.
        -14    1    5    5    0    0 -0.90558536425E+02 -0.39234739160E+02  0.59984494691E+02  0.11549178707E+03  0.00000000000E+00 0.  1.
          5    1    4    4  501    0 -0.52063544174E+01 -0.14564756159E+02  0.38156692747E+02  0.41384101412E+02  0.41800000000E+01 0. -1.
         -5    1    4    4    0  501  0.75255089943E+02  0.93752406328E+02 -0.25227986333E+02  0.12290958445E+03  0.41800000000E+01 0. -1.
</event>
<event>
11    1  0.6455215E-009  0.2515284E+03  0.7561462E-02  0.1023088E+00
         22   -1    0    0    0    0  0.00000000000E+00  0.00000000000E+00  0.30717628827E+03  0.30717628827E+03  0.00000000000E+00 0. -1.
         22   -1    0    0    0    0 -0.00000000000E+00 -0.00000000000E+00 -0.66603939387E+03  0.66603939387E+03  0.00000000000E+00 0. -1.
         24    2    1    2    0    0 -0.87082608072E+02  0.70900898242E+02 -0.40817855294E+03  0.43101248041E+03  0.80942628967E+02 0.  0.
         25    2    1    2    0    0  0.20010907906E+03  0.11846612012E+03 -0.76798260167E+02  0.27500159787E+03  0.12510012361E+03 0.  0.
        -24    2    1    2    0    0 -0.11302647099E+03 -0.18936701836E+03  0.12611370751E+03  0.26720160387E+03  0.82808085957E+02 0.  0.
        -13    1    3    3    0    0  0.10461965687E+02  0.30066216240E+02 -0.11589225487E+03  0.12018504409E+03  0.00000000000E+00 0.  1.
         14    1    3    3    0    0 -0.97544573759E+02  0.40834682003E+02 -0.29228629807E+03  0.31082743631E+03  0.00000000000E+00 0. -1.
         11    1    5    5    0    0 -0.12535235469E+03 -0.16370170117E+03  0.11815494673E+03  0.23763848852E+03  0.00000000000E+00 0. -1.
        -12    1    5    5    0    0  0.12325883700E+02 -0.25665317194E+02  0.79587607792E+01  0.29563115343E+02  0.00000000000E+00 0.  1.
          5    1    4    4  501    0  0.59512133837E+02  0.94031563120E+02 -0.71099948607E+02  0.13212230708E+03  0.41800000000E+01 0.  1.
         -5    1    4    4    0  501  0.14059694522E+03  0.24434556999E+02 -0.56983115606E+01  0.14287929079E+03  0.41800000000E+01 0.  1.
</event>
<event>
11    1  0.7645780E-009  0.1918837E+03  0.7561462E-02  0.1060416E+00
         22   -1    0    0    0    0  0.00000000000E+00  0.00000000000E+00  0.91057066340E+03  0.91057066340E+03  0.00000000000E+00 0. -1.
         22   -1    0    0    0    0 -0.00000000000E+00 -0.00000000000E+00 -0.50606017440E+03  0.50606017440E+03  0.00000000000E+00 0. -1.
        -24    2    1    2    0    0  0.82471141317E+02 -0.94896961578E+01 -0.42485024627E+03  0.44082486088E+03  0.83290351971E+02 0.  0.
         25    2    1    2    0    0  0.73541578470E+02  0.10592235185E+02  0.18975047198E+02  0.14672647336E+03  0.12509215147E+03 0.  0.
         24    2    1    2    0    0 -0.15601271979E+03 -0.11025390268E+01  0.81038568808E+03  0.82907950355E+03  0.79414579531E+02 0.  0.
        -13    1    5    5    0    0 -0.29638497851E+02  0.11598776648E+02  0.59022237618E+02  0.67056667886E+02  0.00000000000E+00 0.  1.
         14    1    5    5    0    0 -0.12637422194E+03 -0.12701315675E+02  0.75136345046E+03  0.76202283566E+03  0.00000000000E+00 0. -1.
         11    1    3    3    0    0  0.87973739257E+02  0.28945022744E+01 -0.41458020653E+03  0.42382131210E+03  0.00000000000E+00 0. -1.
        -12    1    3    3    0    0 -0.55025979397E+01 -0.12384198432E+02 -0.10270039737E+02  0.17003548780E+02  0.00000000000E+00 0.  1.
          5    1    4    4  501    0  0.30694734307E+02  0.53257982533E+02  0.49341203018E+02  0.78934188618E+02  0.41800000000E+01 0. -1.
         -5    1    4    4    0  501  0.42846844163E+02 -0.42665747348E+02 -0.30366155820E+02  0.67792284744E+02  0.41800000000E+01 0. -1.
</event>
<event>
11    1  0.6455215E-009  0.1554301E+03  0.7561462E-02  0.1091456E+00
         22   -1    0    0    0    0  0.00000000000E+00  0.00000000000E+00  0.22123666635E+04  0.22123666635E+04  0.00000000000E+00 0.  1.
         22   -1    0    0    0    0 -0.00000000000E+00 -0.00000000000E+00 -0.29997368804E+02  0.29997368804E+02  0.00000000000E+00 0.  1.
         24    2    1    2    0    0  0.38238225579E+01  0.49466912790E+02  0.11126196634E+03  0.14571511866E+03  0.79950444477E+02 0.  0.
         25    2    1    2    0    0  0.88306534871E+02 -0.52332765047E+02  0.63189021522E+03  0.65227991053E+03  0.12508826960E+03 0.  0.
        -24    2    1    2    0    0 -0.92130357429E+02  0.28658522573E+01  0.14392171131E+04  0.14443690031E+04  0.79747743212E+02 0.  0.
        -11    1    3    3    0    0 -0.19530652801E+02  0.63469259731E+02  0.72157888587E+02  0.98064031199E+02  0.00000000000E+00 0.  1.
         12    1    3    3    0    0  0.23354475359E+02 -0.14002346942E+02  0.39104077757E+02  0.47651087463E+02  0.00000000000E+00 0. -1.
         11    1    5    5    0    0  0.11965197082E+02  0.12543050353E+02  0.19987258197E+03  0.20062288772E+03  0.00000000000E+00 0. -1.
        -12    1    5    5    0    0 -0.10409555451E+03 -0.96771980959E+01  0.12393445311E+04  0.12437461154E+04  0.00000000000E+00 0.  1.
          5    1    4    4  501    0  0.67367775820E+02 -0.71201202540E+02  0.23893997279E+03  0.25829791222E+03  0.41800000000E+01 0. -1.
         -5    1    4    4    0  501  0.20938759051E+02  0.18868437493E+02  0.39295024243E+03  0.39398199830E+03  0.41800000000E+01 0. -1.
</event>
<event>
11    1  0.6455215E-009  0.1483434E+03  0.7561462E-02  0.1098584E+00
         22   -1    0    0    0    0  0.00000000000E+00  0.00000000000E+00  0.12754708746E+04  0.12754708746E+04  0.00000000000E+00 0.  1.
         22   -1    0    0    0    0 -0.00000000000E+00 -0.00000000000E+00 -0.18531564708E+03  0.18531564708E+03  0.00000000000E+00 0.  1.
        -24    2    1    2    0    0  0.45673170436E+02  0.70371959979E+02 -0.13940755967E+03  0.18093479063E+03  0.79149728482E+02 0.  0.
         25    2    1    2    0    0 -0.37769769642E+02 -0.24589593891E+02  0.16808282121E+03  0.21431698162E+03  0.12509488478E+03 0.  0.
         24    2    1    2    0    0 -0.79034007943E+01 -0.45782366087E+02  0.10614799660E+04  0.10655347494E+04  0.80412034477E+02 0.  0.
        -13    1    5    5    0    0  0.27435507907E+02 -0.46212929960E+02  0.77916241240E+03  0.78101370467E+03  0.00000000000E+00 0.  1.
         14    1    5    5    0    0 -0.35338908701E+02  0.43056387318E+00  0.28231755358E+03  0.28452104477E+03  0.00000000000E+00 0. -1.
         13    1    3    3    0    0  0.15955534263E+02 -0.10524629963E+01  0.53009526549E+01  0.16845974327E+02  0.00000000000E+00 0. -1.
        -14    1    3    3    0    0  0.29717636173E+02  0.71424422975E+02 -0.14470851232E+03  0.16408881630E+03  0.00000000000E+00 0.  1.
          5    1    4    4  501    0  0.23178276273E+02 -0.51578912211E+02  0.38505287677E+02  0.68540106908E+02  0.41800000000E+01 0.  1.
         -5    1    4    4    0  501 -0.60948045915E+02  0.26989318320E+02  0.12957753353E+03  0.14577687471E+03  0.41800000000E+01 0.  1.
</event>
<event>
11    1  0.6455215E-009  0.1474723E+03  0.7561462E-02  0.1099490E+00
         22   -1    0    0    0    0  0.00000000000E+00  0.00000000000E+00  0.19707833094E+03  0.19707833094E+03  0.00000000000E+00 0.  1.
         22   -1    0    0    0    0 -0.00000000000E+00 -0.00000000000E+00 -0.56199266790E+03  0.56199266790E+03  0.00000000000E+00 0.  1.
         24    2    1    2    0    0  0.67631810047E+01  0.12873473193E+02 -0.32644421104E+03  0.33897550212E+03  0.90150436403E+02 0.  0.
         25    2    1    2    0    0  0.70554952264E+02  0.27167305903E+01 -0.18549761406E+03  0.23460937907E+03  0.12508722560E+03 0.  0.
        -24    2    1    2    0    0 -0.77318133269E+02 -0.15590203784E+02  0.14702748815E+03  0.18548611766E+03  0.81036222682E+02 0.  0.
        -11    1    3    3    0    0 -0.83189273322E+01  0.11858338603E+02 -0.32318810037E+03  0.32351255457E+03  0.00000000000E+00 0.  1.
         12    1    3    3    0    0  0.15082108337E+02  0.10151345907E+01 -0.32561106764E+01  0.15462947548E+02  0.00000000000E+00 0. -1.
         11    1    5    5    0    0  0.12268745936E+02 -0.14515606240E+01  0.54647467596E+02  0.56026555041E+02  0.00000000000E+00 0. -1.
        -12    1    5    5    0    0 -0.89586879204E+02 -0.14138643160E+02  0.92380020554E+02  0.12945956262E+03  0.00000000000E+00 0.  1.
          5    1    4    4  501    0  0.65715972700E+02 -0.54858181108E+02 -0.10978083291E+03  0.13927423587E+03  0.41800000000E+01 0.  1.
         -5    1    4    4    0  501  0.48389795641E+01  0.57574911698E+02 -0.75716781150E+02  0.95335143195E+02  0.41800000000E+01 0.  1.
</event>
<event>
11    1  0.6455215E-009  0.2066462E+03  0.7561462E-02  0.1049921E+00
         22   -1    0    0    0    0  0.00000000000E+00  0.00000000000E+00  0.71714769186E+03  0.71714769186E+03  0.00000000000E+00 0. -1.
         22   -1    0    0    0    0 -0.00000000000E+00 -0.00000000000E+00 -0.51739740154E+03  0.51739740154E+03  0.00000000000E+00 0.  1.
         24    2    1    2    0    0  0.67672596413E+02 -0.93465721725E+01 -0.44481571437E+03  0.45681208853E+03  0.78417636774E+02 0.  0.
         25    2    1    2    0    0 -0.19918050003E+03  0.75618978619E+02  0.26274937821E+03  0.36066277341E+03  0.12509715765E+03 0.  0.
        -24    2    1    2    0    0  0.13150790362E+03 -0.66272406447E+02  0.38181662648E+03  0.41707023146E+03  0.80481557779E+02 0.  0.
        -11    1    3    3    0    0  0.54783121362E+02 -0.27579918750E+02 -0.41528454162E+03  0.41978934338E+03  0.00000000000E+00 0.  1.
         12    1    3    3    0    0  0.12889475050E+02  0.18233346578E+02 -0.29531172754E+02  0.37022745154E+02  0.00000000000E+00 0. -1.
         11    1    5    5    0    0  0.12941333169E+03 -0.31775799160E+02  0.30415861203E+03  0.33206922938E+03  0.00000000000E+00 0. -1.
        -12    1    5    5    0    0  0.20945719344E+01 -0.34496607287E+02  0.77658014452E+02  0.85001002080E+02  0.00000000000E+00 0.  1.
          5    1    4    4  501    0 -0.98197405576E+02 -0.39795554637E+00  0.19214172236E+03  0.21582122857E+03  0.41800000000E+01 0.  1.
         -5    1    4    4    0  501 -0.10098309446E+03  0.76016934166E+02  0.70607655852E+02  0.14484154484E+03  0.41800000000E+01 0.  1.
</event>
<event>
11    1  0.6455215E-009  0.2110931E+03  0.7561462E-02  0.1046945E+00
         22   -1    0    0    0    0  0.00000000000E+00  0.00000000000E+00  0.51520555142E+03  0.51520555142E+03  0.00000000000E+00 0. -1.
         22   -1    0    0    0    0 -0.00000000000E+00 -0.00000000000E+00 -0.12877875896E+04  0.12877875896E+04  0.00000000000E+00 0. -1.
         24    2    1    2    0    0 -0.21525706680E+02  0.15423408230E+03 -0.88299473138E+03  0.90024469618E+03  0.80680289842E+02 0.  0.
         25    2    1    2    0    0  0.18386873387E+02 -0.25901978256E+03 -0.33269719381E+03  0.44018648665E+03  0.12508954945E+03 0.  0.
        -24    2    1    2    0    0  0.31388332936E+01  0.10478570027E+03  0.44310988702E+03  0.46256195817E+03  0.81408217754E+02 0.  0.
        -13    1    3    3    0    0 -0.26890257093E+02  0.74089426698E+01 -0.11615930112E+03  0.11946113006E+03  0.00000000000E+00 0.  1.
         14    1    3    3    0    0  0.53645504124E+01  0.14682513963E+03 -0.76683543026E+03  0.78078356613E+03  0.00000000000E+00 0. -1.
         13    1    5    5    0    0 -0.31275882933E+02  0.87741342758E+02  0.34011787558E+03  0.35264272766E+03  0.00000000000E+00 0. -1.
        -14    1    5    5    0    0  0.34414716227E+02  0.17044357508E+02  0.10299201144E+03  0.10991923051E+03  0.00000000000E+00 0.  1.
          5    1    4    4  501    0  0.65449227621E+02 -0.11011971441E+03 -0.11472040263E+03  0.17201219747E+03  0.41800000000E+01 0. -1.
         -5    1    4    4    0  501 -0.47062354234E+02 -0.14890006816E+03 -0.21797679118E+03  0.26817428918E+03  0.41800000000E+01 0. -1.
</event>
<event>
11    1  0.6455215E-009  0.1740688E+03  0.7561462E-02  0.1074544E+00
         22   -1    0    0    0    0  0.00000000000E+00  0.00000000000E+00  0.19760727729E+04  0.19760727729E+04  0.00000000000E+00 0.  1.
         22   -1    0    0    0    0 -0.00000000000E+00 -0.00000000000E+00 -0.29218914801E+02  0.29218914801E+02  0.00000000000E+00 0. -1.
         24    2    1    2    0    0 -0.37406063451E+01 -0.85443452919E+02  0.39671474082E+03  0.41329823519E+03  0.78219370032E+02 0.  0.
         25    2    1    2    0    0  0.12471195972E+01 -0.57342094614E+02  0.28791094183E+03  0.31910973157E+03  0.12509452120E+03 0.  0.
        -24    2    1    2    0    0  0.24934867478E+01  0.14278554753E+03  0.12622281755E+04  0.12728837210E+04  0.81357667551E+02 0.  0.
        -13    1    3    3    0    0 -0.15589961045E+02  0.84391718207E+01  0.10871991478E+03  0.11015573692E+03  0.00000000000E+00 0.  1.
         14    1    3    3    0    0  0.11849354700E+02 -0.93882624740E+02  0.28799482604E+03  0.30314249828E+03  0.00000000000E+00 0. -1.
         11    1    5    5    0    0  0.60975452604E+01  0.21416658610E+02  0.51836941107E+02  0.56417389053E+02  0.00000000000E+00 0. -1.
        -12    1    5    5    0    0 -0.36040585126E+01  0.12136888892E+03  0.12103912344E+04  0.12164663319E+04  0.00000000000E+00 0.  1.
          5    1    4    4  501    0  0.80145279407E+01  0.33509392203E+02  0.14862024259E+03  0.15261900580E+03  0.41800000000E+01 0.  1.
         -5    1    4    4    0  501 -0.67674083434E+01 -0.90851486817E+02  0.13929069924E+03  0.16649072577E+03  0.41800000000E+01 0.  1.
</event>
<event>
11    1  0.6455215E-009  0.1626445E+03  0.7561462E-02  0.1084616E+00
         22   -1    0    0    0    0  0.00000000000E+00  0.00000000000E+00  0.35840411645E+03  0.35840411645E+03  0.00000000000E+00 0.  1.
         22   -1    0    0    0    0 -0.00000000000E+00 -0.00000000000E+00 -0.14260067146E+04  0.14260067146E+04  0.00000000000E+00 0. -1.
        -24    2    1    2    0    0  0.49645159544E+02 -0.90777174788E+02 -0.10865328813E+04  0.10943377114E+04  0.79474443725E+02 0.  0.
         25    2    1    2    0    0 -0.96170925287E+02  0.66817266838E+02 -0.30597765305E+03  0.35068969059E+03  0.12509013110E+03 0.  0.
         24    2    1    2    0    0  0.46525765744E+02  0.23959907950E+02  0.32490793615E+03  0.33938342908E+03  0.82929011155E+02 0.  0.
        -13    1    5    5    0    0  0.87369642028E+01  0.50514092911E+02  0.15192468437E+03  0.16034063068E+03  0.00000000000E+00 0.  1.
         14    1    5    5    0    0  0.37788801541E+02 -0.26554184962E+02  0.17298325178E+03  0.17904279840E+03  0.00000000000E+00 0. -1.
         13    1    3    3    0    0  0.25199515198E+02  0.89038338436E+01 -0.17206519695E+03  0.17412847506E+03  0.00000000000E+00 0. -1.
        -14    1    3    3    0    0  0.24445644346E+02 -0.99681008632E+02 -0.91446768430E+03  0.92020923634E+03  0.00000000000E+00 0.  1.
          5    1    4    4  501    0 -0.11146831701E+03  0.89687324782E+02 -0.26443695575E+03  0.30068817385E+03  0.41800000000E+01 0. -1.
         -5    1    4    4    0  501  0.15297391727E+02 -0.22870057944E+02 -0.41540697302E+02  0.50001516740E+02  0.41800000000E+01 0. -1.
</event>
<event>
11    1  0.6455215E-009  0.2636481E+03  0.7561462E-02  0.1016870E+00
         22   -1    0    0    0    0  0.00000000000E+00  0.00000000000E+00  0.33728329708E+03  0.33728329708E+03  0.00000000000E+00 0.  1.
         22   -1    0    0    0    0 -0.00000000000E+00 -0.00000000000E+00 -0.12163296465E+04  0.12163296465E+04  0.00000000000E+00 0.  1.
        -24    2    1    2    0    0  0.18586003322E+02  0.24343902841E+01 -0.78928703761E+03  0.79373907650E+03  0.81831094672E+02 0.  0.
         25    2    1    2    0    0 -0.24003270567E+03 -0.63226114238E+02 -0.31654006990E+03  0.42125803596E+03  0.12508987049E+03 0.  0.
         24    2    1    2    0    0  0.22144670234E+03  0.60791723953E+02  0.22678075812E+03  0.33861583107E+03  0.10245434651E+03 0.  0.
        -13    1    5    5    0    0  0.10710154864E+03  0.43973259802E+02  0.17981115363E+03  0.21386079647E+03  0.00000000000E+00 0.  1.
         14    1    5    5    0    0  0.11434515371E+03  0.16818464151E+02  0.46969604497E+02  0.12475503461E+03  0.00000000000E+00 0. -1.
         13    1    3    3    0    0  0.44093878812E+02  0.19717922246E+02 -0.34227310816E+03  0.34566450089E+03  0.00000000000E+00 0. -1.
        -14    1    3    3    0    0 -0.25507875491E+02 -0.17283531962E+02 -0.44701392944E+03  0.44807457561E+03  0.00000000000E+00 0.  1.
          5    1    4    4  501    0 -0.24206233428E+03 -0.30063246530E+02 -0.28624955832E+03  0.37610404744E+03  0.41800000000E+01 0. -1.
         -5    1    4    4    0  501  0.20296286114E+01 -0.33162867708E+02 -0.30290511583E+02  0.45153988515E+02  0.41800000000E+01 0. -1.
</event>
<event>
11    1  0.6455215E-009  0.1991985E+03  0.7561462E-02  0.1055092E+00
         22   -1    0    0    0    0  0.00000000000E+00  0.00000000000E+00  0.11648436602E+04  0.11648436602E+04  0.00000000000E+00 0.  1.
         22   -1    0    0    0    0 -0.00000000000E+00 -0.00000000000E+00 -0.57287438368E+03  0.57287438368E+03  0.00000000000E+00 0. -1.
         24    2    1    2    0    0 -0.36619284615E+02  0.28369681269E+02 -0.51085194949E+03  0.51926602521E+03  0.80756918091E+02 0.  0.
         25    2    1    2    0    0 -0.58858868961E+02 -0.15037469892E+03  0.15935867808E+03  0.25907498024E+03  0.12509092923E+03 0.  0.
        -24    2    1    2    0    0  0.95478153576E+02  0.12200501765E+03  0.94346254796E+03  0.95937703846E+03  0.79255412304E+02 0.  0.
        -11    1    3    3    0    0 -0.11470282484E+00 -0.84698208748E+01 -0.33308831385E+01  0.91019670881E+01  0.00000000000E+00 0.  1.
         12    1    3    3    0    0 -0.36504581790E+02  0.36839502143E+02 -0.50752106635E+03  0.51016405812E+03  0.00000000000E+00 0. -1.
         13    1    5    5    0    0  0.74009043076E+02  0.50762638127E+02  0.35234087033E+03  0.36359080406E+03  0.00000000000E+00 0. -1.
        -14    1    5    5    0    0  0.21469110500E+02  0.71242379525E+02  0.59112167763E+03  0.59578623441E+03  0.00000000000E+00 0.  1.
          5    1    4    4  501    0 -0.10585029883E+02 -0.11124138100E+03  0.30427203251E+02  0.11588776813E+03  0.41800000000E+01 0.  1.
         -5    1    4    4    0  501 -0.48273839077E+02 -0.39133317923E+02  0.12893147483E+03  0.14318721211E+03  0.41800000000E+01 0.  1.
</event>
<event>
11    1  0.6455215E-009  0.1599086E+03  0.7561462E-02  0.1087163E+00
         22   -1    0    0    0    0  0.00000000000E+00  0.00000000000E+00  0.25640964993E+04  0.25640964993E+04  0.00000000000E+00 0. -1.
         22   -1    0    0    0    0 -0.00000000000E+00 -0.00000000000E+00 -0.33052994840E+03  0.33052994840E+03  0.00000000000E+00 0.  1.
        -24    2    1    2    0    0 -0.78498585891E+02 -0.33199269692E+02 -0.25437540363E+03  0.27999007598E+03  0.80145974202E+02 0.  0.
         25    2    1    2    0    0  0.74862312076E+02  0.13191346694E+03  0.95083023765E+02  0.21838996893E+03  0.12509144093E+03 0.  0.
         24    2    1    2    0    0  0.36362738151E+01 -0.98714197244E+02  0.23928589308E+04  0.23962464028E+04  0.80406747996E+02 0.  0.
        -13    1    5    5    0    0 -0.39681221863E+01 -0.31075915290E+02  0.20975040479E+03  0.21207708696E+03  0.00000000000E+00 0.  1.
         14    1    5    5    0    0  0.76043960014E+01 -0.67638281954E+02  0.21831085260E+04  0.21841693158E+04  0.00000000000E+00 0. -1.
         13    1    3    3    0    0 -0.82360408624E+01  0.66721838658E+01 -0.13751845440E+03  0.13792634160E+03  0.00000000000E+00 0. -1.
        -14    1    3    3    0    0 -0.70262545029E+02 -0.39871453558E+02 -0.11685694923E+03  0.14206373438E+03  0.00000000000E+00 0.  1.
          5    1    4    4  501    0  0.10771648064E+03  0.77647923081E+02  0.68644061743E+02  0.14953768680E+03  0.41800000000E+01 0.  1.
         -5    1    4    4    0  501 -0.32854168567E+02  0.54265543855E+02  0.26438962022E+02  0.68852282133E+02  0.41800000000E+01 0.  1.
</event>
<event>
11    1  0.6455215E-009  0.2175832E+03  0.7561462E-02  0.1042742E+00
         22   -1    0    0    0    0  0.00000000000E+00  0.00000000000E+00  0.16051934287E+04  0.16051934287E+04  0.00000000000E+00 0.  1.
         22   -1    0    0    0    0 -0.00000000000E+00 -0.00000000000E+00 -0.51552791232E+03  0.51552791232E+03  0.00000000000E+00 0.  1.
         24    2    1    2    0    0  0.12802545823E+03  0.38670835154E+01 -0.45311870553E+03  0.47785561607E+03  0.81387690854E+02 0.  0.
         25    2    1    2    0    0 -0.10471186215E+03 -0.18126399821E+03  0.30891688268E+03  0.39357208329E+03  0.12509249865E+03 0.  0.
        -24    2    1    2    0    0 -0.23313596076E+02  0.17739691469E+03  0.12338673392E+04  0.12492936417E+04  0.79327190744E+02 0.  0.
        -13    1    3    3    0    0  0.66921954933E+02  0.40940252836E+02 -0.27383207087E+03  0.28484847795E+03  0.00000000000E+00 0.  1.
         14    1    3    3    0    0  0.61103503297E+02 -0.37073169321E+02 -0.17928663466E+03  0.19300713812E+03  0.00000000000E+00 0. -1.
         11    1    5    5    0    0 -0.38273132694E+02  0.58420093767E+02  0.31596448251E+03  0.32359124563E+03  0.00000000000E+00 0. -1.
        -12    1    5    5    0    0  0.14959536618E+02  0.11897682092E+03  0.91790285673E+03  0.92570239605E+03  0.00000000000E+00 0.  1.
          5    1    4    4  501    0  0.18655378999E+02 -0.43863360982E+02  0.22769689786E+02  0.52990081857E+02  0.41800000000E+01 0. -1.
         -5    1    4    4    0  501 -0.12336724115E+03 -0.13740063722E+03  0.28614719289E+03  0.34058200143E+03  0.41800000000E+01 0. -1.
</event>
<event>
11    1  0.6455215E-009  0.1377347E+03  0.7561462E-02  0.1110115E+00
         22   -1    0    0    0    0  0.00000000000E+00  0.00000000000E+00  0.92873917062E+03  0.92873917062E+03  0.00000000000E+00 0. -1.
         22   -1    0    0    0    0 -0.00000000000E+00 -0.00000000000E+00 -0.20506543854E+03  0.20506543854E+03  0.00000000000E+00 0. -1.
        -24    2    1    2    0    0 -0.35733372149E+02 -0.33172805910E-01 -0.17144387009E+03  0.19313940603E+03  0.81442952940E+02 0.  0.
         25    2    1    2    0    0 -0.23039490810E+02 -0.22295369876E+02  0.19804635004E+03  0.23642720755E+03  0.12509023162E+03 0.  0.
         24    2    1    2    0    0  0.58772862960E+02  0.22328542682E+02  0.69707125212E+03  0.70423799559E+03  0.78038520346E+02 0.  0.
        -13    1    5    5    0    0  0.34444038254E+02 -0.88674952223E+01  0.10527458432E+03  0.11112048572E+03  0.00000000000E+00 0.  1.
         14    1    5    5    0    0  0.24328824706E+02  0.31196037904E+02  0.59179666781E+03  0.59311750987E+03  0.00000000000E+00 0. -1.
         13    1    3    3    0    0 -0.23703452002E+02 -0.34412736825E+02 -0.13616216862E+03  0.14242972392E+03  0.00000000000E+00 0. -1.
        -14    1    3    3    0    0 -0.12029920147E+02  0.34379564019E+02 -0.35281701473E+02  0.50709682111E+02  0.00000000000E+00 0.  1.
          5    1    4    4  501    0  0.14721191579E+01 -0.69478560536E+02  0.75071138229E+02  0.10238449933E+03  0.41800000000E+01 0.  1.
         -5    1    4    4    0  501 -0.24511609968E+02  0.47183190659E+02  0.12297521181E+03  0.13404270821E+03  0.41800000000E+01 0.  1.
</event>
<event>
11    1  0.6455215E-009  0.2486889E+03  0.7561462E-02  0.1024600E+00
         22   -1    0    0    0    0  0.00000000000E+00  0.00000000000E+00  0.11736360289E+04  0.11736360289E+04  0.00000000000E+00 0.  1.
         22   -1    0    0    0    0 -0.00000000000E+00 -0.00000000000E+00 -0.14999691110E+03  0.14999691110E+03  0.00000000000E+00 0.  1.
        -24    2    1    2    0    0  0.17521896178E+03  0.14426782728E+03  0.19913180135E+01  0.24100384658E+03  0.81018505057E+02 0.  0.
         25    2    1    2    0    0 -0.13544953660E+03 -0.10808472182E+03  0.39361730073E+03  0.44789674941E+03  0.12509210463E+03 0.  0.
         24    2    1    2    0    0 -0.39769425181E+02 -0.36183105464E+02  0.62803049908E+03  0.63473234403E+03  0.74645940840E+02 0.  0.
        -13    1    5    5    0    0  0.15452908245E+02 -0.16567561942E+02  0.34258415575E+03  0.34333246315E+03  0.00000000000E+00 0.  1.
         14    1    5    5    0    0 -0.55222333426E+02 -0.19615543522E+02  0.28544634333E+03  0.29139988088E+03  0.00000000000E+00 0. -1.
         13    1    3    3    0    0  0.29646046778E+02  0.20483439915E+01 -0.20719500096E+02  0.36226806193E+02  0.00000000000E+00 0. -1.
        -14    1    3    3    0    0  0.14557291501E+03  0.14221948329E+03  0.22710818110E+02  0.20477704039E+03  0.00000000000E+00 0.  1.
          5    1    4    4  501    0 -0.14529764854E+03 -0.10223648461E+03  0.39723857653E+03  0.43517773902E+03  0.41800000000E+01 0. -1.
         -5    1    4    4    0  501  0.98481119335E+01 -0.58482372022E+01 -0.36212757925E+01  0.12719010394E+02  0.41800000000E+01 0. -1.
</event>
<event>
11    1  0.6455215E-009  0.1328511E+03  0.7561462E-02  0.1115815E+00
         22   -1    0    0    0    0  0.00000000000E+00  0.00000000000E+00  0.40502013566E+03  0.40502013566E+03  0.00000000000E+00 0.  1.
         22   -1    0    0    0    0 -0.00000000000E+00 -0.00000000000E+00 -0.70151732917E+03  0.70151732917E+03  0.00000000000E+00 0.  1.
         24    2    1    2    0    0 -0.30768421383E+02 -0.32580786896E+02 -0.64990362778E+03  0.65633896694E+03  0.79986940695E+02 0.  0.
         25    2    1    2    0    0  0.54037688799E+02  0.67544938847E+01  0.69714654670E+02  0.15320943261E+03  0.12508917685E+03 0.  0.
        -24    2    1    2    0    0 -0.23269267416E+02  0.25826293011E+02  0.28369177961E+03  0.29698906528E+03  0.80703301444E+02 0.  0.
        -13    1    3    3    0    0 -0.34334159479E+02 -0.30830717227E+02 -0.65066107633E+03  0.65229533487E+03  0.00000000000E+00 0.  1.
         14    1    3    3    0    0  0.35657380955E+01 -0.17500696691E+01  0.75744854927E+00  0.40436320700E+01  0.00000000000E+00 0. -1.
         13    1    5    5    0    0  0.22102768711E+02  0.35129313423E+02  0.12899475748E+03  0.13550737435E+03  0.00000000000E+00 0. -1.
        -14    1    5    5    0    0 -0.45372036127E+02 -0.93030204114E+01  0.15469702213E+03  0.16148169093E+03  0.00000000000E+00 0.  1.
          5    1    4    4  501    0  0.25327594842E+01  0.55483424984E+02  0.30235697248E+01  0.55780280498E+02  0.41800000000E+01 0. -1.
         -5    1    4    4    0  501  0.51504929315E+02 -0.48728931100E+02  0.66691084945E+02  0.97429152111E+02  0.41800000000E+01 0. -1.
</event>
<event>
11    1  0.6455215E-009  0.1398390E+03  0.7561462E-02  0.1107738E+00
         22   -1    0    0    0    0  0.00000000000E+00  0.00000000000E+00  0.86066858531E+03  0.86066858531E+03  0.00000000000E+00 0.  1.
         22   -1    0    0    0    0 -0.00000000000E+00 -0.00000000000E+00 -0.12354406364E+03  0.12354406364E+03  0.00000000000E+00 0.  1.
        -24    2    1    2    0    0  0.68444013769E+01 -0.56415472658E+02 -0.45235264698E+02  0.10867810119E+03  0.80840269171E+02 0.  0.
         25    2    1    2    0    0  0.44126314824E+02  0.88813804639E+02  0.10590551731E+03  0.19156944953E+03  0.12509137397E+03 0.  0.
         24    2    1    2    0    0 -0.50970716201E+02 -0.32398331981E+02  0.67645426906E+03  0.68396509824E+03  0.81056842141E+02 0.  0.
        -13    1    5    5    0    0 -0.62894249737E+02 -0.24816815685E+02  0.65365355066E+03  0.65714117607E+03  0.00000000000E+00 0.  1.
         14    1    5    5    0    0  0.11923533536E+02 -0.75815162961E+01  0.22800718398E+02  0.26823922174E+02  0.00000000000E+00 0. -1.
         11    1    3    3    0    0 -0.17268863772E+02  0.14265859660E+02 -0.22563916075E+01  0.22512656682E+02  0.00000000000E+00 0. -1.
        -12    1    3    3    0    0  0.24113265149E+02 -0.70681332318E+02 -0.42978873090E+02  0.86165444504E+02  0.00000000000E+00 0.  1.
          5    1    4    4  501    0  0.10026899096E+02  0.92613520028E+02  0.15171047749E+02  0.94474525070E+02  0.41800000000E+01 0.  1.
         -5    1    4    4    0  501  0.34099415728E+02 -0.37997153889E+01  0.90734469557E+02  0.97094924460E+02  0.41800000000E+01 0.  1.
</event>
<event>
11    1  0.6455215E-009  0.1838239E+03  0.7561462E-02  0.1066591E+00
         22   -1    0    0    0    0  0.00000000000E+00  0.00000000000E+00  0.31439984350E+04  0.31439984350E+04  0.00000000000E+00 0. -1.
         22   -1    0    0    0    0 -0.00000000000E+00 -0.00000000000E+00 -0.21451690462E+03  0.21451690462E+03  0.00000000000E+00 0.  1.
         24    2    1    2    0    0 -0.43874213963E+02  0.40132705143E+02 -0.96223824718E+02  0.13717039691E+03  0.77595828952E+02 0.  0.
         25    2    1    2    0    0  0.73936840444E+02  0.91792302791E+02 -0.18671512812E+02  0.17288380651E+03  0.12509077478E+03 0.  0.
        -24    2    1    2    0    0 -0.30062626481E+02 -0.13192500793E+03  0.30443768679E+04  0.30484611362E+04  0.81097570289E+02 0.  0.
        -13    1    3    3    0    0  0.29040923328E+01  0.49453252283E+02 -0.41935533112E+02  0.64904906217E+02  0.00000000000E+00 0.  1.
         14    1    3    3    0    0 -0.46778306296E+02 -0.93205471398E+01 -0.54288291607E+02  0.72265490689E+02  0.00000000000E+00 0. -1.
         13    1    5    5    0    0 -0.17994477843E+02 -0.13899871874E+03  0.25174615409E+04  0.25213601597E+04  0.00000000000E+00 0. -1.
        -14    1    5    5    0    0 -0.12068148638E+02  0.70737108075E+01  0.52691532701E+03  0.52710097651E+03  0.00000000000E+00 0.  1.
          5    1    4    4  501    0 -0.20576382128E+02  0.66311390503E+02 -0.26866771136E+02  0.74564628365E+02  0.41800000000E+01 0. -1.
         -5    1    4    4    0  501  0.94513222572E+02  0.25480912288E+02  0.81952583246E+01  0.98319178145E+02  0.41800000000E+01 0. -1.
</event>
<event>
11    1  0.6455215E-009  0.1812419E+03  0.7561462E-02  0.1068643E+00
         22   -1    0    0    0    0  0.00000000000E+00  0.00000000000E+00  0.36511032353E+03  0.36511032353E+03  0.00000000000E+00 0. -1.
         22   -1    0    0    0    0 -0.00000000000E+00 -0.00000000000E+00 -0.21409637320E+04  0.21409637320E+04  0.00000000000E+00 0. -1.
         24    2    1    2    0    0 -0.13128483400E+03 -0.11623004443E+02 -0.20153138681E+04  0.20213319656E+04  0.83199316653E+02 0.  0.
         25    2    1    2    0    0  0.10482110637E+03  0.95272525647E+02 -0.28850540134E+02  0.19116368649E+03  0.12508750090E+03 0.  0.
        -24    2    1    2    0    0  0.26463727625E+02 -0.83649521204E+02  0.26831099980E+03  0.29357840340E+03  0.80622050656E+02 0.  0.
        -13    1    3    3    0    0 -0.44364352974E+02  0.32883328739E+02 -0.92808520757E+03  0.92972665964E+03  0.00000000000E+00 0.  1.
         14    1    3    3    0    0 -0.86920481022E+02 -0.44506333182E+02 -0.10872286605E+04  0.10916053060E+04  0.00000000000E+00 0. -1.
         13    1    5    5    0    0  0.43162562926E+02 -0.86821190960E+02  0.25204848411E+03  0.27005437301E+03  0.00000000000E+00 0. -1.
        -14    1    5    5    0    0 -0.16698835300E+02  0.31716697552E+01  0.16262515691E+02  0.23524030395E+02  0.00000000000E+00 0.  1.
          5    1    4    4  501    0  0.84203101101E+02 -0.29139853697E+01 -0.33198442992E+02  0.90654633433E+02  0.41800000000E+01 0.  1.
         -5    1    4    4    0  501  0.20618005270E+02  0.98186511017E+02  0.43479028576E+01  0.10050905306E+03  0.41800000000E+01 0.  1.
</event>
<event>
11    1  0.6455215E-009  0.1273222E+03  0.7561462E-02  0.1122604E+00
         22   -1    0    0    0    0  0.00000000000E+00  0.00000000000E+00  0.24658559264E+03  0.24658559264E+03  0.00000000000E+00 0.  1.
         22   -1    0    0    0    0 -0.00000000000E+00 -0.00000000000E+00 -0.49492083856E+03  0.49492083856E+03  0.00000000000E+00 0. -1.
         24    2    1    2    0    0 -0.22096864950E+02  0.15837723329E+02 -0.42037463221E+03  0.42875799675E+03  0.79871668625E+02 0.  0.
         25    2    1    2    0    0  0.13292739633E+01  0.24909637704E+01  0.53285891210E+01  0.12524127526E+03  0.12509600831E+03 0.  0.
        -24    2    1    2    0    0  0.20767590986E+02 -0.18328687099E+02  0.16671079717E+03  0.18750715919E+03  0.81235529476E+02 0.  0.
        -11    1    3    3    0    0 -0.30068068803E+01 -0.32308205527E+02 -0.17371344605E+03  0.17671791751E+03  0.00000000000E+00 0.  1.
         12    1    3    3    0    0 -0.19090058069E+02  0.48145928856E+02 -0.24666118616E+03  0.25204007923E+03  0.00000000000E+00 0. -1.
         11    1    5    5    0    0 -0.75684082919E+01 -0.16557656575E+02 -0.19239075691E+00  0.18206422206E+02  0.00000000000E+00 0. -1.
        -12    1    5    5    0    0  0.28335999278E+02 -0.17710305241E+01  0.16690318793E+03  0.16930073699E+03  0.00000000000E+00 0.  1.
          5    1    4    4  501    0 -0.51822686756E+02 -0.31816793001E+02 -0.43382208388E+01  0.61108033347E+02  0.41800000000E+01 0. -1.
         -5    1    4    4    0  501  0.53151960719E+02  0.34307756771E+02  0.96668099598E+01  0.64133241909E+02  0.41800000000E+01 0. -1.
</event>
<event>
11    1  0.6455215E-009  0.1536104E+03  0.7561462E-02  0.1093246E+00
         22   -1    0    0    0    0  0.00000000000E+00  0.00000000000E+00  0.16029526878E+03  0.16029526878E+03  0.00000000000E+00 0.  1.
         22   -1    0    0    0    0 -0.00000000000E+00 -0.00000000000E+00 -0.61092773750E+03  0.61092773750E+03  0.00000000000E+00 0. -1.
         24    2    1    2    0    0 -0.66969592150E+02 -0.47538189671E+02 -0.42161083734E+03  0.43726684148E+03  0.81864441275E+02 0.  0.
         25    2    1    2    0    0  0.10928461627E+03  0.87083155297E+02 -0.10066670045E+03  0.21285423858E+03  0.12508612638E+03 0.  0.
        -24    2    1    2    0    0 -0.42315024115E+02 -0.39544965626E+02  0.71645069069E+02  0.12110192622E+03  0.78602131266E+02 0.  0.
        -11    1    3    3    0    0 -0.10839886428E+02 -0.50404691170E+02 -0.28364455011E+03  0.28829215535E+03  0.00000000000E+00 0.  1.
         12    1    3    3    0    0 -0.56129705722E+02  0.28665014993E+01 -0.13796628724E+03  0.14897468614E+03  0.00000000000E+00 0. -1.
         13    1    5    5    0    0 -0.61417400917E+01 -0.34470023619E+02 -0.57857430681E+01  0.35487720728E+02  0.00000000000E+00 0. -1.
        -14    1    5    5    0    0 -0.36173284023E+02 -0.50749420072E+01  0.77430812137E+02  0.85614205489E+02  0.00000000000E+00 0.  1.
          5    1    4    4  501    0 -0.26170365298E+02  0.41640461647E+01 -0.46727668711E+01  0.27231130174E+02  0.41800000000E+01 0. -1.
         -5    1    4    4    0  501  0.13545498156E+03  0.82919109132E+02 -0.95993933578E+02  0.18562310840E+03  0.41800000000E+01 0. -1.
</event>
<event>
11    1  0.6455215E-009  0.1641114E+03  0.7561462E-02  0.1083273E+00
         22   -1    0    0    0    0  0.00000000000E+00  0.00000000000E+00  0.28015330519E+03  0.28015330519E+03  0.00000000000E+00 0. -1.
         22   -1    0    0    0    0 -0.00000000000E+00 -0.00000000000E+00 -0.22310350905E+04  0.22310350905E+04  0.00000000000E+00 0.  1.
         24    2    1    2    0    0  0.10006822610E+03  0.57572665956E+02 -0.17659232168E+04  0.17716078931E+04  0.82349604004E+02 0.  0.
         25    2    1    2    0    0 -0.84070792198E+02  0.24077589998E+02 -0.43645982773E+03  0.46237673535E+03  0.12508971072E+03 0.  0.
        -24    2    1    2    0    0 -0.15997433897E+02 -0.81650255954E+02  0.25150125931E+03  0.27720376723E+03  0.81647798147E+02 0.  0.
        -13    1    3    3    0    0  0.87442827552E+02  0.48330720432E+02 -0.17234635345E+04  0.17263570492E+04  0.00000000000E+00 0.  1.
         14    1    3    3    0    0  0.12625398543E+02  0.92419455240E+01 -0.42459682386E+02  0.45250843901E+02  0.00000000000E+00 0. -1.
         11    1    5    5    0    0 -0.35659091080E+02 -0.88597800489E+02  0.21258481846E+03  0.23305245347E+03  0.00000000000E+00 0. -1.
        -12    1    5    5    0    0  0.19661657183E+02  0.69475445347E+01  0.38916440855E+02  0.44151313764E+02  0.00000000000E+00 0.  1.
          5    1    4    4  501    0 -0.87233202447E+02 -0.29717356618E+02 -0.33436244397E+03  0.34685511274E+03  0.41800000000E+01 0.  1.
         -5    1    4    4    0  501  0.31624102492E+01  0.53794946616E+02 -0.10209738375E+03  0.11552162261E+03  0.41800000000E+01 0.  1.
</event>
<event>
11    1  0.6455215E-009  0.1502405E+03  0.7561462E-02  0.1096633E+00
         22   -1    0    0    0    0  0.00000000000E+00  0.00000000000E+00  0.10171271389E+04  0.10171271389E+04  0.00000000000E+00 0.  1.
         22   -1    0    0    0    0 -0.00000000000E+00 -0.00000000000E+00 -0.63569101535E+03  0.63569101535E+03  0.00000000000E+00 0. -1.
        -24    2    1    2    0    0  0.54198864264E+02  0.65435231213E+02 -0.58910162969E+03  0.60060287828E+03  0.80397766924E+02 0.  0.
         25    2    1    2    0    0 -0.65864807373E+02  0.24305091148E-01  0.94605292506E+02  0.17011064508E+03  0.12509714928E+03 0.  0.
         24    2    1    2    0    0  0.11665943109E+02 -0.65459536304E+02  0.87593246070E+03  0.88210463085E+03  0.80186401225E+02 0.  0.
        -11    1    5    5    0    0  0.15776116467E+02 -0.57079453733E+02  0.86752106249E+03  0.86953996099E+03  0.00000000000E+00 0.  1.
         12    1    5    5    0    0 -0.41101733582E+01 -0.83800825711E+01  0.84113982042E+01  0.12564669860E+02  0.00000000000E+00 0. -1.
         11    1    3    3    0    0  0.28028624113E+02 -0.13963192419E+01 -0.34576967844E+03  0.34690665027E+03  0.00000000000E+00 0. -1.
        -12    1    3    3    0    0  0.26170240151E+02  0.66831550455E+02 -0.24333195126E+03  0.25369622801E+03  0.00000000000E+00 0.  1.
          5    1    4    4  501    0 -0.74233911723E+02 -0.44346476325E+02  0.30914778518E+02  0.91926489887E+02  0.41800000000E+01 0.  1.
         -5    1    4    4    0  501  0.83691043502E+01  0.44370781416E+02  0.63690513989E+02  0.78184155193E+02  0.41800000000E+01 0.  1.
</event>
<event>
11    1  0.6455215E-009  0.1726430E+03  0.7561462E-02  0.1075754E+00
         22   -1    0    0    0    0  0.00000000000E+00  0.00000000000E+00  0.80674433758E+03  0.80674433758E+03  0.00000000000E+00 0.  1.
         22   -1    0    0    0    0 -0.00000000000E+00 -0.00000000000E+00 -0.44759957227E+03  0.44759957227E+03  0.00000000000E+00 0.  1.
        -24    2    1    2    0    0 -0.18437702849E+02 -0.18940318967E+02 -0.31752927845E+03  0.32912687551E+03  0.82468011607E+02 0.  0.
         25    2    1    2    0    0  0.30504318634E+02  0.13612938911E+03 -0.42411657941E+02  0.19211873091E+03  0.12509649876E+03 0.  0.
         24    2    1    2    0    0 -0.12066615785E+02 -0.11718907014E+03  0.71908570169E+03  0.73309830344E+03  0.80436277534E+02 0.  0.
        -11    1    5    5    0    0 -0.27144854674E+01 -0.42072427598E+02  0.49042536528E+03  0.49223418868E+03  0.00000000000E+00 0.  1.
         12    1    5    5    0    0 -0.93521303178E+01 -0.75116642543E+02  0.22866033641E+03  0.24086411476E+03  0.00000000000E+00 0. -1.
         13    1    3    3    0    0  0.21263113150E+01 -0.24329538367E+02 -0.22110570071E+02  0.32944270303E+02  0.00000000000E+00 0. -1.
        -14    1    3    3    0    0 -0.20564014164E+02  0.53892194004E+01 -0.29541870838E+03  0.29618260520E+03  0.00000000000E+00 0.  1.
          5    1    4    4  501    0  0.60584616545E+02  0.10626388741E+03  0.12043682595E+02  0.12298386976E+03  0.41800000000E+01 0.  1.
         -5    1    4    4    0  501 -0.30080297911E+02  0.29865501697E+02 -0.54455340536E+02  0.69134861155E+02  0.41800000000E+01 0.  1.
</event>
<event>
11    1  0.6455215E-009  0.1403255E+03  0.7561462E-02  0.1107195E+00
         22   -1    0    0    0    0  0.00000000000E+00  0.00000000000E+00  0.94925632634E+02  0.94925632634E+02  0.00000000000E+00 0. -1.
         22   -1    0    0    0    0 -0.00000000000E+00 -0.00000000000E+00 -0.37862587266E+04  0.37862587266E+04  0.00000000000E+00 0. -1.
         24    2    1    2    0    0  0.64539045425E+02 -0.42361285725E+01 -0.35434458767E+04  0.35449879871E+04  0.82145689585E+02 0.  0.
         25    2    1    2    0    0 -0.35163800538E+02  0.53784031335E+01 -0.19707064020E+03  0.23612010562E+03  0.12510174643E+03 0.  0.
        -24    2    1    2    0    0 -0.29375244886E+02 -0.11422745610E+01  0.49183422992E+02  0.10007626647E+03  0.82049011023E+02 0.  0.
        -13    1    3    3    0    0  0.10540632023E+02 -0.12146495921E+01 -0.49538228950E+02  0.50661784657E+02  0.00000000000E+00 0.  1.
         14    1    3    3    0    0  0.53998413402E+02 -0.30214789804E+01 -0.34939076478E+04  0.34943262025E+04  0.00000000000E+00 0. -1.
         11    1    5    5    0    0  0.14880281750E+01  0.13310752965E+02  0.62177188958E+02  0.63603405562E+02  0.00000000000E+00 0. -1.
        -12    1    5    5    0    0 -0.30863273061E+02 -0.14453027526E+02 -0.12993765966E+02  0.36472860907E+02  0.00000000000E+00 0.  1.
          5    1    4    4  501    0  0.27954195928E+02 -0.22573048368E+02 -0.11302985166E+02  0.37897354212E+02  0.41800000000E+01 0. -1.
         -5    1    4    4    0  501 -0.63117996467E+02  0.27951451502E+02 -0.18576765503E+03  0.19822275141E+03  0.41800000000E+01 0. -1.
</event>
<event>
11    1  0.6455215E-009  0.1355483E+03  0.7561462E-02  0.1112634E+00
         22   -1    0    0    0    0  0.00000000000E+00  0.00000000000E+00  0.11335166002E+04  0.11335166002E+04  0.00000000000E+00 0. -1.
         22   -1    0    0    0    0 -0.00000000000E+00 -0.00000000000E+00 -0.81838369438E+03  0.81838369438E+03  0.00000000000E+00 0. -1.
         24    2    1    2    0    0 -0.18266515830E+01 -0.54916345488E+02 -0.53314511605E+03  0.54197827101E+03  0.80483475493E+02 0.  0.
         25    2    1    2    0    0  0.31588792864E+02  0.39283406852E+02 -0.26337550911E+03  0.29589503599E+03  0.12508467387E+03 0.  0.
        -24    2    1    2    0    0 -0.29762141281E+02  0.15632938637E+02  0.11116535310E+04  0.11140269876E+04  0.64438981304E+02 0.  0.
        -13    1    3    3    0    0 -0.13970463199E+02 -0.52485170016E+01 -0.14463451975E+02  0.20782497822E+02  0.00000000000E+00 0.  1.
         14    1    3    3    0    0  0.12143811616E+02 -0.49667828487E+02 -0.51868166407E+03  0.52119577319E+03  0.00000000000E+00 0. -1.
         13    1    5    5    0    0 -0.40241228778E+02  0.11333015033E+02  0.10712577457E+04  0.10720732025E+04  0.00000000000E+00 0. -1.
        -14    1    5    5    0    0  0.10479087497E+02  0.42999236034E+01  0.40395785287E+02  0.41953785130E+02  0.00000000000E+00 0.  1.
          5    1    4    4  501    0  0.61555990545E+01  0.82370505028E+02 -0.18727025992E+03  0.20472033155E+03  0.41800000000E+01 0.  1.
         -5    1    4    4    0  501  0.25433193809E+02 -0.43087098176E+02 -0.76105249189E+02  0.91174704445E+02  0.41800000000E+01 0.  1.
</event>
<event>
11    1  0.6455215E-009  0.1567857E+03  0.7561462E-02  0.1090140E+00
         22   -1    0    0    0    0  0.00000000000E+00  0.00000000000E+00  0.96145142944E+03  0.96145142944E+03  0.00000000000E+00 0. -1.
         22   -1    0    0    0    0 -0.00000000000E+00 -0.00000000000E+00 -0.12675280038E+03  0.12675280038E+03  0.00000000000E+00 0.  1.
        -24    2    1    2    0    0  0.82582761555E+02 -0.44217181345E+02 -0.68072459768E+02  0.14103911831E+03  0.80517709130E+02 0.  0.
         25    2    1    2    0    0 -0.90492608904E+02  0.47909431007E+02  0.31713101783E+03  0.35595301874E+03  0.12508494408E+03 0.  0.
         24    2    1    2    0    0  0.79098473491E+01 -0.36922496620E+01  0.58564007100E+03  0.59121209278E+03  0.80506195362E+02 0.  0.
        -13    1    5    5    0    0 -0.22501325375E+02 -0.78780397966E+01  0.58395589011E+02  0.63074701510E+02  0.00000000000E+00 0.  1.
         14    1    5    5    0    0  0.30411172725E+02  0.41857901346E+01  0.52724448199E+03  0.52813739127E+03  0.00000000000E+00 0. -1.
         13    1    3    3    0    0  0.37119548110E+01 -0.43243698529E+02 -0.33924258299E+02  0.55087669874E+02  0.00000000000E+00 0. -1.
        -14    1    3    3    0    0  0.78870806744E+02 -0.97348281604E+00 -0.34148201469E+02  0.85951448439E+02  0.00000000000E+00 0.  1.
          5    1    4    4  501    0  0.19629083450E+02  0.28422433679E+02  0.24225940287E+02  0.42396983809E+02  0.41800000000E+01 0. -1.
         -5    1    4    4    0  501 -0.11012169235E+03  0.19486997328E+02  0.29290507754E+03  0.31355603493E+03  0.41800000000E+01 0. -1.
</event>
<event>
11    1  0.6455215E-009  0.1338791E+03  0.7561462E-02  0.1114593E+00
         22   -1    0    0    0    0  0.00000000000E+00  0.00000000000E+00  0.15813772574E+04  0.15813772574E+04  0.00000000000E+00 0.  1.
         22   -1    0    0    0    0 -0.00000000000E+00 -0.00000000000E+00 -0.25238590972E+03  0.25238590972E+03  0.00000000000E+00 0.  1.
         24    2    1    2    0    0 -0.12314032188E+02 -0.45445272674E+02 -0.21517542883E+03  0.23424211796E+03  0.79699413149E+02 0.  0.
         25    2    1    2    0    0  0.11210170430E+02  0.59278095805E+02  0.15521030592E+03  0.20826596432E+03  0.12507962372E+03 0.  0.
        -24    2    1    2    0    0  0.11038617575E+01 -0.13832823131E+02  0.13889564706E+04  0.13912550848E+04  0.78727811966E+02 0.  0.
        -13    1    3    3    0    0  0.11592305893E+01 -0.34138266280E+02 -0.21389630977E+03  0.21660654739E+03  0.00000000000E+00 0.  1.
         14    1    3    3    0    0 -0.13473262777E+02 -0.11307006394E+02 -0.12791190550E+01  0.17635570561E+02  0.00000000000E+00 0. -1.
         13    1    5    5    0    0 -0.12915470567E+02  0.20044279600E+02  0.16146553639E+03  0.16321673311E+03  0.00000000000E+00 0. -1.
        -14    1    5    5    0    0  0.14019332324E+02 -0.33877102731E+02  0.12274909342E+04  0.12280383517E+04  0.00000000000E+00 0.  1.
          5    1    4    4  501    0  0.72534942213E+01 -0.32205321148E+02  0.89490014452E+02  0.95476337254E+02  0.41800000000E+01 0. -1.
         -5    1    4    4    0  501  0.39566762090E+01  0.91483416954E+02  0.65720291464E+02  0.11278962707E+03  0.41800000000E+01 0. -1.
</event>
<event>
11    1  0.6455215E-009  0.3914657E+03  0.7561462E-02  0.9675280E-01
         22   -1    0    0    0    0  0.00000000000E+00  0.00000000000E+00  0.84323717613E+03  0.84323717613E+03  0.00000000000E+00 0. -1.
         22   -1    0    0    0    0 -0.00000000000E+00 -0.00000000000E+00 -0.90372501066E+03  0.90372501066E+03  0.00000000000E+00 0. -1.
         24    2    1    2    0    0  0.84473139242E+02 -0.34373995816E+01 -0.39222560116E+03  0.40915617975E+03  0.80126963330E+02 0.  0.
         25    2    1    2    0    0 -0.11283900998E+03  0.37225141888E+03 -0.36303133524E+03  0.54657498966E+03  0.12509479573E+03 0.  0.
        -24    2    1    2    0    0  0.28365870739E+02 -0.36881401930E+03  0.69476910187E+03  0.79123101739E+03  0.80709444902E+02 0.  0.
        -13    1    3    3    0    0 -0.90963497837E+01  0.53609506334E+01 -0.70869061934E+01  0.12716430729E+02  0.00000000000E+00 0.  1.
         14    1    3    3    0    0  0.93569489026E+02 -0.87983502150E+01 -0.38513869497E+03  0.39643974902E+03  0.00000000000E+00 0. -1.
         13    1    5    5    0    0  0.56685405715E+02 -0.23792278475E+03  0.44003380690E+03  0.50343841524E+03  0.00000000000E+00 0. -1.
        -14    1    5    5    0    0 -0.28319534976E+02 -0.13089123455E+03  0.25473529497E+03  0.28779260214E+03  0.00000000000E+00 0.  1.
          5    1    4    4  501    0 -0.10512844010E+03  0.37548204789E+03 -0.32563990501E+03  0.50803304749E+03  0.41800000000E+01 0.  1.
         -5    1    4    4    0  501 -0.77105698811E+01 -0.32306290051E+01 -0.37391430230E+02  0.38541942171E+02  0.41800000000E+01 0.  1.
</event>
<event>
11    1  0.6455215E-009  0.1531717E+03  0.7561462E-02  0.1093681E+00
         22   -1    0    0    0    0  0.00000000000E+00  0.00000000000E+00  0.12463096588E+03  0.12463096588E+03  0.00000000000E+00 0. -1.
         22   -1    0    0    0    0 -0.00000000000E+00 -0.00000000000E+00 -0.24756219145E+04  0.24756219145E+04  0.00000000000E+00 0.  1.
        -24    2    1    2    0    0  0.82728027066E+02 -0.40243679771E+01 -0.12651682626E+04  0.12703468179E+04  0.79184486570E+02 0.  0.
         25    2    1    2    0    0 -0.99165253089E+02  0.15243584250E+02 -0.11874427092E+04  0.11982212285E+04  0.12509120881E+03 0.  0.
         24    2    1    2    0    0  0.16437226023E+02 -0.11219216273E+02  0.10162002324E+03  0.13168483398E+03  0.81352401086E+02 0.  0.
        -11    1    5    5    0    0  0.21963586230E+02  0.30289512561E+02  0.27074710033E+02  0.46183261195E+02  0.00000000000E+00 0.  1.
         12    1    5    5    0    0 -0.55263602070E+01 -0.41508728834E+02  0.74545313209E+02  0.85501572780E+02  0.00000000000E+00 0. -1.
         13    1    3    3    0    0  0.69483262422E+02 -0.24247695462E+02 -0.56645715035E+03  0.57121762724E+03  0.00000000000E+00 0. -1.
        -14    1    3    3    0    0  0.13244764643E+02  0.20223327485E+02 -0.69871111228E+03  0.69912919063E+03  0.00000000000E+00 0.  1.
          5    1    4    4  501    0  0.28687018084E+02 -0.32146971788E+01 -0.15502712473E+03  0.15774714288E+03  0.41800000000E+01 0. -1.
         -5    1    4    4    0  501 -0.12785227117E+03  0.18458281429E+02 -0.10324155844E+04  0.10404740856E+04  0.41800000000E+01 0. -1.
</event>
<event>
11    1  0.6455215E-009  0.1354875E+03  0.7561462E-02  0.1112705E+00
         22   -1    0    0    0    0  0.00000000000E+00  0.00000000000E+00  0.11019972853E+04  0.11019972853E+04  0.00000000000E+00 0. -1.
         22   -1    0    0    0    0 -0.00000000000E+00 -0.00000000000E+00 -0.10468502594E+03  0.10468502594E+03  0.00000000000E+00 0. -1.
        -24    2    1    2    0    0 -0.20381166953E+02  0.48681331074E+02 -0.64926019964E+02  0.11903829639E+03  0.84672687324E+02 0.  0.
         25    2    1    2    0    0 -0.30239228895E+02 -0.49458578340E+02  0.63629338200E+03  0.65105871278E+03  0.12509043759E+03 0.  0.
         24    2    1    2    0    0  0.50620395848E+02  0.77724726627E+00  0.42594489734E+03  0.43658530207E+03  0.81330448333E+02 0.  0.
        -11    1    5    5    0    0 -0.65785909701E+01  0.30518943669E+02  0.14899020123E+03  0.15222602880E+03  0.00000000000E+00 0.  1.
         12    1    5    5    0    0  0.57198986818E+02 -0.29741696403E+02  0.27695469611E+03  0.28435927327E+03  0.00000000000E+00 0. -1.
         13    1    3    3    0    0 -0.59933480601E+01  0.66209109333E+02 -0.21193856203E+02  0.69776399452E+02  0.00000000000E+00 0. -1.
        -14    1    3    3    0    0 -0.14387818893E+02 -0.17527778259E+02 -0.43732163761E+02  0.49261896943E+02  0.00000000000E+00 0.  1.
          5    1    4    4  501    0 -0.47151952671E+02  0.24435250919E+02  0.15704565029E+03  0.16583484797E+03  0.41800000000E+01 0. -1.
         -5    1    4    4    0  501  0.16912723777E+02 -0.73893829259E+02  0.47924773171E+03  0.48522386481E+03  0.41800000000E+01 0. -1.
</event>
<event>
11    1  0.6455215E-009  0.1356153E+03  0.7561462E-02  0.1112556E+00
         22   -1    0    0    0    0  0.00000000000E+00  0.00000000000E+00  0.49239897178E+03  0.49239897178E+03  0.00000000000E+00 0. -1.
         22   -1    0    0    0    0 -0.00000000000E+00 -0.00000000000E+00 -0.44102432640E+03  0.44102432640E+03  0.00000000000E+00 0.  1.
        -24    2    1    2    0    0 -0.50257531403E+02  0.18155994696E+02 -0.38499936623E+03  0.39705263195E+03  0.81060600409E+02 0.  0.
         25    2    1    2    0    0  0.10829339206E+01 -0.46479269302E+02  0.59656219542E+02  0.14617530804E+03  0.12508741316E+03 0.  0.
         24    2    1    2    0    0  0.49174597483E+02  0.28323274606E+02  0.37671779207E+03  0.39019535818E+03  0.84355045864E+02 0.  0.
        -13    1    5    5    0    0  0.60477501416E+02  0.34628314733E+02  0.17950431001E+03  0.19255764246E+03  0.00000000000E+00 0.  1.
         14    1    5    5    0    0 -0.11302903933E+02 -0.63050401264E+01  0.19721348207E+03  0.19763771573E+03  0.00000000000E+00 0. -1.
         13    1    3    3    0    0  0.18471698075E+02  0.21405378467E+02 -0.11466439452E+03  0.11809876048E+03  0.00000000000E+00 0. -1.
        -14    1    3    3    0    0 -0.68729229478E+02 -0.32493837706E+01 -0.27033497171E+03  0.27895387147E+03  0.00000000000E+00 0.  1.
          5    1    4    4  501    0  0.14561692629E+02 -0.25019480569E+02  0.96740428614E+02  0.10106532654E+03  0.41800000000E+01 0.  1.
         -5    1    4    4    0  501 -0.13478758709E+02 -0.21459788733E+02 -0.37084209072E+02  0.45109981504E+02  0.41800000000E+01 0.  1.
</event>
<event>
11    1  0.6455215E-009  0.1340563E+03  0.7561462E-02  0.1114383E+00
         22   -1    0    0    0    0  0.00000000000E+00  0.00000000000E+00  0.91090651643E+02  0.91090651643E+02  0.00000000000E+00 0.  1.
         22   -1    0    0    0    0 -0.00000000000E+00 -0.00000000000E+00 -0.73177198912E+03  0.73177198912E+03  0.00000000000E+00 0.  1.
        -24    2    1    2    0    0 -0.89609735012E+01  0.37955113529E+02 -0.41735078612E+03  0.42630393368E+03  0.77669012547E+02 0.  0.
         25    2    1    2    0    0 -0.24667130944E+02 -0.69671943025E+02 -0.26136265526E+03  0.29903200516E+03  0.12508819112E+03 0.  0.
         24    2    1    2    0    0  0.33628104445E+02  0.31716829496E+02  0.38032103900E+02  0.97526701913E+02  0.76994869811E+02 0.  0.
        -13    1    5    5    0    0 -0.16327315190E+02  0.33682655154E+02  0.27468784367E+02  0.46428833650E+02  0.00000000000E+00 0.  1.
         14    1    5    5    0    0  0.49955419635E+02 -0.19658256580E+01  0.10563319534E+02  0.51097868263E+02  0.00000000000E+00 0. -1.
         11    1    3    3    0    0  0.15559419939E+02  0.79641875563E+01 -0.18042152105E+02  0.25120570950E+02  0.00000000000E+00 0. -1.
        -12    1    3    3    0    0 -0.24520393441E+02  0.29990925973E+02 -0.39930863401E+03  0.40118336273E+03  0.00000000000E+00 0.  1.
          5    1    4    4  501    0 -0.38740696819E+02 -0.22929553063E+02 -0.24226519767E+03  0.24644777215E+03  0.41800000000E+01 0. -1.
         -5    1    4    4    0  501  0.14073565875E+02 -0.46742389961E+02 -0.19097457582E+02  0.52584233015E+02  0.41800000000E+01 0. -1.
</event>
<event>
11    1  0.6455215E-009  0.2076035E+03  0.7561462E-02  0.1049273E+00
         22   -1    0    0    0    0  0.00000000000E+00  0.00000000000E+00  0.22552683596E+04  0.22552683596E+04  0.00000000000E+00 0. -1.
         22   -1    0    0    0    0 -0.00000000000E+00 -0.00000000000E+00 -0.14612256427E+04  0.14612256427E+04  0.00000000000E+00 0. -1.
         24    2    1    2    0    0 -0.52330552353E+02 -0.12523774883E+03 -0.65412300000E+03  0.67295969901E+03  0.81085614786E+02 0.  0.
         25    2    1    2    0    0  0.21526451243E+03  0.95962153701E+02 -0.77152592108E+03  0.81636297500E+03  0.12509482324E+03 0.  0.
        -24    2    1    2    0    0 -0.16293396007E+03  0.29275595126E+02  0.22196916380E+04  0.22271713283E+04  0.76528569125E+02 0.  0.
        -11    1    3    3    0    0 -0.31272678702E+02 -0.75367155174E+01 -0.23232691398E+03  0.23454333815E+03  0.00000000000E+00 0.  1.
         12    1    3    3    0    0 -0.21057873651E+02 -0.11770103331E+03 -0.42179608603E+03  0.43841636086E+03  0.00000000000E+00 0. -1.
         13    1    5    5    0    0 -0.14094187821E+03  0.52457290290E+02  0.18470740543E+04  0.18531861597E+04  0.00000000000E+00 0. -1.
        -14    1    5    5    0    0 -0.21992081859E+02 -0.23181695164E+02  0.37261758369E+03  0.37398516860E+03  0.00000000000E+00 0.  1.
          5    1    4    4  501    0  0.10362897649E+03  0.46183501115E+02 -0.56538913589E+03  0.57667514939E+03  0.41800000000E+01 0.  1.
         -5    1    4    4    0  501  0.11163553594E+03  0.49778652586E+02 -0.20613678519E+03  0.23968782561E+03  0.41800000000E+01 0.  1.
</event>
<event>
11    1  0.6455215E-009  0.1583249E+03  0.7561462E-02  0.1088663E+00
         22   -1    0    0    0    0  0.00000000000E+00  0.00000000000E+00  0.11081618669E+03  0.11081618669E+03  0.00000000000E+00 0.  1.
         22   -1    0    0    0    0 -0.00000000000E+00 -0.00000000000E+00 -0.21742411764E+04  0.21742411764E+04  0.00000000000E+00 0.  1.
         24    2    1    2    0    0  0.21855342200E+02 -0.93120773410E+02 -0.19708920640E+04  0.19747958479E+04  0.79082099524E+02 0.  0.
         25    2    1    2    0    0 -0.32705789798E+02  0.13043477876E+03 -0.11544110902E+03  0.21691035480E+03  0.12506219321E+03 0.  0.
        -24    2    1    2    0    0  0.10850447598E+02 -0.37314005350E+02  0.22908183345E+02  0.93351160365E+02  0.81728740776E+02 0.  0.
        -13    1    3    3    0    0  0.44445405778E+02 -0.61558811125E+02 -0.16170232548E+04  0.16188048332E+04  0.00000000000E+00 0.  1.
         14    1    3    3    0    0 -0.22590063578E+02 -0.31561962285E+02 -0.35386880926E+03  0.35599101477E+03  0.00000000000E+00 0. -1.
         11    1    5    5    0    0 -0.33217459973E+02 -0.21286319901E+02 -0.33729005617E+01  0.39596508939E+02  0.00000000000E+00 0. -1.
        -12    1    5    5    0    0  0.44067907571E+02 -0.16027685450E+02  0.26281083907E+02  0.53754651426E+02  0.00000000000E+00 0.  1.
          5    1    4    4  501    0  0.37109924356E+01 -0.22846614209E+02 -0.39295183329E+01  0.23846441244E+02  0.41800000000E+01 0.  1.
         -5    1    4    4    0  501 -0.36416782234E+02  0.15328139297E+03 -0.11151159069E+03  0.19306391355E+03  0.41800000000E+01 0.  1.
</event>
<event>
11    1  0.6455215E-009  0.1307748E+03  0.7561462E-02  0.1118321E+00
         22   -1    0    0    0    0  0.00000000000E+00  0.00000000000E+00  0.30810630572E+03  0.30810630572E+03  0.00000000000E+00 0. -1.
         22   -1    0    0    0    0 -0.00000000000E+00 -0.00000000000E+00 -0.35256050700E+03  0.35256050700E+03  0.00000000000E+00 0. -1.
        -24    2    1    2    0    0  0.99307435365E+01  0.35660200663E+02 -0.16338504793E+03  0.18562852846E+03  0.79956282508E+02 0.  0.
         25    2    1    2    0    0 -0.46507971433E+02 -0.23391009651E+02 -0.14419705599E+03  0.19786469795E+03  0.12509003557E+03 0.  0.
         24    2    1    2    0    0  0.36577227897E+02 -0.12269191012E+02  0.26312790264E+03  0.27717358632E+03  0.78105551376E+02 0.  0.
        -13    1    5    5    0    0  0.49364907771E+02  0.19212395063E+02  0.16846066769E+03  0.17659277110E+03  0.00000000000E+00 0.  1.
         14    1    5    5    0    0 -0.12787679875E+02 -0.31481586075E+02  0.94667234945E+02  0.10058081522E+03  0.00000000000E+00 0. -1.
         11    1    3    3    0    0  0.15480883414E+02 -0.12645949307E+02 -0.11608526766E+03  0.11779374836E+03  0.00000000000E+00 0. -1.
        -12    1    3    3    0    0 -0.55501398771E+01  0.48306149970E+02 -0.47299780270E+02  0.67834780100E+02  0.00000000000E+00 0.  1.
          5    1    4    4  501    0  0.24403310092E+02  0.34691062770E+02 -0.57959410479E+02  0.71942734467E+02  0.41800000000E+01 0. -1.
         -5    1    4    4    0  501 -0.70911281525E+02 -0.58082072421E+02 -0.86237645507E+02  0.12592196348E+03  0.41800000000E+01 0. -1.
</event>
<event>
11    1  0.6455215E-009  0.1462296E+03  0.7561462E-02  0.1100795E+00
         22   -1    0    0    0    0  0.00000000000E+00  0.00000000000E+00  0.45279906885E+03  0.45279906885E+03  0.00000000000E+00 0.  1.
         22   -1    0    0    0    0 -0.00000000000E+00 -0.00000000000E+00 -0.13902841621E+04  0.13902841621E+04  0.00000000000E+00 0.  1.
        -24    2    1    2    0    0 -0.10522044918E+02  0.41175636887E+02 -0.10869072650E+04  0.10906998637E+04  0.80328347677E+02 0.  0.
         25    2    1    2    0    0 -0.61003131808E+02 -0.14592944394E+02 -0.27777754046E+03  0.31103216966E+03  0.12508522081E+03 0.  0.
         24    2    1    2    0    0  0.71525176726E+02 -0.26582692492E+02  0.42719971223E+03  0.44135119757E+03  0.80428819604E+02 0.  0.
        -11    1    5    5    0    0  0.43851576956E+02 -0.30917454213E+02  0.39519128745E+03  0.39881700497E+03  0.00000000000E+00 0.  1.
         12    1    5    5    0    0  0.27673599770E+02  0.43347617205E+01  0.32008424779E+02  0.42534192601E+02  0.00000000000E+00 0. -1.
         13    1    3    3    0    0  0.20691646801E+02  0.37452161411E+02 -0.28669197380E+03  0.28986737741E+03  0.00000000000E+00 0. -1.
        -14    1    3    3    0    0 -0.31213691719E+02  0.37234754760E+01 -0.80021529121E+03  0.80083248630E+03  0.00000000000E+00 0.  1.
          5    1    4    4  501    0  0.31861099722E+02  0.16426441576E+02 -0.40121879999E+02  0.53964759918E+02  0.41800000000E+01 0. -1.
         -5    1    4    4    0  501 -0.92864231530E+02 -0.31019385970E+02 -0.23765566046E+03  0.25706740974E+03  0.41800000000E+01 0. -1.
</event>
<event>
11    1  0.6455215E-009  0.1572143E+03  0.7561462E-02  0.1089727E+00
         22   -1    0    0    0    0  0.00000000000E+00  0.00000000000E+00  0.93428673022E+03  0.93428673022E+03  0.00000000000E+00 0. -1.
         22   -1    0    0    0    0 -0.00000000000E+00 -0.00000000000E+00 -0.28510936924E+03  0.28510936924E+03  0.00000000000E+00 0.  1.
         24    2    1    2    0    0  0.64294927274E+01 -0.85850665747E+00 -0.24556622523E+03  0.26000042118E+03  0.85178475156E+02 0.  0.
         25    2    1    2    0    0 -0.71516604074E+02  0.69198744296E+02  0.21124140161E+03  0.26490028588E+03  0.12508453474E+03 0.  0.
        -24    2    1    2    0    0  0.65087111347E+02 -0.68340237639E+02  0.68350218459E+03  0.69449539240E+03  0.79005655349E+02 0.  0.
        -11    1    3    3    0    0 -0.19944317288E+02  0.36585339903E+01 -0.22586192008E+03  0.22677029701E+03  0.00000000000E+00 0.  1.
         12    1    3    3    0    0  0.26373810015E+02 -0.45170406478E+01 -0.19704305146E+02  0.33230124168E+02  0.00000000000E+00 0. -1.
         13    1    5    5    0    0  0.37657384324E+02 -0.46987586912E+02  0.61237559051E+03  0.61532899800E+03  0.00000000000E+00 0. -1.
        -14    1    5    5    0    0  0.27429727023E+02 -0.21352650726E+02  0.71126594081E+02  0.79166394405E+02  0.00000000000E+00 0.  1.
          5    1    4    4  501    0  0.16386655252E+02  0.36145900579E+02  0.14372349124E+03  0.14916086260E+03  0.41800000000E+01 0. -1.
         -5    1    4    4    0  501 -0.87903259326E+02  0.33052843717E+02  0.67517910376E+02  0.11573942327E+03  0.41800000000E+01 0. -1.
</event>
<event>
11    1  0.6455215E-009  0.2400856E+03  0.7561462E-02  0.1029317E+00
         22   -1    0    0    0    0  0.00000000000E+00  0.00000000000E+00  0.74389204884E+03  0.74389204884E+03  0.00000000000E+00 0.  1.
         22   -1    0    0    0    0 -0.00000000000E+00 -0.00000000000E+00 -0.12444241115E+04  0.12444241115E+04  0.00000000000E+00 0. -1.
         24    2    1    2    0    0  0.14453625366E+03  0.17859790703E+02 -0.67243658924E+03  0.69266031875E+03  0.79985310388E+02 0.  0.
         25    2    1    2    0    0 -0.22355034181E+03  0.16983371011E+03 -0.50105272705E+03  0.58780922514E+03  0.12509038915E+03 0.  0.
        -24    2    1    2    0    0  0.79014088146E+02 -0.18769350082E+03  0.67295725366E+03  0.70784661642E+03  0.81873626715E+02 0.  0.
        -11    1    3    3    0    0 -0.40050530733E+01  0.15607737781E+02 -0.42728110664E+02  0.45665450504E+02  0.00000000000E+00 0.  1.
         12    1    3    3    0    0  0.14854130674E+03  0.22520529212E+01 -0.62970847858E+03  0.64699486825E+03  0.00000000000E+00 0. -1.
         11    1    5    5    0    0 -0.14689923061E+02 -0.54309702773E+02  0.15917679503E+03  0.16882710011E+03  0.00000000000E+00 0. -1.
        -12    1    5    5    0    0  0.93704011207E+02 -0.13338379804E+03  0.51378045863E+03  0.53901951632E+03  0.00000000000E+00 0.  1.
          5    1    4    4  501    0 -0.15106770617E+03  0.10610050106E+03 -0.20265729895E+03  0.27416458814E+03  0.41800000000E+01 0.  1.
         -5    1    4    4    0  501 -0.72482635640E+02  0.63733209052E+02 -0.29839542810E+03  0.31364463700E+03  0.41800000000E+01 0.  1.
</event>
<event>
11    1  0.6455215E-009  0.1677432E+03  0.7561462E-02  0.1080013E+00
         22   -1    0    0    0    0  0.00000000000E+00  0.00000000000E+00  0.30091725592E+03  0.30091725592E+03  0.00000000000E+00 0.  1.
         22   -1    0    0    0    0 -0.00000000000E+00 -0.00000000000E+00 -0.22236249513E+03  0.22236249513E+03  0.00000000000E+00 0. -1.
         24    2    1    2    0    0  0.57365469280E+02  0.34670324206E+02 -0.85656019674E+02  0.13510279112E+03  0.80143508879E+02 0.  0.
         25    2    1    2    0    0 -0.15077514149E+03  0.71333779437E+01  0.24612661952E+02  0.19759014811E+03  0.12510817370E+03 0.  0.
        -24    2    1    2    0    0  0.93409672211E+02 -0.41803702150E+02  0.13959811852E+03  0.19058681182E+03  0.79767046902E+02 0.  0.
        -11    1    3    3    0    0 -0.16524775843E+02  0.15706176714E+02 -0.40441756272E+02  0.46425077856E+02  0.00000000000E+00 0.  1.
         12    1    3    3    0    0  0.73890245123E+02  0.18964147492E+02 -0.45214263402E+02  0.88677713262E+02  0.00000000000E+00 0. -1.
         13    1    5    5    0    0  0.42647967880E+02 -0.60785673421E+02  0.67172008175E+02  0.10012904643E+03  0.00000000000E+00 0. -1.
        -14    1    5    5    0    0  0.50761704331E+02  0.18981971271E+02  0.72426110340E+02  0.90457765388E+02  0.00000000000E+00 0.  1.
          5    1    4    4  501    0 -0.14970760016E+03  0.13621666482E+02 -0.20530879266E+02  0.15177913146E+03  0.41800000000E+01 0. -1.
         -5    1    4    4    0  501 -0.10675413334E+01 -0.64882885385E+01  0.45143541218E+02  0.45811016648E+02  0.41800000000E+01 0. -1.
</event>
<event>
11    1  0.6455215E-009  0.1591889E+03  0.7561462E-02  0.1087843E+00
         22   -1    0    0    0    0  0.00000000000E+00  0.00000000000E+00  0.40363752649E+03  0.40363752649E+03  0.00000000000E+00 0.  1.
         22   -1    0    0    0    0 -0.00000000000E+00 -0.00000000000E+00 -0.48584613279E+03  0.48584613279E+03  0.00000000000E+00 0.  1.
        -24    2    1    2    0    0  0.40122319145E+02  0.92247295683E+01 -0.42269013339E+03  0.43171040977E+03  0.77537300131E+02 0.  0.
         25    2    1    2    0    0  0.46831419960E+02 -0.69855461191E+02  0.94141045390E+02  0.17771791770E+03  0.12509258367E+03 0.  0.
         24    2    1    2    0    0 -0.86953739105E+02  0.60630731622E+02  0.24634048170E+03  0.28005533181E+03  0.80686539099E+02 0.  0.
        -13    1    5    5    0    0 -0.70574387275E+02  0.72242518449E+02  0.23756962580E+03  0.25814541002E+03  0.00000000000E+00 0.  1.
         14    1    5    5    0    0 -0.16379351830E+02 -0.11611786827E+02  0.87708558935E+01  0.21909921789E+02  0.00000000000E+00 0. -1.
         11    1    3    3    0    0 -0.12657765214E+02  0.21151743196E+02 -0.57898159679E+02  0.62927038343E+02  0.00000000000E+00 0. -1.
        -12    1    3    3    0    0  0.52780084359E+02 -0.11927013627E+02 -0.36479197371E+03  0.36878337143E+03  0.00000000000E+00 0.  1.
          5    1    4    4  501    0  0.31468156486E+02 -0.97779122019E+02  0.10179588577E+03  0.14467507157E+03  0.41800000000E+01 0.  1.
         -5    1    4    4    0  501  0.15363263474E+02  0.27923660829E+02 -0.76548403789E+01  0.33042846123E+02  0.41800000000E+01 0.  1.
</event>
<event>
11    1  0.6455215E-009  0.1286810E+03  0.7561462E-02  0.1120900E+00
         22   -1    0    0    0    0  0.00000000000E+00  0.00000000000E+00  0.21587987289E+03  0.21587987289E+03  0.00000000000E+00 0.  1.
         22   -1    0    0    0    0 -0.00000000000E+00 -0.00000000000E+00 -0.26389438360E+03  0.26389438360E+03  0.00000000000E+00 0. -1.
        -24    2    1    2    0    0  0.25730006797E+02  0.15991689015E+02 -0.18146779212E+03  0.20041270737E+03  0.79479093674E+02 0.  0.
         25    2    1    2    0    0 -0.15068799802E+02 -0.30212195281E+02  0.86937353312E+01  0.12985829995E+03  0.12509097314E+03 0.  0.
         24    2    1    2    0    0 -0.10661206995E+02  0.14220506266E+02  0.12475954607E+03  0.14950324917E+03  0.80438753380E+02 0.  0.
        -13    1    5    5    0    0  0.20721815471E+02  0.11462633472E+02  0.11366064615E+03  0.11610136987E+03  0.00000000000E+00 0.  1.
         14    1    5    5    0    0 -0.31383022466E+02  0.27578727938E+01  0.11098899915E+02  0.33401879301E+02  0.00000000000E+00 0. -1.
         13    1    3    3    0    0  0.52448106942E+02  0.23148043204E+02 -0.11860608418E+03  0.13173472978E+03  0.00000000000E+00 0. -1.
        -14    1    3    3    0    0 -0.26718100145E+02 -0.71563541888E+01 -0.62861707934E+02  0.68677977584E+02  0.00000000000E+00 0.  1.
          5    1    4    4  501    0 -0.60676910949E+02 -0.47445485670E+02 -0.93522065370E+01  0.77702624151E+02  0.41800000000E+01 0.  1.
         -5    1    4    4    0  501  0.45608111147E+02  0.17233290389E+02  0.18045941868E+02  0.52155675798E+02  0.41800000000E+01 0.  1.
</event>
<event>
11    1  0.6455215E-009  0.3034254E+03  0.7561462E-02  0.9987518E-01
         22   -1    0    0    0    0  0.00000000000E+00  0.00000000000E+00  0.51940939737E+03  0.51940939737E+03  0.00000000000E+00 0.  1.
         22   -1    0    0    0    0 -0.00000000000E+00 -0.00000000000E+00 -0.82493756533E+03  0.82493756533E+03  0.00000000000E+00 0. -1.
         24    2    1    2    0    0  0.45450635294E+02 -0.69928720715E+01 -0.51277226515E+03  0.52106836264E+03  0.80387698867E+02 0.  0.
         25    2    1    2    0    0  0.10074290688E+03  0.24483854199E+03 -0.17660808508E+03  0.34195430649E+03  0.12508911656E+03 0.  0.
        -24    2    1    2    0    0 -0.14619354217E+03 -0.23784566992E+03  0.38385218227E+03  0.48132429357E+03  0.79921607073E+02 0.  0.
        -13    1    3    3    0    0  0.66112534556E+02 -0.14009864852E+01 -0.44791824508E+03  0.45277321505E+03  0.00000000000E+00 0.  1.
         14    1    3    3    0    0 -0.20661899262E+02 -0.55918855863E+01 -0.64854020065E+02  0.68295147588E+02  0.00000000000E+00 0. -1.
         11    1    5    5    0    0 -0.21173730887E+02 -0.69724364365E+01  0.98607591094E+01  0.24375732189E+02  0.00000000000E+00 0. -1.
        -12    1    5    5    0    0 -0.12501981128E+03 -0.23087323349E+03  0.37399142316E+03  0.45694856138E+03  0.00000000000E+00 0.  1.
          5    1    4    4  501    0  0.11234838630E+03  0.25193919349E+03 -0.15608478848E+03  0.31697862817E+03  0.41800000000E+01 0. -1.
         -5    1    4    4    0  501 -0.11605479427E+02 -0.71006514948E+01 -0.20523296597E+02  0.24975678321E+02  0.41800000000E+01 0. -1.
</event>
<event>
11    1  0.6455215E-009  0.1369132E+03  0.7561462E-02  0.1111055E+00
         22   -1    0    0    0    0  0.00000000000E+00  0.00000000000E+00  0.22109851247E+04  0.22109851247E+04  0.00000000000E+00 0.  1.
         22   -1    0    0    0    0 -0.00000000000E+00 -0.00000000000E+00 -0.40015831383E+02  0.40015831383E+02  0.00000000000E+00 0.  1.
         24    2    1    2    0    0  0.28989787906E+02 -0.28322260155E+02  0.49136717668E+02  0.10148939672E+03  0.79013431767E+02 0.  0.
         25    2    1    2    0    0 -0.19458536072E+02  0.80725809919E+02  0.44054895243E+03  0.46543102699E+03  0.12508944955E+03 0.  0.
        -24    2    1    2    0    0 -0.95312518334E+01 -0.52403549764E+02  0.16812836232E+04  0.16840805323E+04  0.81090326281E+02 0.  0.
        -13    1    3    3    0    0  0.51657052366E+02  0.22376317137E+00  0.22510007975E+02  0.56348927125E+02  0.00000000000E+00 0.  1.
         14    1    3    3    0    0 -0.22667264461E+02 -0.28546023326E+02  0.26626709693E+02  0.45140469591E+02  0.00000000000E+00 0. -1.
         13    1    5    5    0    0  0.13099984717E+02 -0.19272668450E+01  0.46162459776E+02  0.48023917475E+02  0.00000000000E+00 0. -1.
        -14    1    5    5    0    0 -0.22631236550E+02 -0.50476282919E+02  0.16351211634E+04  0.16360566149E+04  0.00000000000E+00 0.  1.
          5    1    4    4  501    0 -0.59180915925E+02  0.25082790948E+02  0.10675579243E+03  0.12468279284E+03  0.41800000000E+01 0. -1.
         -5    1    4    4    0  501  0.39722379853E+02  0.55643018971E+02  0.33379315999E+03  0.34074823416E+03  0.41800000000E+01 0. -1.
</event>
<event>
11    1  0.6455215E-009  0.2100417E+03  0.7561462E-02  0.1047641E+00
         22   -1    0    0    0    0  0.00000000000E+00  0.00000000000E+00  0.90128240350E+03  0.90128240350E+03  0.00000000000E+00 0. -1.
         22   -1    0    0    0    0 -0.00000000000E+00 -0.00000000000E+00 -0.88168545482E+03  0.88168545482E+03  0.00000000000E+00 0.  1.
         24    2    1    2    0    0 -0.16451232341E+03 -0.35615875139E+02 -0.80641453302E+03  0.82761546883E+03  0.79436578871E+02 0.  0.
         25    2    1    2    0    0  0.16945519114E+03  0.48424622490E+02  0.12562153812E+03  0.24997865188E+03  0.12509416328E+03 0.  0.
        -24    2    1    2    0    0 -0.49428677338E+01 -0.12808747352E+02  0.70038994358E+03  0.70537373762E+03  0.82568400166E+02 0.  0.
        -11    1    3    3    0    0 -0.44462853202E+02  0.28128195348E+01 -0.39012795875E+03  0.39266357288E+03  0.00000000000E+00 0.  1.
         12    1    3    3    0    0 -0.12004947021E+03 -0.38428694673E+02 -0.41628657427E+03  0.43495189595E+03  0.00000000000E+00 0. -1.
         13    1    5    5    0    0 -0.33355532950E+02  0.96602409586E+01  0.53197836459E+03  0.53311058161E+03  0.00000000000E+00 0. -1.
        -14    1    5    5    0    0  0.28412665216E+02 -0.22468988310E+02  0.16841157899E+03  0.17226315601E+03  0.00000000000E+00 0.  1.
          5    1    4    4  501    0  0.18806342883E+03  0.33037165774E+02  0.10498690827E+03  0.21794272388E+03  0.41800000000E+01 0.  1.
         -5    1    4    4    0  501 -0.18608237682E+02  0.15387456716E+02  0.20634629846E+02  0.32035927998E+02  0.41800000000E+01 0.  1.
</event>
<event>
11    1  0.6455215E-009  0.1499774E+03  0.7561462E-02  0.1096902E+00
         22   -1    0    0    0    0  0.00000000000E+00  0.00000000000E+00  0.28673846516E+03  0.28673846516E+03  0.00000000000E+00 0. -1.
         22   -1    0    0    0    0 -0.00000000000E+00 -0.00000000000E+00 -0.51221181533E+03  0.51221181533E+03  0.00000000000E+00 0. -1.
        -24    2    1    2    0    0  0.74229296228E+02 -0.53970686961E+02 -0.35597268250E+03  0.37600966240E+03  0.79018302045E+02 0.  0.
         25    2    1    2    0    0 -0.59789426757E+02  0.74745685939E+00 -0.97984492417E+02  0.16977406476E+03  0.12508772149E+03 0.  0.
         24    2    1    2    0    0 -0.14439869471E+02  0.53223230101E+02  0.22848382475E+03  0.25316655333E+03  0.94059680532E+02 0.  0.
        -13    1    5    5    0    0 -0.48716902227E+02  0.20306014853E+02  0.69731782614E+02  0.87453943926E+02  0.00000000000E+00 0.  1.
         14    1    5    5    0    0  0.34277032756E+02  0.32917215248E+02  0.15875204213E+03  0.16571260941E+03  0.00000000000E+00 0. -1.
         11    1    3    3    0    0  0.54979609423E+02 -0.66259996997E+02 -0.33165634688E+03  0.34265007965E+03  0.00000000000E+00 0. -1.
        -12    1    3    3    0    0  0.19249686805E+02  0.12289310036E+02 -0.24316335619E+02  0.33359582749E+02  0.00000000000E+00 0.  1.
          5    1    4    4  501    0  0.22486541578E+02  0.40741864914E+02 -0.27522244822E+02  0.54226289462E+02  0.41800000000E+01 0. -1.
         -5    1    4    4    0  501 -0.82275968334E+02 -0.39994408054E+02 -0.70462247595E+02  0.11554777530E+03  0.41800000000E+01 0. -1.
</event>
<event>
11    1  0.6455215E-009  0.4010384E+03  0.7561462E-02  0.9646699E-01
         22   -1    0    0    0    0  0.00000000000E+00  0.00000000000E+00  0.14090517621E+04  0.14090517621E+04  0.00000000000E+00 0. -1.
         22   -1    0    0    0    0 -0.00000000000E+00 -0.00000000000E+00 -0.61638293799E+03  0.61638293799E+03  0.00000000000E+00 0.  1.
         24    2    1    2    0    0  0.37561339116E+02  0.38385957642E+03 -0.50112956078E+03  0.63731005202E+03  0.79210082160E+02 0.  0.
         25    2    1    2    0    0 -0.81730919781E+02 -0.32183099961E+03  0.72571722765E+03  0.80781687952E+03  0.12508989078E+03 0.  0.
        -24    2    1    2    0    0  0.44169580665E+02 -0.62028576815E+02  0.56808115725E+03  0.58030776856E+03  0.90787712963E+02 0.  0.
        -11    1    3    3    0    0 -0.10025239663E+02  0.25723930467E+03 -0.30608919156E+03  0.39995394546E+03  0.00000000000E+00 0.  1.
         12    1    3    3    0    0  0.47586578779E+02  0.12662027175E+03 -0.19504036922E+03  0.23735610657E+03  0.00000000000E+00 0. -1.
         11    1    5    5    0    0 -0.25629211113E+02 -0.93034415143E+01  0.20669364462E+03  0.20848422773E+03  0.00000000000E+00 0. -1.
        -12    1    5    5    0    0  0.69798791777E+02 -0.52725135301E+02  0.36138751263E+03  0.37182354083E+03  0.00000000000E+00 0.  1.
          5    1    4    4  501    0 -0.77039353557E+02 -0.14171890323E+03  0.23511068647E+03  0.28515577641E+03  0.41800000000E+01 0. -1.
         -5    1    4    4    0  501 -0.46915662235E+01 -0.18011209638E+03  0.49060654118E+03  0.52266110311E+03  0.41800000000E+01 0. -1.
</event>
<event>
11    1  0.6455215E-009  0.1475702E+03  0.7561462E-02  0.1099388E+00
         22   -1    0    0    0    0  0.00000000000E+00  0.00000000000E+00  0.74639598982E+03  0.74639598982E+03  0.00000000000E+00 0. -1.
         22   -1    0    0    0    0 -0.00000000000E+00 -0.00000000000E+00 -0.53073968803E+03  0.53073968803E+03  0.00000000000E+00 0. -1.
        -24    2    1    2    0    0  0.61444564653E+01 -0.79523971899E+02 -0.48222689221E+03  0.49532164370E+03  0.80242997790E+02 0.  0.
         25    2    1    2    0    0 -0.50015624936E+02  0.44083969656E+02  0.94231858969E+02  0.17021512349E+03  0.12509430803E+03 0.  0.
         24    2    1    2    0    0  0.43871168471E+02  0.35440002243E+02  0.60365133502E+03  0.61159891066E+03  0.80483663343E+02 0.  0.
        -13    1    5    5    0    0  0.43242712287E+02  0.54580792763E+02  0.32940920990E+03  0.33668891083E+03  0.00000000000E+00 0.  1.
         14    1    5    5    0    0  0.62845618354E+00 -0.19140790520E+02  0.27424212512E+03  0.27490999983E+03  0.00000000000E+00 0. -1.
         11    1    3    3    0    0  0.35644015974E+02 -0.20676664313E+02 -0.26981479321E+03  0.27294329623E+03  0.00000000000E+00 0. -1.
        -12    1    3    3    0    0 -0.29499559509E+02 -0.58847307586E+02 -0.21241209899E+03  0.22237834746E+03  0.00000000000E+00 0.  1.
          5    1    4    4  501    0  0.28974730212E+02  0.43168229864E+02  0.72811132227E+01  0.52664201031E+02  0.41800000000E+01 0. -1.
         -5    1    4    4    0  501 -0.78990355148E+02  0.91573979266E+00  0.86950745747E+02  0.11755092246E+03  0.41800000000E+01 0. -1.
</event>
<event>
11    1  0.6455215E-009  0.1567231E+03  0.7561462E-02  0.1090200E+00
         22   -1    0    0    0    0  0.00000000000E+00  0.00000000000E+00  0.15281870680E+04  0.15281870680E+04  0.00000000000E+00 0. -1.
         22   -1    0    0    0    0 -0.00000000000E+00 -0.00000000000E+00 -0.24209273496E+03  0.24209273496E+03  0.00000000000E+00 0.  1.
        -24    2    1    2    0    0  0.56029476530E+02 -0.77345556745E+02 -0.21437630608E+03  0.24785656468E+03  0.79712224033E+02 0.  0.
         25    2    1    2    0    0 -0.18095933683E+02  0.59601494157E+02  0.54074670757E+03  0.55850919687E+03  0.12508285382E+03 0.  0.
         24    2    1    2    0    0 -0.37933542847E+02  0.17744062588E+02  0.95972393158E+03  0.96391404145E+03  0.79413153895E+02 0.  0.
        -13    1    5    5    0    0 -0.44307219730E+02  0.12567540568E+02  0.25395182925E+03  0.25809417734E+03  0.00000000000E+00 0.  1.
         14    1    5    5    0    0  0.63736768827E+01  0.51765220199E+01  0.70577210233E+03  0.70581986411E+03  0.00000000000E+00 0. -1.
         11    1    3    3    0    0  0.26598777556E+02 -0.40087511811E+02 -0.18691535336E+03  0.19300739078E+03  0.00000000000E+00 0. -1.
        -12    1    3    3    0    0  0.29430698974E+02 -0.37258044934E+02 -0.27460952715E+02  0.54849173908E+02  0.00000000000E+00 0.  1.
          5    1    4    4  501    0 -0.15200877034E+02  0.76620799712E+02  0.53369587335E+03  0.53939834190E+03  0.41800000000E+01 0. -1.
         -5    1    4    4    0  501 -0.28950566491E+01 -0.17019305555E+02  0.70508342177E+01  0.19110854971E+02  0.41800000000E+01 0. -1.
</event>
<event>
11    1  0.6455215E-009  0.1317505E+03  0.7561462E-02  0.1117137E+00
         22   -1    0    0    0    0  0.00000000000E+00  0.00000000000E+00  0.48567514899E+03  0.48567514899E+03  0.00000000000E+00 0. -1.
         22   -1    0    0    0    0 -0.00000000000E+00 -0.00000000000E+00 -0.13855920107E+03  0.13855920107E+03  0.00000000000E+00 0. -1.
         24    2    1    2    0    0 -0.12337165157E+02  0.39054668113E+02 -0.94032059201E+02  0.12944676134E+03  0.78974445986E+02 0.  0.
         25    2    1    2    0    0 -0.24222850309E+00 -0.48718953660E+02  0.20885053893E+03  0.24827323123E+03  0.12508978620E+03 0.  0.
        -24    2    1    2    0    0  0.12579393660E+02  0.96642855466E+01  0.23229746819E+03  0.24651435748E+03  0.80966506390E+02 0.  0.
        -11    1    3    3    0    0  0.10365811726E+02 -0.21712433017E+02 -0.23876470038E+02  0.33896395409E+02  0.00000000000E+00 0.  1.
         12    1    3    3    0    0 -0.22702976884E+02  0.60767101130E+02 -0.70155589164E+02  0.95550365933E+02  0.00000000000E+00 0. -1.
         13    1    5    5    0    0 -0.33007132258E+01  0.16112657373E+02  0.22833017800E+03  0.22892178276E+03  0.00000000000E+00 0. -1.
        -14    1    5    5    0    0  0.15880106886E+02 -0.64483718269E+01  0.39672901885E+01  0.17592574723E+02  0.00000000000E+00 0.  1.
          5    1    4    4  501    0 -0.11114334316E+01  0.42045594825E+02  0.52083799384E+02  0.67076537528E+02  0.41800000000E+01 0. -1.
         -5    1    4    4    0  501  0.86920492847E+00 -0.90764548485E+02  0.15676673955E+03  0.18119669370E+03  0.41800000000E+01 0. -1.
</event>
<event>
11    1  0.6455215E-009  0.1588052E+03  0.7561462E-02  0.1088206E+00
         22   -1    0    0    0    0  0.00000000000E+00  0.00000000000E+00  0.31646426393E+03  0.31646426393E+03  0.00000000000E+00 0.  1.
         22   -1    0    0    0    0 -0.00000000000E+00 -0.00000000000E+00 -0.29269403031E+03  0.29269403031E+03  0.00000000000E+00 0.  1.
         24    2    1    2    0    0 -0.80486918860E+01  0.46067287006E+01 -0.17452608929E+03  0.19419392780E+03  0.84651771172E+02 0.  0.
         25    2    1    2    0    0 -0.80424041768E+02 -0.48265688598E+02 -0.23759368926E+02  0.15814370684E+03  0.12508925299E+03 0.  0.
        -24    2    1    2    0    0  0.88472733654E+02  0.43658959897E+02  0.22205569184E+03  0.25682065960E+03  0.83154023002E+02 0.  0.
        -11    1    3    3    0    0 -0.19754350752E+02 -0.19847714822E+02 -0.16186887380E+03  0.16427324329E+03  0.00000000000E+00 0.  1.
         12    1    3    3    0    0  0.11705658866E+02  0.24454443523E+02 -0.12657215489E+02  0.29920684508E+02  0.00000000000E+00 0. -1.
         11    1    5    5    0    0  0.72798636123E+02 -0.54443861003E+01  0.95769372415E+02  0.12042032824E+03  0.00000000000E+00 0. -1.
        -12    1    5    5    0    0  0.15674097531E+02  0.49103345997E+02  0.12628631942E+03  0.13640033136E+03  0.00000000000E+00 0.  1.
          5    1    4    4  501    0 -0.11544526526E+02 -0.79545657743E+02 -0.94641417523E+01  0.81042150377E+02  0.41800000000E+01 0. -1.
         -5    1    4    4    0  501 -0.68879515241E+02  0.31279969146E+02 -0.14295227174E+02  0.77101556467E+02  0.41800000000E+01 0. -1.
</event>
<event>
11    1  0.6455215E-009  0.1524521E+03  0.7561462E-02  0.1094399E+00
         22   -1    0    0    0    0  0.00000000000E+00  0.00000000000E+00  0.20009313577E+04  0.20009313577E+04  0.00000000000E+00 0.  1.
         22   -1    0    0    0    0 -0.00000000000E+00 -0.00000000000E+00 -0.93173719589E+03  0.93173719589E+03  0.00000000000E+00 0.  1.
        -24    2    1    2    0    0 -0.18000918935E+02  0.39132772705E+02 -0.86361910505E+03  0.86849828134E+03  0.81215140903E+02 0.  0.
         25    2    1    2    0    0 -0.96124510347E+01  0.44797525281E+02  0.56696283863E+01  0.13333216039E+03  0.12508438281E+03 0.  0.
         24    2    1    2    0    0  0.27613369970E+02 -0.83930297986E+02  0.19271436384E+04  0.19308381118E+04  0.80289586975E+02 0.  0.
        -13    1    5    5    0    0  0.16854870328E+02 -0.46455949358E+02  0.16722381261E+04  0.16729681982E+04  0.00000000000E+00 0.  1.
         14    1    5    5    0    0  0.10758499642E+02 -0.37474348628E+02  0.25490551231E+03  0.25786991358E+03  0.00000000000E+00 0. -1.
         11    1    3    3    0    0  0.31083235412E+02  0.21811856995E+02 -0.28008861509E+03  0.28265094540E+03  0.00000000000E+00 0. -1.
        -12    1    3    3    0    0 -0.49084154347E+02  0.17320915709E+02 -0.58353048995E+03  0.58584733595E+03  0.00000000000E+00 0.  1.
          5    1    4    4  501    0 -0.19724877306E+01 -0.42911430116E+02 -0.87013557985E+01  0.44028031244E+02  0.41800000000E+01 0. -1.
         -5    1    4    4    0  501 -0.76399633042E+01  0.87708955397E+02  0.14370984185E+02  0.89304129146E+02  0.41800000000E+01 0. -1.
</event>
<event>
11    1  0.6455215E-009  0.1266270E+03  0.7561462E-02  0.1123484E+00
         22   -1    0    0    0    0  0.00000000000E+00  0.00000000000E+00  0.73284632508E+03  0.73284632508E+03  0.00000000000E+00 0. -1.
         22   -1    0    0    0    0 -0.00000000000E+00 -0.00000000000E+00 -0.17522568065E+04  0.17522568065E+04  0.00000000000E+00 0. -1.
         24    2    1    2    0    0 -0.18331369403E+02  0.70636568028E+01 -0.17326513199E+04  0.17347512482E+04  0.83038318303E+02 0.  0.
         25    2    1    2    0    0  0.34439696276E+02  0.14381083454E+02  0.27848594527E+03  0.30756260825E+03  0.12508967998E+03 0.  0.
        -24    2    1    2    0    0 -0.16108326874E+02 -0.21444740257E+02  0.43475489327E+03  0.44278927510E+03  0.79568648600E+02 0.  0.
        -11    1    3    3    0    0 -0.34408771873E+02 -0.11547834933E+01 -0.29736627677E+03  0.29935263431E+03  0.00000000000E+00 0.  1.
         12    1    3    3    0    0  0.16077402470E+02  0.82184402961E+01 -0.14352850432E+04  0.14353986139E+04  0.00000000000E+00 0. -1.
         11    1    5    5    0    0 -0.32695461027E+02  0.16902366471E+02  0.28316471962E+03  0.28554674154E+03  0.00000000000E+00 0. -1.
        -12    1    5    5    0    0  0.16587134153E+02 -0.38347106728E+02  0.15159017365E+03  0.15724253356E+03  0.00000000000E+00 0.  1.
          5    1    4    4  501    0  0.62539499472E+02  0.22834005185E+02  0.68941157141E+02  0.95931935949E+02  0.41800000000E+01 0.  1.
         -5    1    4    4    0  501 -0.28099803195E+02 -0.84529217309E+01  0.20954478813E+03  0.21163067230E+03  0.41800000000E+01 0.  1.
</event>
<event>
11    1  0.6455215E-009  0.1446310E+03  0.7561462E-02  0.1102495E+00
         22   -1    0    0    0    0  0.00000000000E+00  0.00000000000E+00  0.12952052947E+04  0.12952052947E+04  0.00000000000E+00 0.  1.
         22   -1    0    0    0    0 -0.00000000000E+00 -0.00000000000E+00 -0.28904508359E+03  0.28904508359E+03  0.00000000000E+00 0.  1.
        -24    2    1    2    0    0  0.11704315347E+02 -0.71522560116E+02 -0.24748031083E+03  0.27027981400E+03  0.80945697849E+02 0.  0.
         25    2    1    2    0    0  0.39637218345E+02  0.81343839871E+02  0.18192853929E+03  0.23860830001E+03  0.12509195842E+03 0.  0.
         24    2    1    2    0    0 -0.51341533692E+02 -0.98212797549E+01  0.10717119827E+04  0.10753622643E+04  0.71449388004E+02 0.  0.
        -13    1    5    5    0    0 -0.36671604659E+02 -0.16867857969E+02  0.10267904544E+04  0.10275835579E+04  0.00000000000E+00 0.  1.
         14    1    5    5    0    0 -0.14669929034E+02  0.70465782142E+01  0.44921528285E+02  0.47778706406E+02  0.00000000000E+00 0. -1.
         11    1    3    3    0    0  0.25484818053E+02  0.83515887131E+01 -0.76389919311E+02  0.80960760604E+02  0.00000000000E+00 0. -1.
        -12    1    3    3    0    0 -0.13780502706E+02 -0.79874148829E+02 -0.17109039152E+03  0.18931905339E+03  0.00000000000E+00 0.  1.
          5    1    4    4  501    0 -0.33870159910E+02 -0.21839781357E+01  0.82594012036E+02  0.89393516079E+02  0.41800000000E+01 0. -1.
         -5    1    4    4    0  501  0.73507378255E+02  0.83527818007E+02  0.99334527257E+02  0.14921478393E+03  0.41800000000E+01 0. -1.
</event>
<event>
11    1  0.8947165E-009  0.1896374E+03  0.7561462E-02  0.1062103E+00
         22   -1    0    0    0    0  0.00000000000E+00  0.00000000000E+00  0.29638435229E+04  0.29638435229E+04  0.00000000000E+00 0. -1.
         22   -1    0    0    0    0 -0.00000000000E+00 -0.00000000000E+00 -0.15266465778E+03  0.15266465778E+03  0.00000000000E+00 0. -1.
        -24    2    1    2    0    0  0.24130615775E+02  0.32197652340E+02 -0.55380753458E+02  0.10719206666E+03  0.82487186075E+02 0.  0.
         25    2    1    2    0    0  0.10904393400E+03 -0.84111772564E+02  0.57321113083E+02  0.19467239936E+03  0.12508502405E+03 0.  0.
         24    2    1    2    0    0 -0.13317454978E+03  0.51914120224E+02  0.28092385055E+04  0.28146437147E+04  0.99838485043E+02 0.  0.
        -13    1    5    5    0    0 -0.62699063201E+02  0.32605320878E+02  0.59227672577E+03  0.59647799571E+03  0.00000000000E+00 0.  1.
         14    1    5    5    0    0 -0.70475486579E+02  0.19308799346E+02  0.22169617797E+04  0.22181657190E+04  0.00000000000E+00 0. -1.
         13    1    3    3    0    0  0.16055705335E+02  0.24754342673E+02 -0.77264916530E+02  0.82706895005E+02  0.00000000000E+00 0. -1.
        -14    1    3    3    0    0  0.80749104404E+01  0.74433096664E+01  0.21884163072E+02  0.24485171651E+02  0.00000000000E+00 0.  1.
          5    1    4    4  501    0  0.10357670069E+03 -0.10348421192E+03  0.77630217469E+02  0.16577405740E+03  0.41800000000E+01 0.  1.
         -5    1    4    4    0  501  0.54672333119E+01  0.19372439360E+02 -0.20309104386E+02  0.28898341957E+02  0.41800000000E+01 0.  1.
</event>
<event>
11    1  0.6455215E-009  0.1569904E+03  0.7561462E-02  0.1089943E+00
         22   -1    0    0    0    0  0.00000000000E+00  0.00000000000E+00  0.58276841499E+03  0.58276841499E+03  0.00000000000E+00 0.  1.
         22   -1    0    0    0    0 -0.00000000000E+00 -0.00000000000E+00 -0.54003795705E+03  0.54003795705E+03  0.00000000000E+00 0.  1.
         24    2    1    2    0    0 -0.69937537481E+02 -0.66784919413E+02 -0.45365359645E+03  0.47074313246E+03  0.80287150726E+02 0.  0.
         25    2    1    2    0    0  0.63984537279E+02  0.47178410208E+02 -0.38761471888E+00  0.14821484893E+03  0.12509063833E+03 0.  0.
        -24    2    1    2    0    0  0.59530002023E+01  0.19606509206E+02  0.49677166911E+03  0.50384839064E+03  0.81616518618E+02 0.  0.
        -13    1    3    3    0    0 -0.12014671233E+02 -0.61348307566E+02 -0.30000970033E+03  0.30645356493E+03  0.00000000000E+00 0.  1.
         14    1    3    3    0    0 -0.57922866248E+02 -0.54366118474E+01 -0.15364389612E+03  0.16428956753E+03  0.00000000000E+00 0. -1.
         11    1    5    5    0    0  0.21513047368E+02 -0.25850935462E+02  0.14738000264E+03  0.15116860537E+03  0.00000000000E+00 0. -1.
        -12    1    5    5    0    0 -0.15560047165E+02  0.45457444668E+02  0.34939166647E+03  0.35267978527E+03  0.00000000000E+00 0.  1.
          5    1    4    4  501    0  0.99620217132E+01  0.23891975093E+01 -0.56931926178E+02  0.57997127168E+02  0.41800000000E+01 0. -1.
         -5    1    4    4    0  501  0.54022515566E+02  0.44789212698E+02  0.56544311459E+02  0.90217721766E+02  0.41800000000E+01 0. -1.
</event>
<event>
11    1  0.6455215E-009  0.1309656E+03  0.7561462E-02  0.1118088E+00
         22   -1    0    0    0    0  0.00000000000E+00  0.00000000000E+00  0.20524785698E+04  0.20524785698E+04  0.00000000000E+00 0. -1.
         22   -1    0    0    0    0 -0.00000000000E+00 -0.00000000000E+00 -0.37388022641E+03  0.37388022641E+03  0.00000000000E+00 0. -1.
         24    2    1    2    0    0 -0.38846912140E+01  0.36521392983E+01 -0.33533366587E+03  0.34508597381E+03  0.81284887343E+02 0.  0.
         25    2    1    2    0    0 -0.21648436191E+02  0.25748269646E+02  0.95910615883E+02  0.16117951010E+03  0.12509340533E+03 0.  0.
        -24    2    1    2    0    0  0.25533127405E+02 -0.29400408945E+02  0.19180213934E+04  0.19200933123E+04  0.80224297312E+02 0.  0.
        -13    1    3    3    0    0 -0.23175101229E+02 -0.18682497432E+02 -0.49707767570E+02  0.57939478631E+02  0.00000000000E+00 0.  1.
         14    1    3    3    0    0  0.19290410015E+02  0.22334636730E+02 -0.28562589830E+03  0.28714649518E+03  0.00000000000E+00 0. -1.
         11    1    5    5    0    0  0.22853171942E+02  0.13346981358E+02  0.14162317865E+04  0.14164790441E+04  0.00000000000E+00 0. -1.
        -12    1    5    5    0    0  0.26799554632E+01 -0.42747390303E+02  0.50178960696E+03  0.50361426825E+03  0.00000000000E+00 0.  1.
          5    1    4    4  501    0 -0.62355308854E+02  0.98484452234E+01  0.98648496556E+02  0.11719289521E+03  0.41800000000E+01 0. -1.
         -5    1    4    4    0  501  0.40706872662E+02  0.15899824423E+02 -0.27378806723E+01  0.43986614887E+02  0.41800000000E+01 0. -1.
</event>
<event>
11    1  0.6455215E-009  0.1641644E+03  0.7561462E-02  0.1083225E+00
         22   -1    0    0    0    0  0.00000000000E+00  0.00000000000E+00  0.10421758194E+04  0.10421758194E+04  0.00000000000E+00 0. -1.
         22   -1    0    0    0    0 -0.00000000000E+00 -0.00000000000E+00 -0.93572600753E+02  0.93572600753E+02  0.00000000000E+00 0.  1.
         24    2    1    2    0    0 -0.10165655541E+02  0.99845054053E+01 -0.45047477747E+02  0.93238804712E+02  0.80381394314E+02 0.  0.
         25    2    1    2    0    0 -0.64311483783E+02  0.71483605288E+02  0.33926550713E+03  0.37415810206E+03  0.12508928106E+03 0.  0.
        -24    2    1    2    0    0  0.74477139325E+02 -0.81468110693E+02  0.65438518928E+03  0.66835151340E+03  0.79308714369E+02 0.  0.
        -13    1    3    3    0    0  0.22776013457E+02 -0.20338219018E+02 -0.36618693868E+02  0.47679331816E+02  0.00000000000E+00 0.  1.
         14    1    3    3    0    0 -0.32941668998E+02  0.30322724423E+02 -0.84287838786E+01  0.45559472896E+02  0.00000000000E+00 0. -1.
         13    1    5    5    0    0  0.64588670999E+02 -0.68327759538E+02  0.63883930664E+03  0.64572133220E+03  0.00000000000E+00 0. -1.
        -14    1    5    5    0    0  0.98884683253E+01 -0.13140351155E+02  0.15545882638E+02  0.22630181204E+02  0.00000000000E+00 0.  1.
          5    1    4    4  501    0 -0.38736638670E+02  0.10557179805E+02  0.28694938167E+03  0.28977474228E+03  0.41800000000E+01 0.  1.
         -5    1    4    4    0  501 -0.25574845113E+02  0.60926425483E+02  0.52316125462E+02  0.84383359781E+02  0.41800000000E+01 0.  1.
</event>
<event>
11    1  0.6455215E-009  0.1568147E+03  0.7561462E-02  0.1090112E+00
         22   -1    0    0    0    0  0.00000000000E+00  0.00000000000E+00  0.14463091363E+04  0.14463091363E+04  0.00000000000E+00 0.  1.
         22   -1    0    0    0    0 -0.00000000000E+00 -0.00000000000E+00 -0.12692385244E+03  0.12692385244E+03  0.00000000000E+00 0.  1.
         24    2    1    2    0    0 -0.83105717495E+02  0.13855925120E+02 -0.41879008765E+02  0.11848821010E+03  0.72021230312E+02 0.  0.
         25    2    1    2    0    0  0.15158784092E+03 -0.31274532645E+02  0.17887561499E+03  0.26758336358E+03  0.12508957161E+03 0.  0.
        -24    2    1    2    0    0 -0.68482123422E+02  0.17418607525E+02  0.11823886776E+04  0.11871614150E+04  0.79473462813E+02 0.  0.
        -11    1    3    3    0    0 -0.69204060736E+02  0.36808195372E+02 -0.46676038819E+02  0.91228821481E+02  0.00000000000E+00 0.  1.
         12    1    3    3    0    0 -0.13901656758E+02 -0.22952270253E+02  0.47970300542E+01  0.27259388616E+02  0.00000000000E+00 0. -1.
         11    1    5    5    0    0 -0.70406428231E+02 -0.24443810601E+01  0.55471883268E+03  0.55917441239E+03  0.00000000000E+00 0. -1.
        -12    1    5    5    0    0  0.19243048089E+01  0.19862988585E+02  0.62766984493E+03  0.62798700266E+03  0.00000000000E+00 0.  1.
          5    1    4    4  501    0  0.72033427022E+02  0.78999325660E+01  0.54910784748E+01  0.72793185711E+02  0.41800000000E+01 0.  1.
         -5    1    4    4    0  501  0.79554413894E+02 -0.39174465211E+02  0.17338453651E+03  0.19479017787E+03  0.41800000000E+01 0.  1.
</event>
<event>
11    1  0.6455215E-009  0.1336631E+03  0.7561462E-02  0.1114848E+00
         22   -1    0    0    0    0  0.00000000000E+00  0.00000000000E+00  0.83888277971E+02  0.83888277971E+02  0.00000000000E+00 0. -1.
         22   -1    0    0    0    0 -0.00000000000E+00 -0.00000000000E+00 -0.50737683783E+03  0.50737683783E+03  0.00000000000E+00 0.  1.
         24    2    1    2    0    0 -0.32021062317E+02  0.27888661399E+02 -0.26766840678E+03  0.28299511313E+03  0.81466141426E+02 0.  0.
         25    2    1    2    0    0  0.37836043969E+02 -0.50511330393E+02 -0.17234472072E+03  0.22211105305E+03  0.12509059281E+03 0.  0.
        -24    2    1    2    0    0 -0.58149816522E+01  0.22622668995E+02  0.16524567642E+02  0.86158949614E+02  0.81269330616E+02 0.  0.
        -13    1    3    3    0    0 -0.31288188896E+02 -0.17572501738E+02 -0.18685269842E+03  0.19026737631E+03  0.00000000000E+00 0.  1.
         14    1    3    3    0    0 -0.73287342100E+00  0.45461163136E+02 -0.80815708366E+02  0.92727736820E+02  0.00000000000E+00 0. -1.
         13    1    5    5    0    0 -0.35891209164E+02  0.27927973411E+02  0.28145743545E+02  0.53482085541E+02  0.00000000000E+00 0. -1.
        -14    1    5    5    0    0  0.30076227512E+02 -0.53053044164E+01 -0.11621175903E+02  0.32676864073E+02  0.00000000000E+00 0.  1.
          5    1    4    4  501    0 -0.40279105847E+02  0.69407044390E+01 -0.69224979912E+02  0.80499378816E+02  0.41800000000E+01 0. -1.
         -5    1    4    4    0  501  0.78115149816E+02 -0.57452034832E+02 -0.10311974080E+03  0.14161167424E+03  0.41800000000E+01 0. -1.
</event>
<event>
11    1  0.6455215E-009  0.2329004E+03  0.7561462E-02  0.1033424E+00
         22   -1    0    0    0    0  0.00000000000E+00  0.00000000000E+00  0.57742487348E+03  0.57742487348E+03  0.00000000000E+00 0.  1.
         22   -1    0    0    0    0 -0.00000000000E+00 -0.00000000000E+00 -0.80819735641E+03  0.80819735641E+03  0.00000000000E+00 0.  1.
        -24    2    1    2    0    0  0.47808871516E+02  0.25395744875E+02 -0.68448848408E+03  0.69090534196E+03  0.76779389496E+02 0.  0.
         25    2    1    2    0    0 -0.22130217905E+03 -0.88389262965E+02  0.99230176408E+02  0.28684716847E+03  0.12508938360E+03 0.  0.
         24    2    1    2    0    0  0.17349330754E+03  0.62993518089E+02  0.35448582474E+03  0.40786971946E+03  0.81421109244E+02 0.  0.
        -11    1    5    5    0    0  0.14063029260E+03  0.76639935133E+02  0.32225289898E+03  0.35985759649E+03  0.00000000000E+00 0.  1.
         12    1    5    5    0    0  0.32863014937E+02 -0.13646417044E+02  0.32232925769E+02  0.48012122974E+02  0.00000000000E+00 0. -1.
         13    1    3    3    0    0  0.29119970936E+02  0.35630479321E+01 -0.72061636971E+02  0.77804547045E+02  0.00000000000E+00 0. -1.
        -14    1    3    3    0    0  0.18688900580E+02  0.21832696943E+02 -0.61242684711E+03  0.61310079491E+03  0.00000000000E+00 0.  1.
          5    1    4    4  501    0  0.68740171337E+01 -0.25324708018E+02 -0.67906738891E+01  0.27425874638E+02  0.41800000000E+01 0.  1.
         -5    1    4    4    0  501 -0.22817619619E+03 -0.63064554946E+02  0.10602085030E+03  0.25942129383E+03  0.41800000000E+01 0.  1.
</event>
<event>
11    1  0.6455215E-009  0.1311575E+03  0.7561462E-02  0.1117855E+00
         22   -1    0    0    0    0  0.00000000000E+00  0.00000000000E+00  0.10243984308E+03  0.10243984308E+03  0.00000000000E+00 0.  1.
         22   -1    0    0    0    0 -0.00000000000E+00 -0.00000000000E+00 -0.10173908191E+04  0.10173908191E+04  0.00000000000E+00 0.  1.
         24    2    1    2    0    0 -0.12600370469E+02  0.18223515375E+02 -0.82677694749E+03  0.83085443803E+03  0.79171399140E+02 0.  0.
         25    2    1    2    0    0  0.14861980820E+02  0.23597926960E+02 -0.13576187145E+03  0.18670719677E+03  0.12510216208E+03 0.  0.
        -24    2    1    2    0    0 -0.22616103508E+01 -0.41821442335E+02  0.47587842904E+02  0.10226902739E+03  0.80250876943E+02 0.  0.
        -11    1    3    3    0    0  0.53524747723E+01  0.44703100795E+02 -0.61831257391E+03  0.61994955865E+03  0.00000000000E+00 0.  1.
         12    1    3    3    0    0 -0.17952845242E+02 -0.26479585420E+02 -0.20846437358E+03  0.21090487938E+03  0.00000000000E+00 0. -1.
         11    1    5    5    0    0  0.83041551654E+01 -0.29592092317E+02 -0.17388431571E+02  0.35313007140E+02  0.00000000000E+00 0. -1.
        -12    1    5    5    0    0 -0.10565765516E+02 -0.12229350018E+02  0.64976274475E+02  0.66956020248E+02  0.00000000000E+00 0.  1.
          5    1    4    4  501    0 -0.23125351749E+02  0.21915340016E+02  0.11827665500E+02  0.34240766532E+02  0.41800000000E+01 0.  1.
         -5    1    4    4    0  501  0.37987332569E+02  0.16825869449E+01 -0.14758953694E+03  0.15246643024E+03  0.41800000000E+01 0.  1.
</event>
<event>
11    1  0.6455215E-009  0.1351138E+03  0.7561462E-02  0.1113141E+00
         22   -1    0    0    0    0  0.00000000000E+00  0.00000000000E+00  0.14475158649E+03  0.14475158649E+03  0.00000000000E+00 0.  1.
         22   -1    0    0    0    0 -0.00000000000E+00 -0.00000000000E+00 -0.15009510979E+04  0.15009510979E+04  0.00000000000E+00 0.  1.
        -24    2    1    2    0    0 -0.91222355951E+01  0.42995432849E+02 -0.13094597617E+04  0.13125726827E+04  0.78932614552E+02 0.  0.
         25    2    1    2    0    0 -0.42721895530E+02 -0.34824422899E+02 -0.14343471751E+03  0.19813920021E+03  0.12509086172E+03 0.  0.
         24    2    1    2    0    0  0.51844131125E+02 -0.81710099505E+01  0.96694967743E+02  0.13499080146E+03  0.78217775186E+02 0.  0.
        -13    1    5    5    0    0  0.26442050208E+02  0.66763208255E+01  0.10156925127E+03  0.10516685829E+03  0.00000000000E+00 0.  1.
         14    1    5    5    0    0  0.25402080917E+02 -0.14847330776E+02 -0.48742835269E+01  0.29823943166E+02  0.00000000000E+00 0. -1.
         11    1    3    3    0    0  0.26772998089E+02 -0.77480945678E+01 -0.45797396505E+03  0.45882129316E+03  0.00000000000E+00 0. -1.
        -12    1    3    3    0    0 -0.35895233684E+02  0.50743527417E+02 -0.85148579660E+03  0.85375138957E+03  0.00000000000E+00 0.  1.
          5    1    4    4  501    0  0.96633955045E+01 -0.14539249994E+01  0.20330541065E+02  0.22941194620E+02  0.41800000000E+01 0. -1.
         -5    1    4    4    0  501 -0.52385291034E+02 -0.33370497900E+02 -0.16376525857E+03  0.17519800559E+03  0.41800000000E+01 0. -1.
</event>
<event>
11    1  0.6455215E-009  0.2249058E+03  0.7561462E-02  0.1038187E+00
         22   -1    0    0    0    0  0.00000000000E+00  0.00000000000E+00  0.77059718395E+03  0.77059718395E+03  0.00000000000E+00 0.  1.
         22   -1    0    0    0    0 -0.00000000000E+00 -0.00000000000E+00 -0.75793843960E+03  0.75793843960E+03  0.00000000000E+00 0. -1.
         24    2    1    2    0    0 -0.51990822173E+01  0.33055778524E+02 -0.59510200231E+03  0.60148759684E+03  0.80754077616E+02 0.  0.
         25    2    1    2    0    0  0.19094083649E+03 -0.45605812333E+02 -0.50218291096E+02  0.23813279651E+03  0.12508820430E+03 0.  0.
        -24    2    1    2    0    0 -0.18574175427E+03  0.12550033810E+02  0.65797903775E+03  0.68891523021E+03  0.83727400929E+02 0.  0.
        -11    1    3    3    0    0 -0.36320521846E+02 -0.11727259672E+01 -0.16786978583E+03  0.17175802918E+03  0.00000000000E+00 0.  1.
         12    1    3    3    0    0  0.31121439628E+02  0.34228504491E+02 -0.42723221647E+03  0.42972956765E+03  0.00000000000E+00 0. -1.
         11    1    5    5    0    0 -0.96267973680E+02 -0.23830939890E+02  0.23539369164E+03  0.25543223468E+03  0.00000000000E+00 0. -1.
        -12    1    5    5    0    0 -0.89473780594E+02  0.36380973700E+02  0.42258534611E+03  0.43348299552E+03  0.00000000000E+00 0.  1.
          5    1    4    4  501    0  0.19392192860E+03 -0.72751265560E+01 -0.42149341292E+02  0.19862699019E+03  0.41800000000E+01 0.  1.
         -5    1    4    4    0  501 -0.29810921119E+01 -0.38330685777E+02 -0.80689498044E+01  0.39505806324E+02  0.41800000000E+01 0.  1.
</event>
<event>
11    1  0.6455215E-009  0.1600414E+03  0.7561462E-02  0.1087038E+00
         22   -1    0    0    0    0  0.00000000000E+00  0.00000000000E+00  0.19685601909E+04  0.19685601909E+04  0.00000000000E+00 0.  1.
         22   -1    0    0    0    0 -0.00000000000E+00 -0.00000000000E+00 -0.10160925298E+03  0.10160925298E+03  0.00000000000E+00 0. -1.
        -24    2    1    2    0    0 -0.21860113490E+02  0.45919144261E+02 -0.40431977907E+02  0.10301039530E+03  0.79937252457E+02 0.  0.
         25    2    1    2    0    0  0.61684926857E+02 -0.13295323191E+03  0.31040074646E+03  0.36534823565E+03  0.12509643406E+03 0.  0.
         24    2    1    2    0    0 -0.39824813367E+02  0.87034087645E+02  0.15969821694E+04  0.16018108130E+04  0.79277253964E+02 0.  0.
        -11    1    5    5    0    0 -0.21613980994E+02  0.98277495849E+02  0.14152347485E+04  0.14188076064E+04  0.00000000000E+00 0.  1.
         12    1    5    5    0    0 -0.18210832372E+02 -0.11243408204E+02  0.18174742085E+03  0.18300320661E+03  0.00000000000E+00 0. -1.
         11    1    3    3    0    0 -0.32329784324E+02  0.24437354321E+02 -0.59807711537E+02  0.72245149318E+02  0.00000000000E+00 0. -1.
        -12    1    3    3    0    0  0.10469670834E+02  0.21481789940E+02  0.19375733631E+02  0.30765245979E+02  0.00000000000E+00 0.  1.
          5    1    4    4  501    0  0.94996433608E+02 -0.60197211224E+02  0.18413105220E+03  0.21580023963E+03  0.41800000000E+01 0. -1.
         -5    1    4    4    0  501 -0.33311506751E+02 -0.72756020683E+02  0.12626969426E+03  0.14954799603E+03  0.41800000000E+01 0. -1.
</event>
<event>
11    1  0.6455215E-009  0.1532351E+03  0.7561462E-02  0.1093618E+00
         22   -1    0    0    0    0  0.00000000000E+00  0.00000000000E+00  0.10067422699E+04  0.10067422699E+04  0.00000000000E+00 0.  1.
         22   -1    0    0    0    0 -0.00000000000E+00 -0.00000000000E+00 -0.94716377671E+03  0.94716377671E+03  0.00000000000E+00 0.  1.
         24    2    1    2    0    0 -0.39281827030E+02  0.75802851221E+02 -0.79103934094E+03  0.79966333800E+03  0.80181550509E+02 0.  0.
         25    2    1    2    0    0  0.61575236539E+02 -0.11118570086E+03 -0.96591826004E+02  0.20280879776E+03  0.12509059824E+03 0.  0.
        -24    2    1    2    0    0 -0.22293409509E+02  0.35382849638E+02  0.94720966012E+03  0.95143391083E+03  0.79192198502E+02 0.  0.
        -11    1    3    3    0    0 -0.53477913923E+02  0.50422061116E+02 -0.34834114329E+03  0.35601098808E+03  0.00000000000E+00 0.  1.
         12    1    3    3    0    0  0.14196086893E+02  0.25380790106E+02 -0.44269819765E+03  0.44365234992E+03  0.00000000000E+00 0. -1.
         11    1    5    5    0    0 -0.36575252041E+02  0.13762620682E+02  0.20039194427E+03  0.20416681933E+03  0.00000000000E+00 0. -1.
        -12    1    5    5    0    0  0.14281842532E+02  0.21620228956E+02  0.74681771585E+03  0.74726709150E+03  0.00000000000E+00 0.  1.
          5    1    4    4  501    0  0.86322863486E+02 -0.33095142149E+02 -0.71764309707E+02  0.11710898233E+03  0.41800000000E+01 0. -1.
         -5    1    4    4    0  501 -0.24747626947E+02 -0.78090558710E+02 -0.24827516298E+02  0.85699815430E+02  0.41800000000E+01 0. -1.
</event>
<event>
11    1  0.6455215E-009  0.1266763E+03  0.7561462E-02  0.1123422E+00
         22   -1    0    0    0    0  0.00000000000E+00  0.00000000000E+00  0.20696275496E+03  0.20696275496E+03  0.00000000000E+00 0. -1.
         22   -1    0    0    0    0 -0.00000000000E+00 -0.00000000000E+00 -0.13612180031E+04  0.13612180031E+04  0.00000000000E+00 0. -1.
         24    2    1    2    0    0  0.17024665254E+02  0.11191398905E+02 -0.12730289287E+04  0.12758499591E+04  0.82312685273E+02 0.  0.
         25    2    1    2    0    0 -0.25545966350E+02  0.27551003728E+02 -0.25180341104E+02  0.13300822514E+03  0.12508190985E+03 0.  0.
        -24    2    1    2    0    0  0.85213010959E+01 -0.38742402633E+02  0.14395402165E+03  0.15932257384E+03  0.55563799839E+02 0.  0.
        -11    1    3    3    0    0  0.14086383759E+01  0.42482700237E+02 -0.42995066094E+03  0.43204668142E+03  0.00000000000E+00 0.  1.
         12    1    3    3    0    0  0.15616026878E+02 -0.31291301332E+02 -0.84307826778E+03  0.84380327769E+03  0.00000000000E+00 0. -1.
         13    1    5    5    0    0  0.12811777750E+02 -0.31581192386E+01  0.10711427999E+03  0.10792397483E+03  0.00000000000E+00 0. -1.
        -14    1    5    5    0    0 -0.42904766540E+01 -0.35584283394E+02  0.36839741664E+02  0.51398599012E+02  0.00000000000E+00 0.  1.
          5    1    4    4  501    0  0.47673645677E+02  0.30881323593E+02 -0.70648627413E+01  0.57391787954E+02  0.41800000000E+01 0.  1.
         -5    1    4    4    0  501 -0.73219612027E+02 -0.33303198654E+01 -0.18115478362E+02  0.75616437182E+02  0.41800000000E+01 0.  1.
</event>
<event>
11    1  0.6455215E-009  0.1286638E+03  0.7561462E-02  0.1120922E+00
         22   -1    0    0    0    0  0.00000000000E+00  0.00000000000E+00  0.91157835031E+02  0.91157835031E+02  0.00000000000E+00 0.  1.
         22   -1    0    0    0    0 -0.00000000000E+00 -0.00000000000E+00 -0.20718511474E+04  0.20718511474E+04  0.00000000000E+00 0.  1.
         24    2    1    2    0    0  0.12706074979E+02  0.23347301233E+01 -0.19204235582E+04  0.19221413288E+04  0.80210660007E+02 0.  0.
         25    2    1    2    0    0  0.19956188794E+02  0.45731076989E+01 -0.76655158206E+02  0.14813135817E+03  0.12509085981E+03 0.  0.
        -24    2    1    2    0    0 -0.32662263773E+02 -0.69078378221E+01  0.16385403952E+02  0.92736295469E+02  0.84952912466E+02 0.  0.
        -11    1    3    3    0    0  0.25357598375E+02  0.17426264253E+01 -0.18692819927E+04  0.18694547902E+04  0.00000000000E+00 0.  1.
         12    1    3    3    0    0 -0.12651523396E+02  0.59210369799E+00 -0.51141565497E+02  0.52686538627E+02  0.00000000000E+00 0. -1.
         13    1    5    5    0    0 -0.59176322809E+02 -0.17396691318E+02  0.17770403131E+02  0.64189323703E+02  0.00000000000E+00 0. -1.
        -14    1    5    5    0    0  0.26514059036E+02  0.10488853496E+02 -0.13849991792E+01  0.28546971765E+02  0.00000000000E+00 0.  1.
          5    1    4    4  501    0 -0.35610390794E+02 -0.40178165843E+02 -0.22051069964E+02  0.58190265763E+02  0.41800000000E+01 0. -1.
         -5    1    4    4    0  501  0.55566579588E+02  0.44751273542E+02 -0.54604088242E+02  0.89941092408E+02  0.41800000000E+01 0. -1.
</event>
<event>
11    1  0.6455215E-009  0.2230035E+03  0.7561462E-02  0.1039352E+00
         22   -1    0    0    0    0  0.00000000000E+00  0.00000000000E+00  0.22746326960E+03  0.22746326960E+03  0.00000000000E+00 0. -1.
         22   -1    0    0    0    0 -0.00000000000E+00 -0.00000000000E+00 -0.14346998140E+04  0.14346998140E+04  0.00000000000E+00 0.  1.
        -24    2    1    2    0    0 -0.18095087528E+03 -0.33519919195E+02 -0.12925119741E+04  0.13079683562E+04  0.79543782842E+02 0.  0.
         25    2    1    2    0    0  0.18679015680E+03  0.51735113786E+02 -0.60108903588E+01  0.23076160369E+03  0.12509077608E+03 0.  0.
         24    2    1    2    0    0 -0.58392815236E+01 -0.18215194591E+02  0.91286320023E+02  0.12343312373E+03  0.80849571976E+02 0.  0.
        -13    1    5    5    0    0 -0.22906826314E+02 -0.28666950594E+02  0.77128614565E+01  0.37496732924E+02  0.00000000000E+00 0.  1.
         14    1    5    5    0    0  0.17067544790E+02  0.10451756003E+02  0.83573458567E+02  0.85936390810E+02  0.00000000000E+00 0. -1.
         11    1    3    3    0    0 -0.68676807334E+01  0.17724777590E+02 -0.12573427798E+03  0.12716305060E+03  0.00000000000E+00 0. -1.
        -12    1    3    3    0    0 -0.17408319454E+03 -0.51244696785E+02 -0.11667776961E+04  0.11808053056E+04  0.00000000000E+00 0.  1.
          5    1    4    4  501    0  0.19415608614E+03  0.46645301834E+02  0.22120178203E+02  0.20094562611E+03  0.41800000000E+01 0.  1.
         -5    1    4    4    0  501 -0.73659293431E+01  0.50898119514E+01 -0.28131068562E+02  0.29815977583E+02  0.41800000000E+01 0.  1.
</event>
<event>
11    1  0.6455215E-009  0.1383802E+03  0.7561462E-02  0.1109381E+00
         22   -1    0    0    0    0  0.00000000000E+00  0.00000000000E+00  0.12028461359E+04  0.12028461359E+04  0.00000000000E+00 0. -1.
         22   -1    0    0    0    0 -0.00000000000E+00 -0.00000000000E+00 -0.50440746006E+02  0.50440746006E+02  0.00000000000E+00 0. -1.
        -24    2    1    2    0    0 -0.15214241974E+02 -0.17529754245E+02  0.71473031412E+01  0.82445735367E+02  0.78787371420E+02 0.  0.
         25    2    1    2    0    0 -0.45718738698E+02 -0.16083483487E+02  0.67450073332E+03  0.68771149719E+03  0.12508789954E+03 0.  0.
         24    2    1    2    0    0  0.60932980672E+02  0.33613237732E+02  0.47075735345E+03  0.48312964936E+03  0.83421186647E+02 0.  0.
        -11    1    5    5    0    0  0.15710366727E+02 -0.26688329099E+02  0.96147897940E+02  0.10101237949E+03  0.00000000000E+00 0.  1.
         12    1    5    5    0    0  0.45222613946E+02  0.60301566831E+02  0.37460945551E+03  0.38211726987E+03  0.00000000000E+00 0. -1.
         11    1    3    3    0    0 -0.14812438267E+02 -0.58731131456E+01 -0.35137575609E+02  0.38581744454E+02  0.00000000000E+00 0. -1.
        -12    1    3    3    0    0 -0.40180370758E+00 -0.11656641099E+02  0.42284878750E+02  0.43863990913E+02  0.00000000000E+00 0.  1.
          5    1    4    4  501    0 -0.85504711883E+00  0.48728796696E+02  0.36680013210E+03  0.37004734297E+03  0.41800000000E+01 0. -1.
         -5    1    4    4    0  501 -0.44863691579E+02 -0.64812280183E+02  0.30770060122E+03  0.31766415422E+03  0.41800000000E+01 0. -1.
</event>
<event>
11    1  0.6455215E-009  0.1355928E+03  0.7561462E-02  0.1112582E+00
         22   -1    0    0    0    0  0.00000000000E+00  0.00000000000E+00  0.81915508082E+03  0.81915508082E+03  0.00000000000E+00 0. -1.
         22   -1    0    0    0    0 -0.00000000000E+00 -0.00000000000E+00 -0.99110493225E+02  0.99110493225E+02  0.00000000000E+00 0.  1.
         24    2    1    2    0    0 -0.28388390537E+02  0.17985345612E+02 -0.43104171448E+02  0.97405151909E+02  0.80625186189E+02 0.  0.
         25    2    1    2    0    0 -0.17043412482E+02 -0.47242936694E+02  0.15630018055E+03  0.20639601157E+03  0.12508874521E+03 0.  0.
        -24    2    1    2    0    0  0.45431803018E+02  0.29257591083E+02  0.60684857850E+03  0.61446441056E+03  0.79882784512E+02 0.  0.
        -11    1    3    3    0    0 -0.26832816339E+01  0.46368095344E+02 -0.35269201031E+02  0.58319094708E+02  0.00000000000E+00 0.  1.
         12    1    3    3    0    0 -0.25705108903E+02 -0.28382749732E+02 -0.78349704170E+01  0.39086057201E+02  0.00000000000E+00 0. -1.
         13    1    5    5    0    0  0.29596331902E+02  0.16158243445E+01  0.53558605666E+03  0.53640560944E+03  0.00000000000E+00 0. -1.
        -14    1    5    5    0    0  0.15835471116E+02  0.27641766738E+02  0.71262521833E+02  0.78058801117E+02  0.00000000000E+00 0.  1.
          5    1    4    4  501    0  0.33068367295E+02  0.25707213245E+02  0.28301135407E+02  0.50722819260E+02  0.41800000000E+01 0. -1.
         -5    1    4    4    0  501 -0.50111779777E+02 -0.72950149940E+02  0.12799904514E+03  0.15567319231E+03  0.41800000000E+01 0. -1.
</event>
<event>
11    1  0.6455215E-009  0.1406498E+03  0.7561462E-02  0.1106835E+00
         22   -1    0    0    0    0  0.00000000000E+00  0.00000000000E+00  0.10786723229E+04  0.10786723229E+04  0.00000000000E+00 0. -1.
         22   -1    0    0    0    0 -0.00000000000E+00 -0.00000000000E+00 -0.27001957316E+03  0.27001957316E+03  0.00000000000E+00 0. -1.
        -24    2    1    2    0    0 -0.99234327098E+00 -0.34068364998E+01 -0.18513700341E+03  0.20176582865E+03  0.80132067855E+02 0.  0.
         25    2    1    2    0    0  0.30340304312E+02 -0.53905635497E+02 -0.81623251053E+01  0.13978751397E+03  0.12509026304E+03 0.  0.
         24    2    1    2    0    0 -0.29347961041E+02  0.57312471997E+02  0.10019520782E+04  0.10071385534E+04  0.79209067932E+02 0.  0.
        -13    1    5    5    0    0 -0.13700501356E+02  0.28301562271E+02  0.10563016707E+03  0.11021077243E+03  0.00000000000E+00 0.  1.
         14    1    5    5    0    0 -0.15647459685E+02  0.29010909726E+02  0.89632191117E+03  0.89692778099E+03  0.00000000000E+00 0. -1.
         13    1    3    3    0    0  0.45900780187E+01 -0.29685688700E+02 -0.16621081296E+03  0.16890335483E+03  0.00000000000E+00 0. -1.
        -14    1    3    3    0    0 -0.55824212896E+01  0.26278852201E+02 -0.18926190459E+02  0.32862473822E+02  0.00000000000E+00 0.  1.
          5    1    4    4  501    0  0.11856199032E+02 -0.63148533535E+02 -0.57378989572E+02  0.86244580046E+02  0.41800000000E+01 0. -1.
         -5    1    4    4    0  501  0.18484105280E+02  0.92428980373E+01  0.49216664467E+02  0.53542933926E+02  0.41800000000E+01 0. -1.
</event>
<event>
11    1  0.6455215E-009  0.1405547E+03  0.7561462E-02  0.1106941E+00
         22   -1    0    0    0    0  0.00000000000E+00  0.00000000000E+00  0.24009333189E+03  0.24009333189E+03  0.00000000000E+00 0. -1.
         22   -1    0    0    0    0 -0.00000000000E+00 -0.00000000000E+00 -0.16557314570E+04  0.16557314570E+04  0.00000000000E+00 0. -1.
        -24    2    1    2    0    0  0.14876731268E+02 -0.65480962414E+02 -0.14931410983E+04  0.14987371429E+04  0.11060565355E+03 0.  0.
         25    2    1    2    0    0 -0.11735549140E+02  0.31221219988E+02 -0.12264845007E+03  0.17835341759E+03  0.12511918947E+03 0.  0.
         24    2    1    2    0    0 -0.31411821286E+01  0.34259742426E+02  0.20015142323E+03  0.21873422840E+03  0.81243298038E+02 0.  0.
        -11    1    5    5    0    0 -0.11573710874E+02 -0.55549912997E+01 -0.15834811138E+01  0.12935073412E+02  0.00000000000E+00 0.  1.
         12    1    5    5    0    0  0.84325287458E+01  0.39814733726E+02  0.20173490434E+03  0.20579915499E+03  0.00000000000E+00 0. -1.
         11    1    3    3    0    0  0.57754388958E+02 -0.47254937945E+02 -0.11540719125E+04  0.11564819834E+04  0.00000000000E+00 0. -1.
        -12    1    3    3    0    0 -0.42877657689E+02 -0.18226024470E+02 -0.33906918577E+03  0.34225515955E+03  0.00000000000E+00 0.  1.
          5    1    4    4  501    0  0.29404687665E+02 -0.33233103526E+02 -0.77649101411E+02  0.89531727206E+02  0.41800000000E+01 0.  1.
         -5    1    4    4    0  501 -0.41140236804E+02  0.64454323514E+02 -0.44999348656E+02  0.88821690388E+02  0.41800000000E+01 0.  1.
</event>
<event>
11    1  0.6455215E-009  0.1263519E+03  0.7561462E-02  0.1123834E+00
         22   -1    0    0    0    0  0.00000000000E+00  0.00000000000E+00  0.17372307507E+04  0.17372307507E+04  0.00000000000E+00 0. -1.
         22   -1    0    0    0    0 -0.00000000000E+00 -0.00000000000E+00 -0.10577050106E+04  0.10577050106E+04  0.00000000000E+00 0.  1.
         24    2    1    2    0    0 -0.81111761907E+01  0.15885831732E+02 -0.10300422145E+04  0.10333197525E+04  0.80278243172E+02 0.  0.
         25    2    1    2    0    0  0.15132241811E+02 -0.10375444149E+02  0.13417832492E+03  0.18435763183E+03  0.12508908407E+03 0.  0.
        -24    2    1    2    0    0 -0.70210656206E+01 -0.55103875835E+01  0.15753896297E+04  0.15772583769E+04  0.76235441160E+02 0.  0.
        -13    1    3    3    0    0 -0.33765592054E+02  0.13735420775E+02 -0.90086249753E+03  0.90159969856E+03  0.00000000000E+00 0.  1.
         14    1    3    3    0    0  0.25654415864E+02  0.21504109575E+01 -0.12917971700E+03  0.13172005392E+03  0.00000000000E+00 0. -1.
         13    1    5    5    0    0  0.92499255162E+01 -0.28675038622E+02  0.13130890550E+04  0.13134346902E+04  0.00000000000E+00 0. -1.
        -14    1    5    5    0    0 -0.16270991137E+02  0.23164651038E+02  0.26230057467E+03  0.26382368674E+03  0.00000000000E+00 0.  1.
          5    1    4    4  501    0  0.30872014253E+02  0.52700751378E+02  0.62108296661E+02  0.87208734505E+02  0.41800000000E+01 0.  1.
         -5    1    4    4    0  501 -0.15739772442E+02 -0.63076195526E+02  0.72070028260E+02  0.97148897328E+02  0.41800000000E+01 0.  1.
</event>
<event>
11    1  0.6455215E-009  0.1400764E+03  0.7561462E-02  0.1107473E+00
         22   -1    0    0    0    0  0.00000000000E+00  0.00000000000E+00  0.15269324635E+04  0.15269324635E+04  0.00000000000E+00 0.  1.
         22   -1    0    0    0    0 -0.00000000000E+00 -0.00000000000E+00 -0.42763192130E+02  0.42763192130E+02  0.00000000000E+00 0.  1.
         24    2    1    2    0    0  0.11927823562E+01  0.13460714789E+01  0.22947123341E+02  0.79445863614E+02  0.76038412250E+02 0.  0.
         25    2    1    2    0    0 -0.60054293674E+02  0.20915230450E+02  0.39492578224E+03  0.41911571780E+03  0.12509055271E+03 0.  0.
        -24    2    1    2    0    0  0.58861511318E+02 -0.22261301929E+02  0.10662963658E+04  0.10711340743E+04  0.79875040957E+02 0.  0.
        -11    1    3    3    0    0  0.12120314539E+02 -0.18050932854E+02 -0.20970452878E+02  0.30207583408E+02  0.00000000000E+00 0.  1.
         12    1    3    3    0    0 -0.10927532183E+02  0.19397004333E+02  0.43917576219E+02  0.49238280206E+02  0.00000000000E+00 0. -1.
         11    1    5    5    0    0  0.13215891978E+02 -0.30142516631E+02  0.14561389364E+03  0.14928709633E+03  0.00000000000E+00 0. -1.
        -12    1    5    5    0    0  0.45645619341E+02  0.78812147026E+01  0.92068247219E+03  0.92184697793E+03  0.00000000000E+00 0.  1.
          5    1    4    4  501    0 -0.17788572631E+02 -0.27138888411E+02  0.19156806886E+02  0.37913166981E+02  0.41800000000E+01 0. -1.
         -5    1    4    4    0  501 -0.42265721043E+02  0.48054118861E+02  0.37576897535E+03  0.38120255082E+03  0.41800000000E+01 0. -1.
</event>
<event>
11    1  0.6455215E-009  0.2140435E+03  0.7561462E-02  0.1045014E+00
         22   -1    0    0    0    0  0.00000000000E+00  0.00000000000E+00  0.29510399480E+03  0.29510399480E+03  0.00000000000E+00 0. -1.
         22   -1    0    0    0    0 -0.00000000000E+00 -0.00000000000E+00 -0.79763811808E+03  0.79763811808E+03  0.00000000000E+00 0.  1.
         24    2    1    2    0    0 -0.18382637977E+02  0.11111728477E+03 -0.56006985784E+03  0.57674266840E+03  0.79176306650E+02 0.  0.
         25    2    1    2    0    0  0.14690032692E+03 -0.20289305844E+03 -0.80235117154E+02  0.29126749048E+03  0.12511505814E+03 0.  0.
        -24    2    1    2    0    0 -0.12851768895E+03  0.91775773665E+02  0.13777085171E+03  0.22473195400E+03  0.81142187314E+02 0.  0.
        -11    1    3    3    0    0 -0.43957523572E+02  0.71192455855E+02 -0.43528753128E+03  0.44325598082E+03  0.00000000000E+00 0.  1.
         12    1    3    3    0    0  0.25574885595E+02  0.39924828920E+02 -0.12478232657E+03  0.13348668758E+03  0.00000000000E+00 0. -1.
         11    1    5    5    0    0 -0.13123571321E+03  0.79964837695E+02  0.14443612331E+03  0.21090040637E+03  0.00000000000E+00 0. -1.
        -12    1    5    5    0    0  0.27180242601E+01  0.11810935970E+02 -0.66652715991E+01  0.13831547631E+02  0.00000000000E+00 0.  1.
          5    1    4    4  501    0  0.22962695447E+02 -0.13618491806E+03 -0.27346098640E+02  0.14085062584E+03  0.41800000000E+01 0. -1.
         -5    1    4    4    0  501  0.12393763148E+03 -0.66708140377E+02 -0.52889018514E+02  0.15041686464E+03  0.41800000000E+01 0. -1.
</event>
<event>
11    1  0.7501604E-009  0.1650304E+03  0.7561462E-02  0.1082439E+00
         22   -1    0    0    0    0  0.00000000000E+00  0.00000000000E+00  0.48634863054E+03  0.48634863054E+03  0.00000000000E+00 0. -1.
         22   -1    0    0    0    0 -0.00000000000E+00 -0.00000000000E+00 -0.99656371002E+03  0.99656371002E+03  0.00000000000E+00 0. -1.
        -24    2    1    2    0    0  0.86425673068E+02  0.21298069268E+00 -0.80930037991E+03  0.81759290696E+03  0.77599060916E+02 0.  0.
         25    2    1    2    0    0 -0.96811088999E+02  0.10636066293E+03 -0.12012182016E+03  0.22529955757E+03  0.12508261827E+03 0.  0.
         24    2    1    2    0    0  0.10385415931E+02 -0.10657364362E+03  0.41920712059E+03  0.44001987603E+03  0.80106697415E+02 0.  0.
        -13    1    5    5    0    0  0.10405182040E+01 -0.17894177531E+02  0.86716370958E+01  0.19911844655E+02  0.00000000000E+00 0.  1.
         14    1    5    5    0    0  0.93448977269E+01 -0.88679466090E+02  0.41053548349E+03  0.42010803138E+03  0.00000000000E+00 0. -1.
         11    1    3    3    0    0  0.98004898912E+02 -0.45233086053E+01 -0.60440482534E+03  0.61231577917E+03  0.00000000000E+00 0. -1.
        -12    1    3    3    0    0 -0.11579225844E+02  0.47362892980E+01 -0.20489555457E+03  0.20527712778E+03  0.00000000000E+00 0.  1.
          5    1    4    4  501    0 -0.78223754246E+02  0.16890858994E+02 -0.10577910703E+03  0.13270624977E+03  0.41800000000E+01 0.  1.
         -5    1    4    4    0  501 -0.18587334753E+02  0.89469803934E+02 -0.14342713134E+02  0.92593307799E+02  0.41800000000E+01 0.  1.
</event>
<event>
11    1  0.6455215E-009  0.1423411E+03  0.7561462E-02  0.1104972E+00
         22   -1    0    0    0    0  0.00000000000E+00  0.00000000000E+00  0.93507102115E+03  0.93507102115E+03  0.00000000000E+00 0.  1.
         22   -1    0    0    0    0 -0.00000000000E+00 -0.00000000000E+00 -0.10703521331E+03  0.10703521331E+03  0.00000000000E+00 0.  1.
        -24    2    1    2    0    0 -0.55839244785E+02 -0.58288934860E+02 -0.24336899194E+02  0.12075804343E+03  0.86455764442E+02 0.  0.
         25    2    1    2    0    0  0.17041039242E+02  0.28757107777E+02  0.10135869117E+03  0.16443155903E+03  0.12508710990E+03 0.  0.
         24    2    1    2    0    0  0.38798205543E+02  0.29531827083E+02  0.75101401586E+03  0.75691663201E+03  0.80766987216E+02 0.  0.
        -13    1    5    5    0    0  0.60376957440E+02  0.69868030174E+01  0.57008691631E+03  0.57331778670E+03  0.00000000000E+00 0.  1.
         14    1    5    5    0    0 -0.21578751897E+02  0.22545024066E+02  0.18092709956E+03  0.18359884531E+03  0.00000000000E+00 0. -1.
         11    1    3    3    0    0 -0.10510759874E+02 -0.83078842668E+01  0.30821488557E+02  0.33607457074E+02  0.00000000000E+00 0. -1.
        -12    1    3    3    0    0 -0.45328484911E+02 -0.49981050593E+02 -0.55158387751E+02  0.87150586355E+02  0.00000000000E+00 0.  1.
          5    1    4    4  501    0 -0.25408431972E+02  0.32290220528E+02  0.11280398783E+03  0.12012684474E+03  0.41800000000E+01 0.  1.
         -5    1    4    4    0  501  0.42449471214E+02 -0.35331127516E+01 -0.11445296664E+02  0.44304714284E+02  0.41800000000E+01 0.  1.
</event>
<event>
11    1  0.6455215E-009  0.1598485E+03  0.7561462E-02  0.1087220E+00
         22   -1    0    0    0    0  0.00000000000E+00  0.00000000000E+00  0.45066783228E+03  0.45066783228E+03  0.00000000000E+00 0.  1.
         22   -1    0    0    0    0 -0.00000000000E+00 -0.00000000000E+00 -0.57037373382E+03  0.57037373382E+03  0.00000000000E+00 0. -1.
        -24    2    1    2    0    0  0.64223008939E+01 -0.87274979004E+02 -0.49138241436E+03  0.50553442191E+03  0.80313178758E+02 0.  0.
         25    2    1    2    0    0 -0.14817952662E+02 -0.26225063152E+02  0.89238708061E+01  0.12897355885E+03  0.12508883945E+03 0.  0.
         24    2    1    2    0    0  0.83956517681E+01  0.11350004216E+03  0.36275264202E+03  0.38653358535E+03  0.69756625279E+02 0.  0.
        -13    1    5    5    0    0  0.87614642594E+01  0.90237789626E+02  0.34647254340E+03  0.35813802544E+03  0.00000000000E+00 0.  1.
         14    1    5    5    0    0 -0.36581249130E+00  0.23262252530E+02  0.16280098617E+02  0.28395559909E+02  0.00000000000E+00 0. -1.
         13    1    3    3    0    0 -0.17976947521E+02 -0.72816501212E+02 -0.21512300726E+03  0.22782300530E+03  0.00000000000E+00 0. -1.
        -14    1    3    3    0    0  0.24399248415E+02 -0.14458477792E+02 -0.27625940710E+03  0.27771141661E+03  0.00000000000E+00 0.  1.
          5    1    4    4  501    0  0.16233536223E+02 -0.69123404688E+02  0.21649257793E+02  0.74348742672E+02  0.41800000000E+01 0.  1.
         -5    1    4    4    0  501 -0.31051488885E+02  0.42898341536E+02 -0.12725386987E+02  0.54624816178E+02  0.41800000000E+01 0.  1.
</event>
<event>
11    1  0.6455215E-009  0.2426456E+03  0.7561462E-02  0.1027892E+00
         22   -1    0    0    0    0  0.00000000000E+00  0.00000000000E+00  0.21535986536E+04  0.21535986536E+04  0.00000000000E+00 0.  1.
         22   -1    0    0    0    0 -0.00000000000E+00 -0.00000000000E+00 -0.40711678642E+03  0.40711678642E+03  0.00000000000E+00 0. -1.
         24    2    1    2    0    0  0.10325312453E+03 -0.18565547401E+03 -0.28960416932E+03  0.36856068064E+03  0.82687590817E+02 0.  0.
         25    2    1    2    0    0 -0.93129967327E+02  0.16429992676E+03  0.89259682017E+02  0.24348259559E+03  0.12509527079E+03 0.  0.
        -24    2    1    2    0    0 -0.10123157202E+02  0.21355547242E+02  0.19468263544E+04  0.19486721637E+04  0.81435924032E+02 0.  0.
        -13    1    3    3    0    0  0.18232475797E+01 -0.38498302890E+02 -0.10391734664E+03  0.11083437414E+03  0.00000000000E+00 0.  1.
         14    1    3    3    0    0  0.10142987695E+03 -0.14715717112E+03 -0.18568682267E+03  0.25772630650E+03  0.00000000000E+00 0. -1.
         13    1    5    5    0    0  0.31841914195E+02 -0.43044592440E+01  0.51517323750E+03  0.51617429276E+03  0.00000000000E+00 0. -1.
        -14    1    5    5    0    0 -0.41965071398E+02  0.25660006486E+02  0.14316531169E+04  0.14324978710E+04  0.00000000000E+00 0.  1.
          5    1    4    4  501    0 -0.29320063165E+02  0.15950414919E+03  0.68252056551E+02  0.17600299809E+03  0.41800000000E+01 0. -1.
         -5    1    4    4    0  501 -0.63809904163E+02  0.47957775761E+01  0.21007625466E+02  0.67479597506E+02  0.41800000000E+01 0. -1.
</event>
<event>
11    1  0.6455215E-009  0.1936229E+03  0.7561462E-02  0.1059127E+00
         22   -1    0    0    0    0  0.00000000000E+00  0.00000000000E+00  0.41649632089E+03  0.41649632089E+03  0.00000000000E+00 0.  1.
         22   -1    0    0    0    0 -0.00000000000E+00 -0.00000000000E+00 -0.77959979121E+03  0.77959979121E+03  0.00000000000E+00 0. -1.
        -24    2    1    2    0    0  0.13835297880E+02  0.31411493540E+02 -0.69508659862E+03  0.70048926090E+03  0.79760439209E+02 0.  0.
         25    2    1    2    0    0  0.49773429989E+02 -0.15503109215E+03  0.16072799228E+03  0.26075898550E+03  0.12509886950E+03 0.  0.
         24    2    1    2    0    0 -0.63608727869E+02  0.12361959861E+03  0.17125513602E+03  0.23484786570E+03  0.80605973663E+02 0.  0.
        -11    1    5    5    0    0 -0.44119444036E+01  0.72445492046E+02  0.12328965262E+03  0.14306695291E+03  0.00000000000E+00 0.  1.
         12    1    5    5    0    0 -0.59196783465E+02  0.51174106564E+02  0.47965483394E+02  0.91780912789E+02  0.00000000000E+00 0. -1.
         11    1    3    3    0    0  0.14207104956E+02  0.47966374738E+02 -0.65769813599E+03  0.65959794801E+03  0.00000000000E+00 0. -1.
        -12    1    3    3    0    0 -0.37180707574E+00 -0.16554881198E+02 -0.37388462631E+02  0.40891312890E+02  0.00000000000E+00 0.  1.
          5    1    4    4  501    0  0.82267860528E+02 -0.84927136241E+02  0.56948405235E+02  0.13130579806E+03  0.41800000000E+01 0.  1.
         -5    1    4    4    0  501 -0.32494430540E+02 -0.70103955908E+02  0.10377958705E+03  0.12945318744E+03  0.41800000000E+01 0.  1.
</event>
<event>
11    1  0.6455215E-009  0.1445520E+03  0.7561462E-02  0.1102579E+00
         22   -1    0    0    0    0  0.00000000000E+00  0.00000000000E+00  0.12519113057E+03  0.12519113057E+03  0.00000000000E+00 0.  1.
         22   -1    0    0    0    0 -0.00000000000E+00 -0.00000000000E+00 -0.16156698692E+04  0.16156698692E+04  0.00000000000E+00 0. -1.
         24    2    1    2    0    0  0.46226304952E+02  0.57485593014E+02 -0.10899659090E+04  0.10953869367E+04  0.80033703710E+02 0.  0.
         25    2    1    2    0    0 -0.21016181723E+02 -0.68333388958E+02 -0.49666671066E+03  0.51714270517E+03  0.12509046363E+03 0.  0.
        -24    2    1    2    0    0 -0.25210123229E+02  0.10847795944E+02  0.96153881007E+02  0.12833135788E+03  0.80437202790E+02 0.  0.
        -13    1    3    3    0    0  0.48005305195E+02 -0.28892645668E+01 -0.43994209725E+03  0.44256288379E+03  0.00000000000E+00 0.  1.
         14    1    3    3    0    0 -0.17790002427E+01  0.60374857580E+02 -0.65002381170E+03  0.65282405291E+03  0.00000000000E+00 0. -1.
         13    1    5    5    0    0 -0.61421996722E+01  0.18278518107E+02 -0.89464101670E+01  0.21257212796E+02  0.00000000000E+00 0. -1.
        -14    1    5    5    0    0 -0.19067923557E+02 -0.74307221626E+01  0.10510029117E+03  0.10707414508E+03  0.00000000000E+00 0.  1.
          5    1    4    4  501    0 -0.13817912251E+02 -0.53273435884E+02 -0.65593307639E+02  0.85726005838E+02  0.41800000000E+01 0. -1.
         -5    1    4    4    0  501 -0.71982694729E+01 -0.15059953073E+02 -0.43107340302E+03  0.43141669933E+03  0.41800000000E+01 0. -1.
</event>
<event>
11    1  0.6455215E-009  0.1310606E+03  0.7561462E-02  0.1117973E+00
         22   -1    0    0    0    0  0.00000000000E+00  0.00000000000E+00  0.49400658765E+03  0.49400658765E+03  0.00000000000E+00 0. -1.
         22   -1    0    0    0    0 -0.00000000000E+00 -0.00000000000E+00 -0.35818954998E+03  0.35818954998E+03  0.00000000000E+00 0. -1.
         24    2    1    2    0    0 -0.30608722630E+02  0.21030445655E+02 -0.25363749581E+03  0.26834373803E+03  0.79354955201E+02 0.  0.
         25    2    1    2    0    0  0.34514264684E+01  0.93969745996E+01 -0.50186168182E+02  0.13515363425E+03  0.12509051882E+03 0.  0.
        -24    2    1    2    0    0  0.27157296161E+02 -0.30427420255E+02  0.43964070166E+03  0.44869876535E+03  0.79895486964E+02 0.  0.
        -11    1    3    3    0    0 -0.21362111146E+02  0.25778746322E+02 -0.31518031413E+02  0.45981190271E+02  0.00000000000E+00 0.  1.
         12    1    3    3    0    0 -0.92466114841E+01 -0.47483006670E+01 -0.22211946439E+03  0.22236254776E+03  0.00000000000E+00 0. -1.
         13    1    5    5    0    0 -0.40488199599E+01  0.10756082688E+02  0.29291939264E+03  0.29314477113E+03  0.00000000000E+00 0. -1.
        -14    1    5    5    0    0  0.31206116121E+02 -0.41183502943E+02  0.14672130902E+03  0.15555399422E+03  0.00000000000E+00 0.  1.
          5    1    4    4  501    0  0.26378880519E+02  0.56042214737E+02  0.99516493380E+00  0.62088951701E+02  0.41800000000E+01 0. -1.
         -5    1    4    4    0  501 -0.22927454050E+02 -0.46645240137E+02 -0.51181333115E+02  0.73064682550E+02  0.41800000000E+01 0. -1.
</event>
<event>
11    1  0.6592722E-009  0.2125477E+03  0.7561462E-02  0.1045989E+00
         22   -1    0    0    0    0  0.00000000000E+00  0.00000000000E+00  0.14306703606E+04  0.14306703606E+04  0.00000000000E+00 0.  1.
         22   -1    0    0    0    0 -0.00000000000E+00 -0.00000000000E+00 -0.11111186748E+04  0.11111186748E+04  0.00000000000E+00 0.  1.
        -24    2    1    2    0    0 -0.60213007734E+01  0.43585600741E+01 -0.99522124848E+03  0.99856050805E+03  0.81255779594E+02 0.  0.
         25    2    1    2    0    0 -0.13423122475E+03  0.95725489303E+02 -0.71926828444E+01  0.20707700651E+03  0.12509101063E+03 0.  0.
         24    2    1    2    0    0  0.14025252552E+03 -0.10008404938E+03  0.13219656171E+04  0.13361515208E+04  0.89555601903E+02 0.  0.
        -11    1    5    5    0    0  0.13548079832E+03 -0.11549282787E+03  0.12058123102E+04  0.12188834921E+04  0.00000000000E+00 0.  1.
         12    1    5    5    0    0  0.47717272036E+01  0.15408778494E+02  0.11615330692E+03  0.11726802866E+03  0.00000000000E+00 0. -1.
         11    1    3    3    0    0  0.16308360176E+02 -0.60670972869E+01 -0.48643134727E+02  0.51661657322E+02  0.00000000000E+00 0. -1.
        -12    1    3    3    0    0 -0.22329660950E+02  0.10425657361E+02 -0.94657811375E+03  0.94689885073E+03  0.00000000000E+00 0.  1.
          5    1    4    4  501    0 -0.13555662202E+02 -0.18352244334E+02  0.28930307109E+02  0.37080937410E+02  0.41800000000E+01 0. -1.
         -5    1    4    4    0  501 -0.12067556255E+03  0.11407773364E+03 -0.36122989953E+02  0.16999606910E+03  0.41800000000E+01 0. -1.
</event>
<event>
11    1  0.6455215E-009  0.1582022E+03  0.7561462E-02  0.1088780E+00
         22   -1    0    0    0    0  0.00000000000E+00  0.00000000000E+00  0.34636886402E+03  0.34636886402E+03  0.00000000000E+00 0.  1.
         22   -1    0    0    0    0 -0.00000000000E+00 -0.00000000000E+00 -0.16548594991E+03  0.16548594991E+03  0.00000000000E+00 0.  1.
         24    2    1    2    0    0 -0.65032482449E+02  0.68932825232E+02 -0.60508862275E+02  0.13703439017E+03  0.78333540115E+02 0.  0.
         25    2    1    2    0    0  0.36343179645E+02 -0.10501062522E+03  0.72807614807E+02  0.18247309872E+03  0.12508966730E+03 0.  0.
        -24    2    1    2    0    0  0.28689302804E+02  0.36077799989E+02  0.16858416157E+03  0.19234732504E+03  0.80325526264E+02 0.  0.
        -11    1    3    3    0    0 -0.29771881064E+02  0.84261352443E+01 -0.59421641599E+02  0.66994747164E+02  0.00000000000E+00 0.  1.
         12    1    3    3    0    0 -0.35260601385E+02  0.60506689988E+02 -0.10872206755E+01  0.70039643004E+02  0.00000000000E+00 0. -1.
         11    1    5    5    0    0 -0.17248511902E+02  0.73574517055E+01  0.41333758929E+01  0.19202292954E+02  0.00000000000E+00 0. -1.
        -12    1    5    5    0    0  0.45937814706E+02  0.28720348283E+02  0.16445078568E+03  0.17314503209E+03  0.00000000000E+00 0.  1.
          5    1    4    4  501    0  0.74354667214E+02 -0.25991865030E+02  0.42529189437E+02  0.89612487625E+02  0.41800000000E+01 0. -1.
         -5    1    4    4    0  501 -0.38011487569E+02 -0.79018760191E+02  0.30278425370E+02  0.92860611091E+02  0.41800000000E+01 0. -1.
</event>
<event>
11    1  0.6455215E-009  0.1631206E+03  0.7561462E-02  0.1084178E+00
         22   -1    0    0    0    0  0.00000000000E+00  0.00000000000E+00  0.16500754346E+04  0.16500754346E+04  0.00000000000E+00 0. -1.
         22   -1    0    0    0    0 -0.00000000000E+00 -0.00000000000E+00 -0.59404073026E+03  0.59404073026E+03  0.00000000000E+00 0. -1.
        -24    2    1    2    0    0  0.71068941163E+02  0.79437233714E+02 -0.56622700985E+03  0.58172831026E+03  0.80210546570E+02 0.  0.
         25    2    1    2    0    0 -0.64162012138E+02  0.11974850260E+02  0.27079619339E+03  0.30534971554E+03  0.12509080536E+03 0.  0.
         24    2    1    2    0    0 -0.69069290248E+01 -0.91412083974E+02  0.13514655208E+04  0.13570381390E+04  0.81789866026E+02 0.  0.
        -13    1    5    5    0    0  0.20650620214E+02 -0.22950756602E+02  0.80741360870E+03  0.80800366388E+03  0.00000000000E+00 0.  1.
         14    1    5    5    0    0 -0.27557549239E+02 -0.68461327372E+02  0.54405191206E+03  0.54903447513E+03  0.00000000000E+00 0. -1.
         13    1    3    3    0    0  0.86348160432E+02  0.74034099839E+02 -0.52959553107E+03  0.54167192956E+03  0.00000000000E+00 0. -1.
        -14    1    3    3    0    0 -0.15279219269E+02  0.54031338751E+01 -0.36631478778E+02  0.40056380697E+02  0.00000000000E+00 0.  1.
          5    1    4    4  501    0 -0.13816433808E+02  0.18295698326E+02 -0.58745640123E+01  0.24033504171E+02  0.41800000000E+01 0.  1.
         -5    1    4    4    0  501 -0.50345578329E+02 -0.63208480664E+01  0.27667075740E+03  0.28131621136E+03  0.41800000000E+01 0.  1.
</event>
<event>
11    1  0.6455215E-009  0.1430284E+03  0.7561462E-02  0.1104223E+00
         22   -1    0    0    0    0  0.00000000000E+00  0.00000000000E+00  0.27719201355E+03  0.27719201355E+03  0.00000000000E+00 0. -1.
         22   -1    0    0    0    0 -0.00000000000E+00 -0.00000000000E+00 -0.48068192249E+03  0.48068192249E+03  0.00000000000E+00 0.  1.
         24    2    1    2    0    0  0.61447322347E+02  0.17436360256E+02 -0.35179908858E+03  0.36778258501E+03  0.86148888714E+02 0.  0.
         25    2    1    2    0    0 -0.11174264663E+03 -0.25521697585E+02 -0.43869560890E+02  0.17523715553E+03  0.12508295720E+03 0.  0.
        -24    2    1    2    0    0  0.50295324284E+02  0.80853373297E+01  0.19217874054E+03  0.21485419550E+03  0.81453451039E+02 0.  0.
        -13    1    3    3    0    0  0.69239981584E+02  0.12144620362E+02 -0.35139163346E+03  0.35835421990E+03  0.00000000000E+00 0.  1.
         14    1    3    3    0    0 -0.77926592367E+01  0.52917398938E+01 -0.40745512713E+00  0.94283651161E+01  0.00000000000E+00 0. -1.
         13    1    5    5    0    0  0.55554063050E+02 -0.23542217587E+02  0.15140537184E+03  0.16298489670E+03  0.00000000000E+00 0. -1.
        -14    1    5    5    0    0 -0.52587387659E+01  0.31627554917E+02  0.40773368700E+02  0.51869298806E+02  0.00000000000E+00 0.  1.
          5    1    4    4  501    0 -0.13926457484E+03 -0.16059752400E+02 -0.35726572596E+02  0.14472870428E+03  0.41800000000E+01 0. -1.
         -5    1    4    4    0  501  0.27521928212E+02 -0.94619451854E+01 -0.81429882935E+01  0.30508451247E+02  0.41800000000E+01 0. -1.
</event>
<event>
11    1  0.6455215E-009  0.1486197E+03  0.7561462E-02  0.1098298E+00
         22   -1    0    0    0    0  0.00000000000E+00  0.00000000000E+00  0.12732385699E+04  0.12732385699E+04  0.00000000000E+00 0.  1.
         22   -1    0    0    0    0 -0.00000000000E+00 -0.00000000000E+00 -0.23434409932E+03  0.23434409932E+03  0.00000000000E+00 0.  1.
         24    2    1    2    0    0  0.39662985914E+02  0.25936133013E+02 -0.17793990414E+03  0.20057834156E+03  0.79518715840E+02 0.  0.
         25    2    1    2    0    0 -0.18798643856E+02  0.53787695890E+02  0.69360076796E+02  0.15395828883E+03  0.12508328908E+03 0.  0.
        -24    2    1    2    0    0 -0.20864342058E+02 -0.79723828903E+02  0.11474742979E+04  0.11530460388E+04  0.77631782268E+02 0.  0.
        -13    1    3    3    0    0  0.12576177417E+02 -0.83365607274E+01 -0.14521306794E+03  0.14599484095E+03  0.00000000000E+00 0.  1.
         14    1    3    3    0    0  0.27086808497E+02  0.34272693740E+02 -0.32726836198E+02  0.54583500605E+02  0.00000000000E+00 0. -1.
         13    1    5    5    0    0  0.17340064123E+01  0.15221217956E+02  0.12911670015E+03  0.13002236158E+03  0.00000000000E+00 0. -1.
        -14    1    5    5    0    0 -0.22598348471E+02 -0.94945046859E+02  0.10183575978E+04  0.10230236773E+04  0.00000000000E+00 0.  1.
          5    1    4    4  501    0 -0.26509644285E+02 -0.37052120185E+02  0.29019384892E+02  0.54177651756E+02  0.41800000000E+01 0. -1.
         -5    1    4    4    0  501  0.77110004287E+01  0.90839816075E+02  0.40340691904E+02  0.99780637076E+02  0.41800000000E+01 0. -1.
</event>
<event>
11    1  0.6455215E-009  0.1334158E+03  0.7561462E-02  0.1115142E+00
         22   -1    0    0    0    0  0.00000000000E+00  0.00000000000E+00  0.24246396926E+03  0.24246396926E+03  0.00000000000E+00 0. -1.
         22   -1    0    0    0    0 -0.00000000000E+00 -0.00000000000E+00 -0.82664406247E+03  0.82664406247E+03  0.00000000000E+00 0. -1.
        -24    2    1    2    0    0 -0.16373497165E+02 -0.45332162362E+02 -0.43436879037E+03  0.44492854037E+03  0.83438981459E+02 0.  0.
         25    2    1    2    0    0  0.58339199925E+02  0.15095746339E+02 -0.36420412256E+03  0.38977390357E+03  0.12509080386E+03 0.  0.
         24    2    1    2    0    0 -0.41965702760E+02  0.30236416023E+02  0.21439281973E+03  0.23440558780E+03  0.79412451033E+02 0.  0.
        -11    1    5    5    0    0 -0.11309828449E+02 -0.20870024012E+02  0.19863193517E+02  0.30951842893E+02  0.00000000000E+00 0.  1.
         12    1    5    5    0    0 -0.30655874312E+02  0.51106440035E+02  0.19452962621E+03  0.20345374491E+03  0.00000000000E+00 0. -1.
         13    1    3    3    0    0  0.11729821099E+02 -0.59347448077E+02 -0.34349316708E+03  0.34877967849E+03  0.00000000000E+00 0. -1.
        -14    1    3    3    0    0 -0.28103318264E+02  0.14015285714E+02 -0.90875623295E+02  0.96148861877E+02  0.00000000000E+00 0.  1.
          5    1    4    4  501    0  0.51647467223E+02  0.29695563863E+02 -0.58435215168E+02  0.83554976844E+02  0.41800000000E+01 0.  1.
         -5    1    4    4    0  501  0.66917327018E+01 -0.14599817524E+02 -0.30576890739E+03  0.30621892673E+03  0.41800000000E+01 0.  1.
</event>
<event>
11    1  0.6455215E-009  0.1401966E+03  0.7561462E-02  0.1107339E+00
         22   -1    0    0    0    0  0.00000000000E+00  0.00000000000E+00  0.13540497929E+03  0.13540497929E+03  0.00000000000E+00 0. -1.
         22   -1    0    0    0    0 -0.00000000000E+00 -0.00000000000E+00 -0.67679938106E+03  0.67679938106E+03  0.00000000000E+00 0.  1.
        -24    2    1    2    0    0 -0.35777698739E+02  0.13242309616E+02 -0.35640287581E+03  0.36694611962E+03  0.78555982086E+02 0.  0.
         25    2    1    2    0    0  0.91705547667E+02  0.11377089988E+02 -0.26944098263E+03  0.31110380602E+03  0.12509112420E+03 0.  0.
         24    2    1    2    0    0 -0.55927848927E+02 -0.24619399604E+02  0.84449456674E+02  0.13415443471E+03  0.84449171089E+02 0.  0.
        -11    1    5    5    0    0 -0.26430895917E+02 -0.22504206658E+02 -0.92286513577E+01  0.35919348299E+02  0.00000000000E+00 0.  1.
         12    1    5    5    0    0 -0.29496953010E+02 -0.21151929458E+01  0.93678108031E+02  0.98235086412E+02  0.00000000000E+00 0. -1.
         13    1    3    3    0    0  0.13580779255E+02 -0.12276215934E+02 -0.25388198726E+02  0.31300218488E+02  0.00000000000E+00 0. -1.
        -14    1    3    3    0    0 -0.49358477995E+02  0.25518525550E+02 -0.33101467709E+03  0.33564590113E+03  0.00000000000E+00 0.  1.
          5    1    4    4  501    0  0.12524811278E+01 -0.42309706759E+02 -0.38788627201E+02  0.57564832972E+02  0.41800000000E+01 0.  1.
         -5    1    4    4    0  501  0.90453066539E+02  0.53686796747E+02 -0.23065235542E+03  0.25353897305E+03  0.41800000000E+01 0.  1.
</event>
<event>
11    1  0.6455215E-009  0.1702502E+03  0.7561462E-02  0.1077814E+00
         22   -1    0    0    0    0  0.00000000000E+00  0.00000000000E+00  0.23112493132E+04  0.23112493132E+04  0.00000000000E+00 0. -1.
         22   -1    0    0    0    0 -0.00000000000E+00 -0.00000000000E+00 -0.12046096528E+03  0.12046096528E+03  0.00000000000E+00 0.  1.
         24    2    1    2    0    0  0.10373565801E+03 -0.54354884084E+02 -0.56642844675E+02  0.15292138001E+03  0.80380323745E+02 0.  0.
         25    2    1    2    0    0 -0.10738381959E+03  0.83006072679E+01  0.45539512231E+03  0.48438722763E+03  0.12508430788E+03 0.  0.
        -24    2    1    2    0    0  0.36481615773E+01  0.46054276816E+02  0.17920360703E+04  0.17944016708E+04  0.79685466777E+02 0.  0.
        -13    1    3    3    0    0  0.86627813785E+02 -0.50649304473E+02 -0.76697276337E+02  0.12630202834E+03  0.00000000000E+00 0.  1.
         14    1    3    3    0    0  0.17107844230E+02 -0.37055796112E+01  0.20054431662E+02  0.26619351677E+02  0.00000000000E+00 0. -1.
         11    1    5    5    0    0  0.15806932116E+01  0.57310583567E+02  0.17467905814E+04  0.17477311970E+04  0.00000000000E+00 0. -1.
        -12    1    5    5    0    0  0.20674683657E+01 -0.11256306751E+02  0.45245488851E+02  0.46670473841E+02  0.00000000000E+00 0.  1.
          5    1    4    4  501    0 -0.69782473684E+02  0.62351992138E+02  0.20400409662E+03  0.22448275746E+03  0.41800000000E+01 0. -1.
         -5    1    4    4    0  501 -0.37601345908E+02 -0.54051384871E+02  0.25139102569E+03  0.25990447017E+03  0.41800000000E+01 0. -1.
</event>
<event>
11    1  0.6455215E-009  0.1340484E+03  0.7561462E-02  0.1114393E+00
         22   -1    0    0    0    0  0.00000000000E+00  0.00000000000E+00  0.71192687783E+02  0.71192687783E+02  0.00000000000E+00 0.  1.
         22   -1    0    0    0    0 -0.00000000000E+00 -0.00000000000E+00 -0.11442599868E+04  0.11442599868E+04  0.00000000000E+00 0.  1.
         24    2    1    2    0    0  0.25163799133E+01  0.50594986101E+02 -0.92183273369E+03  0.92689688501E+03  0.82438229877E+02 0.  0.
         25    2    1    2    0    0 -0.18695128519E+02 -0.24318727130E+02 -0.15590272711E+03  0.20222296398E+03  0.12509020154E+03 0.  0.
        -24    2    1    2    0    0  0.16178748606E+02 -0.26276258972E+02  0.46681618195E+01  0.86332825561E+02  0.80494542315E+02 0.  0.
        -11    1    3    3    0    0 -0.20922197875E+02  0.62398938870E+02 -0.51000750543E+03  0.51423634793E+03  0.00000000000E+00 0.  1.
         12    1    3    3    0    0  0.23438577788E+02 -0.11803952769E+02 -0.41182522826E+03  0.41266053708E+03  0.00000000000E+00 0. -1.
         13    1    5    5    0    0  0.17820975731E+02 -0.24912641464E+02 -0.35055255838E+02  0.46552098154E+02  0.00000000000E+00 0. -1.
        -14    1    5    5    0    0 -0.16422271255E+01 -0.13636175082E+01  0.39723417657E+02  0.39780727407E+02  0.00000000000E+00 0.  1.
          5    1    4    4  501    0 -0.58161293917E+02  0.97877783201E+01 -0.30911501174E+02  0.66719787315E+02  0.41800000000E+01 0. -1.
         -5    1    4    4    0  501  0.39466165398E+02 -0.34106505450E+02 -0.12499122594E+03  0.13550317667E+03  0.41800000000E+01 0. -1.
</event>
<event>
11    1  0.6455215E-009  0.1702080E+03  0.7561462E-02  0.1077851E+00
         22   -1    0    0    0    0  0.00000000000E+00  0.00000000000E+00  0.15900309041E+03  0.15900309041E+03  0.00000000000E+00 0.  1.
         22   -1    0    0    0    0 -0.00000000000E+00 -0.00000000000E+00 -0.49208042270E+03  0.49208042270E+03  0.00000000000E+00 0. -1.
        -24    2    1    2    0    0  0.10762619486E+03  0.27467257460E+02 -0.28474071679E+03  0.31729879697E+03  0.85225598908E+02 0.  0.
         25    2    1    2    0    0 -0.12835958917E+03 -0.12670435546E+02 -0.12561908071E+03  0.21923674849E+03  0.12509146405E+03 0.  0.
         24    2    1    2    0    0  0.20733394314E+02 -0.14796821914E+02  0.77282465214E+02  0.11454796766E+03  0.80621572088E+02 0.  0.
        -13    1    5    5    0    0  0.25684181525E+02 -0.45932139261E+02  0.42864818450E+02  0.67873641853E+02  0.00000000000E+00 0.  1.
         14    1    5    5    0    0 -0.49507872109E+01  0.31135317347E+02  0.34417646764E+02  0.46674325802E+02  0.00000000000E+00 0. -1.
         13    1    3    3    0    0  0.12109422035E+03  0.32873313415E+02 -0.25661392113E+03  0.28564868188E+03  0.00000000000E+00 0. -1.
        -14    1    3    3    0    0 -0.13468025493E+02 -0.54060559556E+01 -0.28126795654E+02  0.31650115093E+02  0.00000000000E+00 0.  1.
          5    1    4    4  501    0 -0.92495757208E+02  0.30906352525E+01 -0.14749350705E+03  0.17417469434E+03  0.41800000000E+01 0. -1.
         -5    1    4    4    0  501 -0.35863831965E+02 -0.15761070798E+02  0.21874426340E+02  0.45062054144E+02  0.41800000000E+01 0. -1.
</event>
<event>
11    1  0.6455215E-009  0.1559280E+03  0.7561462E-02  0.1090971E+00
         22   -1    0    0    0    0  0.00000000000E+00  0.00000000000E+00  0.31252368978E+03  0.31252368978E+03  0.00000000000E+00 0.  1.
         22   -1    0    0    0    0 -0.00000000000E+00 -0.00000000000E+00 -0.22331403373E+03  0.22331403373E+03  0.00000000000E+00 0. -1.
        -24    2    1    2    0    0 -0.34567222278E+02  0.38490465558E+02 -0.93617217497E+02  0.13337046256E+03  0.79668614119E+02 0.  0.
         25    2    1    2    0    0  0.95376916367E+02 -0.97437791091E+02  0.11527086001E+01  0.18503824027E+03  0.12508773848E+03 0.  0.
         24    2    1    2    0    0 -0.60809694090E+02  0.58947325533E+02  0.18167416494E+03  0.21742902069E+03  0.84245301040E+02 0.  0.
        -11    1    5    5    0    0 -0.79153230210E+02  0.29594469669E+02  0.13609940107E+03  0.16020022927E+03  0.00000000000E+00 0.  1.
         12    1    5    5    0    0  0.18343536121E+02  0.29352855864E+02  0.45574763873E+02  0.57228791415E+02  0.00000000000E+00 0. -1.
         13    1    3    3    0    0  0.25009113026E+02  0.20724059487E+02 -0.26851942447E+02  0.42142249455E+02  0.00000000000E+00 0. -1.
        -14    1    3    3    0    0 -0.59576335304E+02  0.17766406071E+02 -0.66765275050E+02  0.91228213100E+02  0.00000000000E+00 0.  1.
          5    1    4    4  501    0  0.38789642534E+02  0.20653039803E+02  0.26650733702E+02  0.51564701375E+02  0.41800000000E+01 0.  1.
         -5    1    4    4    0  501  0.56587273833E+02 -0.11809083089E+03 -0.25498025102E+02  0.13347353890E+03  0.41800000000E+01 0.  1.
</event>
<event>
11    1  0.6455215E-009  0.3925312E+03  0.7561462E-02  0.9672056E-01
         22   -1    0    0    0    0  0.00000000000E+00  0.00000000000E+00  0.41606230683E+04  0.41606230683E+04  0.00000000000E+00 0.  1.
         22   -1    0    0    0    0 -0.00000000000E+00 -0.00000000000E+00 -0.97072056796E+03  0.97072056796E+03  0.00000000000E+00 0.  1.
         24    2    1    2    0    0  0.10112336719E+03  0.57495420758E+02 -0.84181185079E+03  0.85439609690E+03  0.88395924527E+02 0.  0.
         25    2    1    2    0    0  0.18176658743E+02  0.14719306805E+02 -0.87559778231E+02  0.15447076223E+03  0.12508977857E+03 0.  0.
        -24    2    1    2    0    0 -0.11930002593E+03 -0.72214727563E+02  0.41192741293E+04  0.41224767771E+04  0.83354436941E+02 0.  0.
        -13    1    3    3    0    0  0.88980333883E+02  0.13189392652E+02 -0.68843871869E+03  0.69429052225E+03  0.00000000000E+00 0.  1.
         14    1    3    3    0    0  0.12143033309E+02  0.44306028106E+02 -0.15337313210E+03  0.16010557465E+03  0.00000000000E+00 0. -1.
         11    1    5    5    0    0 -0.32703825076E+02 -0.49336480526E+02  0.89297760647E+03  0.89493722357E+03  0.00000000000E+00 0. -1.
        -12    1    5    5    0    0 -0.86596200859E+02 -0.22878247037E+02  0.32262965228E+04  0.32275395535E+04  0.00000000000E+00 0.  1.
          5    1    4    4  501    0  0.35600553292E+02 -0.15370813570E+02 -0.10737049331E+03  0.11423465559E+03  0.41800000000E+01 0. -1.
         -5    1    4    4    0  501 -0.17423894549E+02  0.30090120375E+02  0.19810715077E+02  0.40236106637E+02  0.41800000000E+01 0. -1.
</event>
<event>
11    1  0.6455215E-009  0.1374098E+03  0.7561462E-02  0.1110486E+00
         22   -1    0    0    0    0  0.00000000000E+00  0.00000000000E+00  0.42476163145E+03  0.42476163145E+03  0.00000000000E+00 0.  1.
         22   -1    0    0    0    0 -0.00000000000E+00 -0.00000000000E+00 -0.23809620185E+03  0.23809620185E+03  0.00000000000E+00 0.  1.
        -24    2    1    2    0    0  0.53535658724E+02  0.28693899852E+02 -0.18970184625E+03  0.21393361724E+03  0.78047392448E+02 0.  0.
         25    2    1    2    0    0 -0.82785127357E+01 -0.10802239794E+02  0.11046021287E+03  0.16743503786E+03  0.12509121120E+03 0.  0.
         24    2    1    2    0    0 -0.45257145989E+02 -0.17891660059E+02  0.26590706298E+03  0.28148917820E+03  0.78493761132E+02 0.  0.
        -13    1    5    5    0    0 -0.31554576260E+02 -0.38182427856E+02  0.24287415180E+03  0.24787384431E+03  0.00000000000E+00 0.  1.
         14    1    5    5    0    0 -0.13702569728E+02  0.20290767797E+02  0.23032911180E+02  0.33615333888E+02  0.00000000000E+00 0. -1.
         13    1    3    3    0    0  0.40631951491E+02 -0.27542806346E+01 -0.29813173144E+02  0.50471445756E+02  0.00000000000E+00 0. -1.
        -14    1    3    3    0    0  0.12903707234E+02  0.31448180487E+02 -0.15988867311E+03  0.16346217148E+03  0.00000000000E+00 0.  1.
          5    1    4    4  501    0  0.18586866740E+02 -0.63327335821E+02  0.50450066215E+02  0.83177549005E+02  0.41800000000E+01 0.  1.
         -5    1    4    4    0  501 -0.26865379476E+02  0.52525096027E+02  0.60010146651E+02  0.84257488855E+02  0.41800000000E+01 0.  1.
</event>
<event>
11    1  0.6455215E-009  0.1427683E+03  0.7561462E-02  0.1104506E+00
         22   -1    0    0    0    0  0.00000000000E+00  0.00000000000E+00  0.24656590006E+03  0.24656590006E+03  0.00000000000E+00 0.  1.
         22   -1    0    0    0    0 -0.00000000000E+00 -0.00000000000E+00 -0.14418127844E+04  0.14418127844E+04  0.00000000000E+00 0.  1.
        -24    2    1    2    0    0  0.68463420140E+02  0.10438960002E+02 -0.13761876599E+04  0.13802571364E+04  0.80131613637E+02 0.  0.
         25    2    1    2    0    0 -0.52693483862E+02  0.24285132416E+02  0.42488398809E+02  0.14428804494E+03  0.12508958782E+03 0.  0.
         24    2    1    2    0    0 -0.15769936278E+02 -0.34724092418E+02  0.13845237672E+03  0.16383350316E+03  0.78853678759E+02 0.  0.
        -13    1    5    5    0    0 -0.18496372930E+02 -0.56344635227E+02  0.12465143595E+03  0.13803917637E+03  0.00000000000E+00 0.  1.
         14    1    5    5    0    0  0.27264366522E+01  0.21620542808E+02  0.13800940775E+02  0.25794326788E+02  0.00000000000E+00 0. -1.
         11    1    3    3    0    0  0.17182558297E+02 -0.31478023042E+02 -0.67378196064E+03  0.67473567915E+03  0.00000000000E+00 0. -1.
        -12    1    3    3    0    0  0.51280861843E+02  0.41916983044E+02 -0.70240569927E+03  0.70552145724E+03  0.00000000000E+00 0.  1.
          5    1    4    4  501    0 -0.78826250522E+02 -0.10184239952E+02 -0.52099342875E+01  0.79761596837E+02  0.41800000000E+01 0. -1.
         -5    1    4    4    0  501  0.26132766660E+02  0.34469372368E+02  0.47698333096E+02  0.64526448104E+02  0.41800000000E+01 0. -1.
</event>
<event>
11    1  0.6455215E-009  0.1911314E+03  0.7561462E-02  0.1060978E+00
         22   -1    0    0    0    0  0.00000000000E+00  0.00000000000E+00  0.14713081586E+03  0.14713081586E+03  0.00000000000E+00 0. -1.
         22   -1    0    0    0    0 -0.00000000000E+00 -0.00000000000E+00 -0.10077001192E+04  0.10077001192E+04  0.00000000000E+00 0.  1.
        -24    2    1    2    0    0 -0.18020081864E+02  0.66630072843E+02 -0.47662551455E+03  0.48840350447E+03  0.81251536016E+02 0.  0.
         25    2    1    2    0    0 -0.50849630822E+02 -0.18750146529E+03 -0.43983217782E+03  0.49683226375E+03  0.12508984456E+03 0.  0.
         24    2    1    2    0    0  0.68869712687E+02  0.12087139245E+03  0.55888388999E+02  0.16959516687E+03  0.79284788975E+02 0.  0.
        -11    1    5    5    0    0  0.10794941437E+01  0.39482170649E+02 -0.14879521165E+02  0.42206720518E+02  0.00000000000E+00 0.  1.
         12    1    5    5    0    0  0.67790218543E+02  0.81389221800E+02  0.70767910163E+02  0.12738844635E+03  0.00000000000E+00 0. -1.
         11    1    3    3    0    0 -0.25956690745E+02 -0.41605727199E+01 -0.56938345306E+02  0.62713916525E+02  0.00000000000E+00 0. -1.
        -12    1    3    3    0    0  0.79366088804E+01  0.70790645563E+02 -0.41968716924E+03  0.42568958795E+03  0.00000000000E+00 0.  1.
          5    1    4    4  501    0 -0.90910535163E+02 -0.12514901504E+03 -0.26458512957E+03  0.30651225841E+03  0.41800000000E+01 0. -1.
         -5    1    4    4    0  501  0.40060904340E+02 -0.62352450252E+02 -0.17524704825E+03  0.19032000533E+03  0.41800000000E+01 0. -1.
</event>
<event>
11    1  0.6455215E-009  0.3075389E+03  0.7561462E-02  0.9970501E-01
         22   -1    0    0    0    0  0.00000000000E+00  0.00000000000E+00  0.10361988505E+04  0.10361988505E+04  0.00000000000E+00 0. -1.
         22   -1    0    0    0    0 -0.00000000000E+00 -0.00000000000E+00 -0.13338963178E+04  0.13338963178E+04  0.00000000000E+00 0. -1.
         24    2    1    2    0    0 -0.14398424663E+02  0.35307669976E+01 -0.91249430451E+03  0.91603378687E+03  0.79071246183E+02 0.  0.
         25    2    1    2    0    0 -0.86200381384E+02 -0.26595461008E+03 -0.33891006221E+03  0.45680383407E+03  0.12508937674E+03 0.  0.
        -24    2    1    2    0    0  0.10059880605E+03  0.26242384308E+03  0.95370689940E+03  0.99725754741E+03  0.77326403762E+02 0.  0.
        -11    1    3    3    0    0  0.17718295331E+02  0.23240268039E+02 -0.16343417963E+03  0.16602644102E+03  0.00000000000E+00 0.  1.
         12    1    3    3    0    0 -0.32116719994E+02 -0.19709501041E+02 -0.74906012488E+03  0.75000734585E+03  0.00000000000E+00 0. -1.
         11    1    5    5    0    0  0.11177215638E+03  0.23541412487E+03  0.88551137475E+03  0.92306187222E+03  0.00000000000E+00 0. -1.
        -12    1    5    5    0    0 -0.11173350338E+02  0.27009718218E+02  0.68195524647E+02  0.74195675197E+02  0.00000000000E+00 0.  1.
          5    1    4    4  501    0 -0.92354846442E+02 -0.25131558890E+03 -0.34715232649E+03  0.43843032864E+03  0.41800000000E+01 0. -1.
         -5    1    4    4    0  501  0.61544650582E+01 -0.14639021183E+02  0.82422642720E+01  0.18373505427E+02  0.41800000000E+01 0. -1.
</event>
<event>
11    1  0.6455215E-009  0.1404243E+03  0.7561462E-02  0.1107085E+00
         22   -1    0    0    0    0  0.00000000000E+00  0.00000000000E+00  0.27236115887E+03  0.27236115887E+03  0.00000000000E+00 0. -1.
         22   -1    0    0    0    0 -0.00000000000E+00 -0.00000000000E+00 -0.15644996566E+04  0.15644996566E+04  0.00000000000E+00 0. -1.
        -24    2    1    2    0    0  0.69850115004E+02  0.34707754555E+02 -0.88731709396E+03  0.89434032594E+03  0.80183081538E+02 0.  0.
         25    2    1    2    0    0 -0.17445126979E+02 -0.42221583446E+02 -0.65803480708E+03  0.67137459904E+03  0.12508817028E+03 0.  0.
         24    2    1    2    0    0 -0.52404988025E+02  0.75138288906E+01  0.25321340329E+03  0.27114589051E+03  0.81242390055E+02 0.  0.
        -13    1    5    5    0    0  0.20722348716E+02  0.49063559216E+01  0.86461187923E+02  0.89045073316E+02  0.00000000000E+00 0.  1.
         14    1    5    5    0    0 -0.73127336741E+02  0.26074729690E+01  0.16675221537E+03  0.18210081720E+03  0.00000000000E+00 0. -1.
         13    1    3    3    0    0  0.53747041591E+02  0.23506508433E+02 -0.85137711323E+03  0.85339574018E+03  0.00000000000E+00 0. -1.
        -14    1    3    3    0    0  0.16103073413E+02  0.11201246122E+02 -0.35939980734E+02  0.40944585761E+02  0.00000000000E+00 0.  1.
          5    1    4    4  501    0 -0.37085929294E+02 -0.70204454025E+02 -0.58776112968E+03  0.59311436459E+03  0.41800000000E+01 0. -1.
         -5    1    4    4    0  501  0.19640802315E+02  0.27982870580E+02 -0.70273677402E+02  0.78260234456E+02  0.41800000000E+01 0. -1.
</event>
<event>
11    1  0.6455215E-009  0.2566326E+03  0.7561462E-02  0.1020424E+00
         22   -1    0    0    0    0  0.00000000000E+00  0.00000000000E+00  0.20050022268E+04  0.20050022268E+04  0.00000000000E+00 0.  1.
         22   -1    0    0    0    0 -0.00000000000E+00 -0.00000000000E+00 -0.34010413241E+03  0.34010413241E+03  0.00000000000E+00 0.  1.
        -24    2    1    2    0    0 -0.19889753068E+03 -0.11013586450E+03 -0.24167539395E+03  0.34140182081E+03  0.80362123254E+02 0.  0.
         25    2    1    2    0    0  0.17836507740E+03  0.99521228072E+02  0.25440824730E+03  0.34941486793E+03  0.12509443618E+03 0.  0.
         24    2    1    2    0    0  0.20532453279E+02  0.10614636430E+02  0.16521652411E+04  0.16542896705E+04  0.80561020369E+02 0.  0.
        -13    1    5    5    0    0  0.16781767407E+02 -0.33774661564E+02  0.60217775594E+03  0.60335760974E+03  0.00000000000E+00 0.  1.
         14    1    5    5    0    0  0.37506858715E+01  0.44389297994E+02  0.10499874851E+04  0.10509320608E+04  0.00000000000E+00 0. -1.
         11    1    3    3    0    0 -0.32048524706E+02  0.64125632224E+01 -0.12739461023E+02  0.35078807991E+02  0.00000000000E+00 0. -1.
        -12    1    3    3    0    0 -0.16684900597E+03 -0.11654842772E+03 -0.22893593293E+03  0.30632301282E+03  0.00000000000E+00 0.  1.
          5    1    4    4  501    0 -0.11881371227E+01 -0.18185180262E+02  0.48207347963E+02  0.51706220599E+02  0.41800000000E+01 0. -1.
         -5    1    4    4    0  501  0.17955321452E+03  0.11770640833E+03  0.20620089934E+03  0.29770864733E+03  0.41800000000E+01 0. -1.
</event>
<event>
11    1  0.6455215E-009  0.1794154E+03  0.7561462E-02  0.1070117E+00
         22   -1    0    0    0    0  0.00000000000E+00  0.00000000000E+00  0.12982156674E+03  0.12982156674E+03  0.00000000000E+00 0.  1.
         22   -1    0    0    0    0 -0.00000000000E+00 -0.00000000000E+00 -0.10513047052E+04  0.10513047052E+04  0.00000000000E+00 0.  1.
        -24    2    1    2    0    0 -0.61243389705E+02 -0.30426337386E+01 -0.76530132793E+03  0.77257564249E+03  0.86179988612E+02 0.  0.
         25    2    1    2    0    0  0.14804136680E+03 -0.76869280978E+02 -0.16479358422E+03  0.26576197358E+03  0.12508944223E+03 0.  0.
         24    2    1    2    0    0 -0.86797977093E+02  0.79911914717E+02  0.86117736550E+01  0.14278865591E+03  0.79966459659E+02 0.  0.
        -13    1    5    5    0    0 -0.29453258691E+02  0.70852382459E+02  0.27849871115E+02  0.81628241858E+02  0.00000000000E+00 0.  1.
         14    1    5    5    0    0 -0.57344718402E+02  0.90595322577E+01 -0.19238097460E+02  0.61160414053E+02  0.00000000000E+00 0. -1.
         13    1    3    3    0    0 -0.40403968536E+01  0.23949741072E+02 -0.64429557519E+02  0.68855521102E+02  0.00000000000E+00 0. -1.
        -14    1    3    3    0    0 -0.57202992851E+02 -0.26992374811E+02 -0.70087177041E+03  0.70372012139E+03  0.00000000000E+00 0.  1.
          5    1    4    4  501    0  0.11098387020E+03 -0.33670706662E+02 -0.17277876255E+03  0.20813723627E+03  0.41800000000E+01 0. -1.
         -5    1    4    4    0  501  0.37057496598E+02 -0.43198574316E+02  0.79851783289E+01  0.57624737310E+02  0.41800000000E+01 0. -1.
</event>
<event>
11    1  0.6455215E-009  0.1460580E+03  0.7561462E-02  0.1100976E+00
         22   -1    0    0    0    0  0.00000000000E+00  0.00000000000E+00  0.10133891989E+04  0.10133891989E+04  0.00000000000E+00 0. -1.
         22   -1    0    0    0    0 -0.00000000000E+00 -0.00000000000E+00 -0.29172080037E+03  0.29172080037E+03  0.00000000000E+00 0.  1.
        -24    2    1    2    0    0 -0.35690951014E+02  0.99290623821E+01 -0.25152480562E+03  0.26663940385E+03  0.80370477040E+02 0.  0.
         25    2    1    2    0    0 -0.14618449678E+02  0.50768410138E+02  0.13053110924E+03  0.18835368131E+03  0.12509040030E+03 0.  0.
         24    2    1    2    0    0  0.50309400692E+02 -0.60697472520E+02  0.84266209492E+03  0.85011691410E+03  0.80025886208E+02 0.  0.
        -11    1    5    5    0    0 -0.96600890894E+01 -0.39761075030E+02  0.18914929176E+03  0.19352445578E+03  0.00000000000E+00 0.  1.
         12    1    5    5    0    0  0.59969489781E+02 -0.20936397490E+02  0.65351280315E+03  0.65659245832E+03  0.00000000000E+00 0. -1.
         11    1    3    3    0    0 -0.31983817584E+02 -0.34728186916E+01 -0.27905095480E+02  0.42587784759E+02  0.00000000000E+00 0. -1.
        -12    1    3    3    0    0 -0.37071334296E+01  0.13401881074E+02 -0.22361971014E+03  0.22405161909E+03  0.00000000000E+00 0.  1.
          5    1    4    4  501    0 -0.22182716191E+02 -0.14481623118E+02  0.11843244287E+03  0.12143107605E+03  0.41800000000E+01 0. -1.
         -5    1    4    4    0  501  0.75642665135E+01  0.65250033256E+02  0.12098666372E+02  0.66922605268E+02  0.41800000000E+01 0. -1.
</event>
<event>
11    1  0.6455215E-009  0.1401230E+03  0.7561462E-02  0.1107421E+00
         22   -1    0    0    0    0  0.00000000000E+00  0.00000000000E+00  0.48270911699E+03  0.48270911699E+03  0.00000000000E+00 0. -1.
         22   -1    0    0    0    0 -0.00000000000E+00 -0.00000000000E+00 -0.32860468341E+04  0.32860468341E+04  0.00000000000E+00 0. -1.
         24    2    1    2    0    0 -0.63423433926E+02  0.42727149816E+02 -0.25829646931E+04  0.25855625251E+04  0.87056442216E+02 0.  0.
         25    2    1    2    0    0 -0.86879133742E+01 -0.18751856353E+02 -0.68951048163E+03  0.70106931731E+03  0.12508545653E+03 0.  0.
        -24    2    1    2    0    0  0.72111347301E+02 -0.23975293463E+02  0.46913745765E+03  0.48212410865E+03  0.81110054064E+02 0.  0.
        -11    1    3    3    0    0  0.19185556896E+02  0.17489545453E+02 -0.90907885183E+03  0.90944946459E+03  0.00000000000E+00 0.  1.
         12    1    3    3    0    0 -0.82608990823E+02  0.25237604363E+02 -0.16738858413E+04  0.16761130606E+04  0.00000000000E+00 0. -1.
         13    1    5    5    0    0  0.80740305135E+02 -0.38477348003E+02  0.32779924501E+03  0.33978205987E+03  0.00000000000E+00 0. -1.
        -14    1    5    5    0    0 -0.86289578345E+01  0.14502054540E+02  0.14133821264E+03  0.14234204878E+03  0.00000000000E+00 0.  1.
          5    1    4    4  501    0 -0.11664156904E+02 -0.35098145277E+02 -0.55489149314E+02  0.66816543234E+02  0.41800000000E+01 0.  1.
         -5    1    4    4    0  501  0.29762435303E+01  0.16346288924E+02 -0.63402133232E+03  0.63425277407E+03  0.41800000000E+01 0.  1.
</event>
<event>
11    1  0.6455215E-009  0.3083568E+03  0.7561462E-02  0.9967152E-01
         22   -1    0    0    0    0  0.00000000000E+00  0.00000000000E+00  0.11783311043E+03  0.11783311043E+03  0.00000000000E+00 0.  1.
         22   -1    0    0    0    0 -0.00000000000E+00 -0.00000000000E+00 -0.21672996854E+04  0.21672996854E+04  0.00000000000E+00 0. -1.
         24    2    1    2    0    0 -0.54787179184E+02  0.31019242641E+02 -0.10034648755E+04  0.10086832086E+04  0.80846958207E+02 0.  0.
         25    2    1    2    0    0  0.18281475201E+03 -0.26920376118E+03 -0.88071059500E+03  0.94720143636E+03  0.12509000888E+03 0.  0.
        -24    2    1    2    0    0 -0.12802757282E+03  0.23818451854E+03 -0.16529110446E+03  0.32924815080E+03  0.89220352603E+02 0.  0.
        -11    1    3    3    0    0  0.59196170107E+01  0.39190571454E+02 -0.31125953800E+03  0.31377291590E+03  0.00000000000E+00 0.  1.
         12    1    3    3    0    0 -0.60706796194E+02 -0.81713288129E+01 -0.69220533747E+03  0.69491029273E+03  0.00000000000E+00 0. -1.
         13    1    5    5    0    0 -0.27527752533E+02  0.16849467850E+01 -0.19811358538E+02  0.33957416455E+02  0.00000000000E+00 0. -1.
        -14    1    5    5    0    0 -0.10049982029E+03  0.23649957175E+03 -0.14547974593E+03  0.29529073435E+03  0.00000000000E+00 0.  1.
          5    1    4    4  501    0  0.13295409404E+03 -0.19440504662E+03 -0.45808966646E+03  0.51510555053E+03  0.41800000000E+01 0. -1.
         -5    1    4    4    0  501  0.49860657972E+02 -0.74798714559E+02 -0.42262092854E+03  0.43209588583E+03  0.41800000000E+01 0. -1.
</event>
<event>
11    1  0.6455215E-009  0.1312911E+03  0.7561462E-02  0.1117693E+00
         22   -1    0    0    0    0  0.00000000000E+00  0.00000000000E+00  0.41558949172E+03  0.41558949172E+03  0.00000000000E+00 0. -1.
         22   -1    0    0    0    0 -0.00000000000E+00 -0.00000000000E+00 -0.10151066376E+03  0.10151066376E+03  0.00000000000E+00 0.  1.
         24    2    1    2    0    0 -0.27102246117E+02  0.17418114432E+02 -0.12320498919E+02  0.10966566882E+03  0.10410015259E+03 0.  0.
         25    2    1    2    0    0  0.79563431352E+02 -0.12122926200E+02  0.20534078555E+03  0.25355679918E+03  0.12509559247E+03 0.  0.
        -24    2    1    2    0    0 -0.52461185234E+02 -0.52951882313E+01  0.12105854133E+03  0.15387768747E+03  0.79012386986E+02 0.  0.
        -11    1    3    3    0    0  0.55233900151E+01  0.56976548149E+02 -0.11472390727E+02  0.58381937491E+02  0.00000000000E+00 0.  1.
         12    1    3    3    0    0 -0.32625636133E+02 -0.39558433718E+02 -0.84810819187E+00  0.51283731326E+02  0.00000000000E+00 0. -1.
         11    1    5    5    0    0 -0.19938346717E+02  0.22583575902E+02  0.10313124213E+03  0.10744118705E+03  0.00000000000E+00 0. -1.
        -12    1    5    5    0    0 -0.32522838517E+02 -0.27878764134E+02  0.17927299197E+02  0.46436500420E+02  0.00000000000E+00 0.  1.
          5    1    4    4  501    0  0.96752775080E+01  0.24500896055E+02  0.16051052499E+03  0.16271141919E+03  0.41800000000E+01 0.  1.
         -5    1    4    4    0  501  0.69888153844E+02 -0.36623822256E+02  0.44830260557E+02  0.90845379992E+02  0.41800000000E+01 0.  1.
</event>
<event>
11    1  0.6455215E-009  0.1713713E+03  0.7561462E-02  0.1076844E+00
         22   -1    0    0    0    0  0.00000000000E+00  0.00000000000E+00  0.27567282491E+03  0.27567282491E+03  0.00000000000E+00 0. -1.
         22   -1    0    0    0    0 -0.00000000000E+00 -0.00000000000E+00 -0.37331990027E+03  0.37331990027E+03  0.00000000000E+00 0.  1.
         24    2    1    2    0    0 -0.99462339603E+02  0.61091599104E+02 -0.26137453491E+03  0.29755696198E+03  0.81231506481E+02 0.  0.
         25    2    1    2    0    0  0.11055589638E+03 -0.47263966793E+02  0.48136637787E+01  0.17357039245E+03  0.12508805296E+03 0.  0.
        -24    2    1    2    0    0 -0.11093556779E+02 -0.13827632311E+02  0.15891379577E+03  0.17786537075E+03  0.77898813912E+02 0.  0.
        -11    1    3    3    0    0 -0.71902257074E+02  0.24660698300E+02 -0.22974744198E+03  0.24199580928E+03  0.00000000000E+00 0.  1.
         12    1    3    3    0    0 -0.27560082529E+02  0.36430900804E+02 -0.31627092927E+02  0.55561152701E+02  0.00000000000E+00 0. -1.
         13    1    5    5    0    0 -0.16571564925E+02 -0.36860190133E+02  0.14473010283E+03  0.15026673965E+03  0.00000000000E+00 0. -1.
        -14    1    5    5    0    0  0.54780081460E+01  0.23032557822E+02  0.14183692941E+02  0.27598631098E+02  0.00000000000E+00 0.  1.
          5    1    4    4  501    0  0.26189627822E+02 -0.68918292421E+02  0.34429924238E+02  0.81477111625E+02  0.41800000000E+01 0. -1.
         -5    1    4    4    0  501  0.84366268560E+02  0.21654325628E+02 -0.29616260459E+02  0.92093280823E+02  0.41800000000E+01 0. -1.
</event>
<event>
11    1  0.6455215E-009  0.2914930E+03  0.7561462E-02  0.1003857E+00
         22   -1    0    0    0    0  0.00000000000E+00  0.00000000000E+00  0.24022186280E+04  0.24022186280E+04  0.00000000000E+00 0.  1.
         22   -1    0    0    0    0 -0.00000000000E+00 -0.00000000000E+00 -0.23567513054E+03  0.23567513054E+03  0.00000000000E+00 0. -1.
         24    2    1    2    0    0 -0.90875041446E+02 -0.23040894766E+03 -0.79107569297E+02  0.27381391947E+03  0.85845784144E+02 0.  0.
         25    2    1    2    0    0  0.16642216840E+03  0.34348498169E+03  0.67782195397E+03  0.78788815278E+03  0.12508744630E+03 0.  0.
        -24    2    1    2    0    0 -0.75547126957E+02 -0.11307603404E+03  0.15678291127E+04  0.15761916862E+04  0.88309383118E+02 0.  0.
        -13    1    3    3    0    0 -0.38045691826E+02 -0.14258187950E+03 -0.55804718982E+01  0.14767602613E+03  0.00000000000E+00 0.  1.
         14    1    3    3    0    0 -0.52829349620E+02 -0.87827068157E+02 -0.73527097399E+02  0.12613789333E+03  0.00000000000E+00 0. -1.
         13    1    5    5    0    0  0.29882684346E+01 -0.29907446627E+00  0.74644780122E+00  0.30945723604E+01  0.00000000000E+00 0. -1.
        -14    1    5    5    0    0 -0.78535395391E+02 -0.11277695957E+03  0.15670826649E+04  0.15730971139E+04  0.00000000000E+00 0.  1.
          5    1    4    4  501    0  0.38081726039E+02  0.18137351650E+03  0.23632965962E+03  0.30035936936E+03  0.41800000000E+01 0. -1.
         -5    1    4    4    0  501  0.12834044236E+03  0.16211146519E+03  0.44149229435E+03  0.48752878342E+03  0.41800000000E+01 0. -1.
</event>
